# LAMMPS data file written by OVITO
40 atoms
2 atom types
0.0 20.0286713 xlo xhi
0.0 19.7664452 ylo yhi
0.0 20.2508412 zlo zhi
0.4635746 -0.0987573 -0.1291803 xy xz yz

Atoms # atomic

1 1 5.4682431 3.9940758 3.6557732
2 1 4.0447803 4.7120614 4.4444933
3 1 5.6394692 5.5662165 4.4869437
4 1 5.3617754 4.0813623 5.4605317
5 1 5.4215484 3.9353996 13.7773247
6 1 3.9942628 4.6532965 14.5678091
7 1 5.5887575 5.495276 14.6079397
8 1 5.3046465 4.0120282 15.5807143
9 1 5.6984511 13.8797904 3.6525979
10 1 4.2729535 14.6026392 4.4413266
11 1 5.8638668 15.4455071 4.4885254
12 1 5.5952082 13.959654 5.4602089
13 1 5.645834 13.8193894 13.7728663
14 1 4.2214422 14.5444489 14.5696545
15 1 5.8205843 15.3796463 14.6071158
16 1 5.5385218 13.9015446 15.5850582
17 1 15.4817953 3.9982756 3.652942
18 1 14.0481644 4.7203388 4.4347821
19 1 15.6531868 5.5671435 4.4843388
20 1 15.3781605 4.0867705 5.4613834
21 1 15.4309607 3.9338912 13.7749586
22 1 14.0046692 4.6545758 14.5659848
23 1 15.5985041 5.5019307 14.6098185
24 1 15.3270846 4.0181389 15.5762472
25 1 15.7173891 13.8816558 3.6502464
26 1 14.2876635 14.5961209 4.4367724
27 1 15.881714 15.4507742 4.482101
28 1 15.6071396 13.9644928 5.4546013
29 1 15.6613226 13.8151036 13.7771921
30 1 14.2393236 14.5402422 14.5623875
31 1 15.8405572 15.3743925 14.612279
32 1 15.5567675 13.9065562 15.5838394
33 2 5.1286035 4.5872569 4.5093799
34 2 5.0799251 4.5278712 14.6355315
35 2 5.3625279 14.4761362 4.5041118
36 2 5.3088832 14.4073782 14.633339
37 2 15.140749 4.5933781 4.5104752
38 2 15.0874662 4.5254464 14.6274548
39 2 15.3748512 14.4755059 4.5045319
40 2 15.3226509 14.4110222 14.6366158
