5.213350000000000151e+00 3.957809999999999828e+00 3.593799999999999883e+00 3.738090000000000135e+00 4.679660000000000153e+00 4.459760000000000169e+00 5.378709999999999880e+00 5.518019999999999925e+00 4.404099999999999682e+00 5.110409999999999897e+00 3.996480000000000032e+00 5.383060000000000400e+00 4.862630000000000230e+00 4.546680000000000277e+00 4.439890000000000114e+00
5.325549999999999784e+00 4.082760000000000389e+00 3.659520000000000106e+00 3.939740000000000020e+00 4.880230000000000068e+00 4.459760000000000169e+00 5.530610000000000248e+00 5.686899999999999622e+00 4.518839999999999968e+00 5.114329999999999821e+00 4.215840000000000032e+00 5.559910000000000352e+00 4.961560000000000414e+00 4.716029999999999944e+00 4.552019999999999733e+00
5.539889999999999759e+00 3.998380000000000045e+00 3.558139999999999858e+00 4.067379999999999995e+00 4.648329999999999629e+00 4.363129999999999953e+00 5.615420000000000300e+00 5.545029999999999681e+00 4.435740000000000016e+00 5.418239999999999945e+00 4.075590000000000046e+00 5.304319999999999702e+00 5.115890000000000271e+00 4.568039999999999878e+00 4.378919999999999924e+00
5.316589999999999705e+00 4.015640000000000320e+00 3.717449999999999921e+00 3.931239999999999846e+00 4.947020000000000195e+00 4.386129999999999640e+00 5.505300000000000082e+00 5.655549999999999855e+00 4.595690000000000275e+00 5.187509999999999621e+00 4.222380000000000244e+00 5.454699999999999882e+00 4.959030000000000271e+00 4.718119999999999870e+00 4.555690000000000239e+00
5.233089999999999797e+00 3.942379999999999995e+00 3.604429999999999801e+00 3.702570000000000139e+00 4.712320000000000064e+00 4.276250000000000107e+00 5.270220000000000127e+00 5.607879999999999754e+00 4.405249999999999666e+00 5.001109999999999722e+00 4.077009999999999579e+00 5.315859999999999808e+00 4.801800000000000068e+00 4.595989999999999576e+00 4.385180000000000078e+00
5.550609999999999822e+00 4.060940000000000438e+00 3.717210000000000125e+00 4.003770000000000273e+00 4.776250000000000107e+00 4.530549999999999855e+00 5.596059999999999590e+00 5.711030000000000051e+00 4.574119999999999742e+00 5.407569999999999766e+00 4.175709999999999589e+00 5.514619999999999855e+00 5.155800000000000161e+00 4.691180000000000128e+00 4.560810000000000031e+00
5.401139999999999830e+00 4.041190000000000282e+00 3.660489999999999799e+00 3.981390000000000207e+00 4.839249999999999829e+00 4.531539999999999679e+00 5.562120000000000175e+00 5.660919999999999952e+00 4.469149999999999956e+00 5.279259999999999842e+00 4.142529999999999824e+00 5.437470000000000248e+00 5.056129999999999569e+00 4.687160000000000437e+00 4.516300000000000203e+00
5.318950000000000067e+00 4.120210000000000150e+00 3.498629999999999907e+00 3.877769999999999939e+00 4.914480000000000182e+00 4.242130000000000400e+00 5.500230000000000175e+00 5.777409999999999712e+00 4.298370000000000246e+00 5.175639999999999574e+00 4.257299999999999862e+00 5.273340000000000138e+00 4.981880000000000308e+00 4.765310000000000379e+00 4.321720000000000006e+00
5.331559999999999633e+00 3.876650000000000151e+00 3.518889999999999851e+00 4.167839999999999989e+00 4.811069999999999958e+00 4.444359999999999644e+00 5.711359999999999992e+00 5.480550000000000033e+00 4.359040000000000248e+00 5.465200000000000280e+00 3.956700000000000106e+00 5.296199999999999797e+00 5.192179999999999573e+00 4.522899999999999920e+00 4.377060000000000173e+00
5.208899999999999864e+00 3.963750000000000107e+00 3.661789999999999878e+00 3.849429999999999907e+00 4.726560000000000095e+00 4.307620000000000005e+00 5.385469999999999757e+00 5.606419999999999959e+00 4.421689999999999898e+00 5.151080000000000325e+00 4.105400000000000382e+00 5.401169999999999582e+00 4.899510000000000254e+00 4.636669999999999625e+00 4.441559999999999953e+00
5.086789999999999701e+00 4.140460000000000029e+00 3.588779999999999859e+00 3.593750000000000000e+00 4.922579999999999956e+00 4.425399999999999778e+00 5.216050000000000075e+00 5.833459999999999646e+00 4.456209999999999560e+00 4.875079999999999636e+00 4.260480000000000267e+00 5.409620000000000317e+00 4.721140000000000114e+00 4.806790000000000340e+00 4.457419999999999938e+00
5.390039999999999942e+00 3.995169999999999888e+00 3.722820000000000018e+00 3.939929999999999932e+00 4.675159999999999982e+00 4.527199999999999669e+00 5.556530000000000413e+00 5.569840000000000124e+00 4.536290000000000155e+00 5.308180000000000121e+00 4.051919999999999966e+00 5.533389999999999809e+00 5.034390000000000143e+00 4.543619999999999770e+00 4.569289999999999630e+00
5.121480000000000032e+00 4.114340000000000330e+00 3.604039999999999910e+00 3.630030000000000090e+00 4.874159999999999826e+00 4.300939999999999763e+00 5.228379999999999583e+00 5.724300000000000388e+00 4.390629999999999811e+00 4.999150000000000205e+00 4.217299999999999827e+00 5.369869999999999699e+00 4.736439999999999984e+00 4.734549999999999592e+00 4.404149999999999565e+00
5.432109999999999772e+00 3.935890000000000111e+00 3.556290000000000173e+00 4.074080000000000368e+00 4.545849999999999724e+00 4.446189999999999642e+00 5.678919999999999746e+00 5.457629999999999981e+00 4.509960000000000413e+00 5.434529999999999639e+00 3.906880000000000130e+00 5.380799999999999805e+00 5.152919999999999945e+00 4.464529999999999887e+00 4.451889999999999681e+00
5.490079999999999849e+00 3.892069999999999919e+00 3.608130000000000059e+00 4.058230000000000004e+00 4.592080000000000162e+00 4.386129999999999640e+00 5.647669999999999746e+00 5.421800000000000175e+00 4.435410000000000075e+00 5.429969999999999963e+00 3.944529999999999870e+00 5.394680000000000142e+00 5.152400000000000091e+00 4.464170000000000194e+00 4.457620000000000360e+00
5.631319999999999659e+00 4.125449999999999839e+00 3.709569999999999812e+00 4.187800000000000189e+00 4.866069999999999673e+00 4.503860000000000419e+00 5.822869999999999990e+00 5.729110000000000369e+00 4.555030000000000356e+00 5.544880000000000031e+00 4.231090000000000018e+00 5.542740000000000222e+00 5.292139999999999844e+00 4.737729999999999997e+00 4.574639999999999596e+00
5.598559999999999981e+00 4.122049999999999770e+00 3.712359999999999882e+00 4.232920000000000016e+00 4.857649999999999579e+00 4.616570000000000285e+00 5.784229999999999983e+00 5.738489999999999647e+00 4.561759999999999593e+00 5.552419999999999689e+00 4.206640000000000157e+00 5.521860000000000213e+00 5.293700000000000294e+00 4.739969999999999573e+00 4.566200000000000259e+00
5.305710000000000370e+00 4.144989999999999952e+00 3.500030000000000197e+00 3.925570000000000004e+00 4.897719999999999629e+00 4.253239999999999910e+00 5.483100000000000307e+00 5.746780000000000221e+00 4.298070000000000057e+00 5.195020000000000415e+00 4.272770000000000401e+00 5.233550000000000146e+00 4.978819999999999801e+00 4.765900000000000247e+00 4.324019999999999975e+00
5.386720000000000397e+00 4.017820000000000391e+00 3.603200000000000180e+00 3.931729999999999947e+00 4.762839999999999741e+00 4.279119999999999813e+00 5.442669999999999675e+00 5.632710000000000328e+00 4.272499999999999964e+00 5.262199999999999989e+00 4.278080000000000105e+00 5.389269999999999783e+00 4.985619999999999941e+00 4.677889999999999660e+00 4.402849999999999930e+00
5.296140000000000292e+00 3.993259999999999810e+00 3.604960000000000164e+00 3.883620000000000072e+00 4.800849999999999618e+00 4.224039999999999573e+00 5.422620000000000218e+00 5.653629999999999711e+00 4.379850000000000243e+00 5.047760000000000247e+00 4.153839999999999755e+00 5.370079999999999742e+00 4.902700000000000280e+00 4.671610000000000262e+00 4.381610000000000227e+00
5.227380000000000138e+00 3.978270000000000195e+00 3.618059999999999832e+00 3.937769999999999992e+00 4.852330000000000254e+00 4.506509999999999572e+00 5.632520000000000415e+00 5.607009999999999827e+00 4.382690000000000197e+00 5.294229999999999769e+00 4.158000000000000362e+00 5.378260000000000041e+00 5.035650000000000404e+00 4.680450000000000443e+00 4.445979999999999599e+00
5.471940000000000026e+00 4.045880000000000365e+00 3.696000000000000174e+00 3.949920000000000098e+00 4.828170000000000073e+00 4.548799999999999955e+00 5.521510000000000140e+00 5.613129999999999953e+00 4.522300000000000431e+00 5.323269999999999946e+00 4.113199999999999967e+00 5.500539999999999985e+00 5.047460000000000058e+00 4.634859999999999758e+00 4.557559999999999611e+00
5.361159999999999926e+00 4.135360000000000369e+00 3.585230000000000139e+00 3.975909999999999833e+00 5.019779999999999909e+00 4.194659999999999833e+00 5.665379999999999860e+00 5.717159999999999798e+00 4.382679999999999687e+00 5.228570000000000384e+00 4.313170000000000393e+00 5.325090000000000323e+00 5.015920000000000378e+00 4.822250000000000369e+00 4.381099999999999994e+00
5.307159999999999656e+00 3.943259999999999987e+00 3.668379999999999974e+00 3.881029999999999980e+00 4.795359999999999623e+00 4.347179999999999822e+00 5.490789999999999615e+00 5.486810000000000187e+00 4.569020000000000081e+00 5.163859999999999673e+00 4.028299999999999770e+00 5.565100000000000158e+00 4.929750000000000298e+00 4.556720000000000326e+00 4.539369999999999905e+00
5.404810000000000336e+00 4.048930000000000362e+00 3.707570000000000032e+00 3.983169999999999877e+00 4.795020000000000060e+00 4.515550000000000175e+00 5.541389999999999816e+00 5.625840000000000174e+00 4.537799999999999834e+00 5.328389999999999738e+00 4.151530000000000165e+00 5.489169999999999661e+00 5.048199999999999577e+00 4.633110000000000284e+00 4.559020000000000294e+00
5.303689999999999571e+00 4.093119999999999870e+00 3.714900000000000091e+00 3.899239999999999817e+00 4.903340000000000032e+00 4.413210000000000299e+00 5.533430000000000071e+00 5.647750000000000270e+00 4.529139999999999944e+00 5.152519999999999989e+00 4.204959999999999809e+00 5.551560000000000272e+00 4.963339999999999641e+00 4.717410000000000103e+00 4.551120000000000054e+00
5.626870000000000260e+00 4.123339999999999783e+00 3.696989999999999998e+00 4.218980000000000175e+00 4.860400000000000276e+00 4.576640000000000263e+00 5.786979999999999791e+00 5.704939999999999678e+00 4.543510000000000382e+00 5.526480000000000281e+00 4.233439999999999870e+00 5.522439999999999571e+00 5.294430000000000192e+00 4.740199999999999747e+00 4.572280000000000122e+00
5.357350000000000279e+00 4.069759999999999600e+00 3.562219999999999942e+00 3.899010000000000087e+00 4.806119999999999948e+00 4.337049999999999628e+00 5.471529999999999561e+00 5.661380000000000301e+00 4.370619999999999727e+00 5.234070000000000000e+00 4.166570000000000107e+00 5.319740000000000357e+00 4.990730000000000111e+00 4.676859999999999573e+00 4.399060000000000414e+00
5.066670000000000229e+00 4.012380000000000280e+00 3.757120000000000015e+00 3.627889999999999837e+00 4.781399999999999650e+00 4.466039999999999566e+00 5.162060000000000315e+00 5.613010000000000055e+00 4.570400000000000240e+00 5.008659999999999890e+00 4.120980000000000310e+00 5.587430000000000341e+00 4.714660000000000295e+00 4.632369999999999877e+00 4.579699999999999882e+00
5.343410000000000437e+00 4.150739999999999874e+00 3.636870000000000047e+00 3.955400000000000027e+00 4.739419999999999966e+00 4.447280000000000122e+00 5.393040000000000056e+00 5.734659999999999869e+00 4.491200000000000081e+00 5.280380000000000074e+00 4.152910000000000323e+00 5.452440000000000175e+00 5.006969999999999921e+00 4.694350000000000023e+00 4.532930000000000348e+00
5.664950000000000152e+00 4.105019999999999669e+00 3.764609999999999790e+00 4.253149999999999764e+00 4.908330000000000304e+00 4.505020000000000024e+00 5.820260000000000211e+00 5.732269999999999754e+00 4.561209999999999987e+00 5.602430000000000021e+00 4.251030000000000086e+00 5.463549999999999685e+00 5.340340000000000309e+00 4.759809999999999874e+00 4.565570000000000128e+00
5.253029999999999866e+00 3.958800000000000097e+00 3.661929999999999907e+00 3.839350000000000041e+00 4.776019999999999932e+00 4.404499999999999638e+00 5.417019999999999946e+00 5.603509999999999991e+00 4.416150000000000020e+00 5.126759999999999984e+00 4.141790000000000305e+00 5.398200000000000109e+00 4.896069999999999922e+00 4.630180000000000184e+00 4.434190000000000076e+00
5.304389999999999716e+00 4.007679999999999687e+00 3.572020000000000195e+00 3.807799999999999851e+00 4.816569999999999574e+00 4.209789999999999921e+00 5.397809999999999775e+00 5.635970000000000368e+00 4.379220000000000113e+00 5.094710000000000072e+00 4.168149999999999800e+00 5.372860000000000191e+00 4.906489999999999796e+00 4.669380000000000308e+00 4.385360000000000369e+00
5.246419999999999639e+00 4.072589999999999932e+00 3.557430000000000092e+00 3.846420000000000172e+00 4.796730000000000160e+00 4.319300000000000139e+00 5.380080000000000418e+00 5.664410000000000167e+00 4.357249999999999623e+00 5.145920000000000272e+00 4.152519999999999989e+00 5.306219999999999715e+00 4.905310000000000059e+00 4.664559999999999818e+00 4.384839999999999627e+00
5.254179999999999851e+00 3.943599999999999994e+00 3.569059999999999899e+00 3.770700000000000163e+00 4.680250000000000021e+00 4.414939999999999642e+00 5.356709999999999638e+00 5.530999999999999694e+00 4.386630000000000251e+00 5.083009999999999806e+00 4.004859999999999864e+00 5.367549999999999599e+00 4.860629999999999562e+00 4.546030000000000015e+00 4.448430000000000106e+00
5.103570000000000384e+00 4.001450000000000173e+00 3.755549999999999944e+00 3.657610000000000028e+00 4.752830000000000332e+00 4.490350000000000286e+00 5.196979999999999933e+00 5.647669999999999746e+00 4.554920000000000080e+00 4.865429999999999922e+00 4.071839999999999904e+00 5.579690000000000261e+00 4.718130000000000379e+00 4.636870000000000047e+00 4.579740000000000144e+00
5.298960000000000115e+00 4.076500000000000234e+00 3.548140000000000072e+00 3.892650000000000166e+00 4.950700000000000323e+00 4.197919999999999874e+00 5.577340000000000408e+00 5.654130000000000322e+00 4.304339999999999833e+00 5.219089999999999563e+00 4.250899999999999679e+00 5.257229999999999848e+00 4.972269999999999968e+00 4.776729999999999698e+00 4.322119999999999962e+00
5.465279999999999916e+00 4.104519999999999946e+00 3.676719999999999988e+00 3.917730000000000157e+00 4.710519999999999818e+00 4.469699999999999562e+00 5.397940000000000182e+00 5.741679999999999673e+00 4.493730000000000224e+00 5.372169999999999668e+00 4.256969999999999921e+00 5.464760000000000062e+00 4.991909999999999847e+00 4.691360000000000419e+00 4.526510000000000034e+00
5.408900000000000041e+00 4.190240000000000187e+00 3.640239999999999920e+00 3.918620000000000214e+00 4.734880000000000422e+00 4.441180000000000128e+00 5.377939999999999721e+00 5.687429999999999986e+00 4.470839999999999925e+00 5.319899999999999629e+00 4.198409999999999975e+00 5.474829999999999863e+00 5.002550000000000274e+00 4.691580000000000084e+00 4.532989999999999853e+00
5.463180000000000369e+00 4.016659999999999897e+00 3.653900000000000148e+00 3.944220000000000059e+00 4.644929999999999559e+00 4.554109999999999658e+00 5.443950000000000067e+00 5.552719999999999878e+00 4.561659999999999826e+00 5.312429999999999986e+00 4.019999999999999574e+00 5.477380000000000138e+00 5.036970000000000169e+00 4.548429999999999751e+00 4.575339999999999741e+00
5.334500000000000242e+00 4.035569999999999879e+00 3.590790000000000148e+00 3.956789999999999807e+00 4.885779999999999568e+00 4.515469999999999651e+00 5.550099999999999589e+00 5.655479999999999841e+00 4.433189999999999742e+00 5.304750000000000298e+00 4.128709999999999880e+00 5.373440000000000438e+00 5.031139999999999723e+00 4.671299999999999564e+00 4.443699999999999761e+00
5.300600000000000200e+00 4.016160000000000174e+00 3.667339999999999822e+00 3.972970000000000113e+00 4.868380000000000152e+00 4.532639999999999780e+00 5.614580000000000126e+00 5.622440000000000104e+00 4.514619999999999855e+00 5.335930000000000284e+00 4.174649999999999750e+00 5.454790000000000028e+00 5.056110000000000326e+00 4.687350000000000350e+00 4.510410000000000252e+00
5.348749999999999893e+00 4.070669999999999789e+00 3.633420000000000094e+00 3.923700000000000188e+00 4.770050000000000345e+00 4.477780000000000094e+00 5.513040000000000163e+00 5.670600000000000307e+00 4.428279999999999994e+00 5.264330000000000176e+00 4.167370000000000019e+00 5.421269999999999811e+00 5.027610000000000134e+00 4.674000000000000377e+00 4.435439999999999827e+00
5.081520000000000259e+00 4.152660000000000018e+00 3.598850000000000104e+00 3.627629999999999910e+00 4.908640000000000114e+00 4.432549999999999990e+00 5.213689999999999714e+00 5.795639999999999681e+00 4.465609999999999857e+00 4.861189999999999678e+00 4.259859999999999758e+00 5.413979999999999571e+00 4.720110000000000028e+00 4.810139999999999638e+00 4.454839999999999911e+00
5.555539999999999701e+00 4.102109999999999701e+00 3.715840000000000032e+00 4.129640000000000200e+00 4.801190000000000069e+00 4.531299999999999883e+00 5.622589999999999755e+00 5.667180000000000106e+00 4.540589999999999904e+00 5.363540000000000418e+00 4.156579999999999941e+00 5.449989999999999668e+00 5.146359999999999602e+00 4.690920000000000201e+00 4.569029999999999703e+00
5.440279999999999561e+00 4.147210000000000285e+00 3.655640000000000001e+00 3.919500000000000206e+00 4.723019999999999996e+00 4.455899999999999750e+00 5.381450000000000067e+00 5.685550000000000104e+00 4.481139999999999901e+00 5.349929999999999630e+00 4.239530000000000243e+00 5.465180000000000149e+00 4.997069999999999901e+00 4.692890000000000228e+00 4.530429999999999957e+00
5.256439999999999557e+00 4.019309999999999938e+00 3.608560000000000212e+00 3.996900000000000119e+00 4.868210000000000370e+00 4.491729999999999556e+00 5.580309999999999881e+00 5.621990000000000265e+00 4.408750000000000391e+00 5.301859999999999573e+00 4.142640000000000100e+00 5.382670000000000066e+00 5.032020000000000159e+00 4.675740000000000229e+00 4.445459999999999745e+00
5.112149999999999750e+00 4.094540000000000290e+00 3.577170000000000183e+00 3.608089999999999797e+00 4.851549999999999585e+00 4.321780000000000399e+00 5.235199999999999854e+00 5.707799999999999763e+00 4.393970000000000375e+00 4.993369999999999642e+00 4.225019999999999776e+00 5.360159999999999592e+00 4.738959999999999617e+00 4.738819999999999588e+00 4.405190000000000161e+00
5.306029999999999802e+00 4.057249999999999801e+00 3.516589999999999883e+00 3.834309999999999885e+00 4.787580000000000169e+00 4.276779999999999582e+00 5.403909999999999769e+00 5.626649999999999707e+00 4.320120000000000182e+00 5.202390000000000292e+00 4.173779999999999824e+00 5.262310000000000265e+00 4.935139999999999638e+00 4.656349999999999767e+00 4.336579999999999657e+00
5.491439999999999877e+00 3.971280000000000143e+00 3.533269999999999911e+00 4.029469999999999885e+00 4.706290000000000084e+00 4.313089999999999868e+00 5.605940000000000367e+00 5.570359999999999978e+00 4.370049999999999990e+00 5.399130000000000429e+00 4.046409999999999840e+00 5.300449999999999662e+00 5.125460000000000349e+00 4.565789999999999793e+00 4.390950000000000131e+00
5.399280000000000079e+00 4.052200000000000024e+00 3.645620000000000083e+00 3.991099999999999870e+00 4.832230000000000025e+00 4.484989999999999810e+00 5.550839999999999996e+00 5.661629999999999718e+00 4.468779999999999752e+00 5.281819999999999737e+00 4.154329999999999856e+00 5.460259999999999891e+00 5.056199999999999584e+00 4.685789999999999900e+00 4.519540000000000113e+00
5.457119999999999749e+00 4.168669999999999654e+00 3.592999999999999972e+00 4.007539999999999658e+00 4.814650000000000318e+00 4.417309999999999626e+00 5.589290000000000092e+00 5.684759999999999813e+00 4.456649999999999778e+00 5.336330000000000240e+00 4.202549999999999564e+00 5.444980000000000153e+00 5.122370000000000090e+00 4.730579999999999785e+00 4.486369999999999969e+00
5.208829999999999849e+00 3.913390000000000146e+00 3.853139999999999787e+00 3.835859999999999825e+00 4.984569999999999723e+00 4.391379999999999839e+00 5.548210000000000086e+00 5.607310000000000016e+00 4.441650000000000098e+00 5.063830000000000275e+00 4.253239999999999910e+00 5.542460000000000164e+00 4.901410000000000267e+00 4.697259999999999991e+00 4.524009999999999643e+00
5.360619999999999941e+00 4.126240000000000130e+00 3.688009999999999788e+00 3.804269999999999818e+00 4.747959999999999958e+00 4.408850000000000158e+00 5.392590000000000217e+00 5.618050000000000210e+00 4.603449999999999598e+00 5.121540000000000425e+00 4.119360000000000355e+00 5.514700000000000379e+00 4.904279999999999973e+00 4.674479999999999968e+00 4.575879999999999725e+00
5.280730000000000146e+00 4.001549999999999940e+00 3.621570000000000178e+00 3.778640000000000221e+00 4.814160000000000217e+00 4.270859999999999879e+00 5.383479999999999599e+00 5.662119999999999820e+00 4.388379999999999725e+00 5.064059999999999562e+00 4.146749999999999936e+00 5.308950000000000280e+00 4.914629999999999832e+00 4.669690000000000119e+00 4.380709999999999660e+00
5.482949999999999768e+00 3.928110000000000213e+00 3.523000000000000131e+00 4.090069999999999872e+00 4.675550000000000317e+00 4.316740000000000244e+00 5.707760000000000389e+00 5.504509999999999792e+00 4.378490000000000215e+00 5.487370000000000303e+00 4.004859999999999864e+00 5.330540000000000056e+00 5.184499999999999886e+00 4.523889999999999745e+00 4.382859999999999978e+00
5.355769999999999698e+00 4.031930000000000014e+00 3.635969999999999924e+00 3.846760000000000179e+00 4.741880000000000095e+00 4.428560000000000052e+00 5.477809999999999846e+00 5.517100000000000115e+00 4.527989999999999959e+00 5.211750000000000327e+00 3.986390000000000100e+00 5.418230000000000324e+00 4.941729999999999734e+00 4.560109999999999886e+00 4.492340000000000444e+00
5.368859999999999744e+00 4.020950000000000024e+00 3.602809999999999846e+00 3.874909999999999854e+00 4.785899999999999821e+00 4.341300000000000381e+00 5.431799999999999962e+00 5.724029999999999951e+00 4.415219999999999700e+00 5.235129999999999839e+00 4.235500000000000043e+00 5.364510000000000112e+00 4.994989999999999597e+00 4.671649999999999636e+00 4.387880000000000003e+00
5.314989999999999881e+00 4.120149999999999757e+00 3.767279999999999962e+00 3.807900000000000063e+00 4.734950000000000436e+00 4.401830000000000354e+00 5.419349999999999667e+00 5.709170000000000300e+00 4.688740000000000130e+00 5.125840000000000174e+00 4.110859999999999737e+00 5.491579999999999906e+00 4.905199999999999783e+00 4.669200000000000017e+00 4.564689999999999692e+00
5.183250000000000135e+00 4.001949999999999896e+00 3.555969999999999853e+00 3.718059999999999921e+00 4.714269999999999960e+00 4.322239999999999860e+00 5.266600000000000392e+00 5.577880000000000393e+00 4.360360000000000014e+00 5.043650000000000411e+00 4.055340000000000167e+00 5.309730000000000061e+00 4.801420000000000243e+00 4.595170000000000421e+00 4.389630000000000365e+00
5.144929999999999559e+00 3.952560000000000073e+00 3.582180000000000142e+00 3.787139999999999951e+00 4.705919999999999881e+00 4.395010000000000083e+00 5.402090000000000281e+00 5.524589999999999890e+00 4.490160000000000373e+00 5.149709999999999788e+00 4.046960000000000335e+00 5.369369999999999976e+00 4.859020000000000117e+00 4.540180000000000327e+00 4.440229999999999677e+00
5.518369999999999997e+00 4.084039999999999893e+00 3.701119999999999965e+00 4.044830000000000148e+00 4.814770000000000216e+00 4.496640000000000192e+00 5.679240000000000066e+00 5.687929999999999708e+00 4.542609999999999815e+00 5.382200000000000095e+00 4.147890000000000299e+00 5.533089999999999620e+00 5.150249999999999773e+00 4.690290000000000070e+00 4.566060000000000230e+00
5.322720000000000340e+00 4.089050000000000296e+00 3.670929999999999804e+00 3.893079999999999874e+00 4.869519999999999627e+00 4.487320000000000420e+00 5.499500000000000277e+00 5.691510000000000069e+00 4.518229999999999968e+00 5.124150000000000205e+00 4.241889999999999716e+00 5.507570000000000299e+00 4.967450000000000365e+00 4.713840000000000252e+00 4.553180000000000227e+00
5.541419999999999568e+00 4.075440000000000396e+00 3.724390000000000089e+00 4.234680000000000000e+00 4.884089999999999598e+00 4.613229999999999720e+00 5.816230000000000011e+00 5.715910000000000046e+00 4.530190000000000161e+00 5.640579999999999927e+00 4.221070000000000100e+00 5.525210000000000399e+00 5.288299999999999557e+00 4.742329999999999934e+00 4.567829999999999835e+00
5.549479999999999968e+00 3.904879999999999907e+00 3.577920000000000211e+00 4.019929999999999559e+00 4.613920000000000243e+00 4.364869999999999806e+00 5.633180000000000298e+00 5.595100000000000406e+00 4.379609999999999559e+00 5.390950000000000131e+00 4.027519999999999989e+00 5.333420000000000272e+00 5.119839999999999947e+00 4.578520000000000145e+00 4.379380000000000273e+00
5.456579999999999764e+00 4.184470000000000134e+00 3.594479999999999897e+00 3.957790000000000141e+00 4.798300000000000232e+00 4.433060000000000223e+00 5.577849999999999753e+00 5.726499999999999702e+00 4.457609999999999850e+00 5.347310000000000230e+00 4.201050000000000395e+00 5.418190000000000062e+00 5.126590000000000202e+00 4.727280000000000371e+00 4.487090000000000245e+00
5.399569999999999759e+00 4.042110000000000092e+00 3.690500000000000114e+00 3.970000000000000195e+00 4.770699999999999719e+00 4.493769999999999598e+00 5.544209999999999638e+00 5.620250000000000412e+00 4.531729999999999592e+00 5.313060000000000116e+00 4.137780000000000236e+00 5.520900000000000141e+00 5.050769999999999982e+00 4.637319999999999887e+00 4.560120000000000395e+00
5.219400000000000261e+00 4.000720000000000276e+00 3.576220000000000176e+00 3.719689999999999941e+00 4.714439999999999742e+00 4.235540000000000305e+00 5.333949999999999747e+00 5.559800000000000075e+00 4.428020000000000067e+00 4.999159999999999826e+00 4.073349999999999582e+00 5.311600000000000321e+00 4.796369999999999578e+00 4.595270000000000188e+00 4.389380000000000059e+00
5.373420000000000307e+00 4.052059999999999995e+00 3.596459999999999990e+00 3.978720000000000034e+00 4.797139999999999738e+00 4.474610000000000198e+00 5.509599999999999831e+00 5.676940000000000097e+00 4.448559999999999626e+00 5.248319999999999652e+00 4.160870000000000068e+00 5.393430000000000391e+00 5.022599999999999731e+00 4.673309999999999853e+00 4.439409999999999634e+00
5.264890000000000292e+00 4.033159999999999634e+00 3.586009999999999920e+00 3.832030000000000047e+00 4.835799999999999876e+00 4.213809999999999611e+00 5.415580000000000283e+00 5.657160000000000188e+00 4.383160000000000167e+00 5.165490000000000137e+00 4.175029999999999575e+00 5.317239999999999966e+00 4.900389999999999802e+00 4.663319999999999688e+00 4.388169999999999682e+00
5.408159999999999634e+00 4.128040000000000376e+00 3.632800000000000029e+00 3.948749999999999982e+00 4.967929999999999957e+00 4.283190000000000275e+00 5.572129999999999583e+00 5.731830000000000425e+00 4.357890000000000263e+00 5.219289999999999985e+00 4.295910000000000117e+00 5.343510000000000204e+00 5.022800000000000153e+00 4.827390000000000292e+00 4.370300000000000296e+00
5.697059999999999569e+00 4.163280000000000314e+00 3.703390000000000182e+00 4.253339999999999677e+00 4.941259999999999764e+00 4.483609999999999651e+00 5.873820000000000263e+00 5.710300000000000153e+00 4.581070000000000420e+00 5.540280000000000094e+00 4.255609999999999893e+00 5.496679999999999566e+00 5.338370000000000282e+00 4.753659999999999997e+00 4.568030000000000257e+00
5.105590000000000295e+00 4.022429999999999950e+00 3.761589999999999989e+00 3.644480000000000164e+00 4.758569999999999744e+00 4.515159999999999840e+00 5.178849999999999731e+00 5.645889999999999631e+00 4.544769999999999754e+00 4.873029999999999973e+00 4.106830000000000425e+00 5.498280000000000278e+00 4.719929999999999737e+00 4.631879999999999775e+00 4.584800000000000431e+00
5.375379999999999825e+00 4.028240000000000265e+00 3.599499999999999922e+00 3.924420000000000019e+00 4.759809999999999874e+00 4.299400000000000333e+00 5.434569999999999901e+00 5.653279999999999639e+00 4.332320000000000171e+00 5.250790000000000290e+00 4.278870000000000395e+00 5.342019999999999769e+00 4.988800000000000345e+00 4.675500000000000433e+00 4.400420000000000442e+00
5.314510000000000289e+00 4.086100000000000065e+00 3.530299999999999994e+00 3.859080000000000066e+00 4.958829999999999849e+00 4.153599999999999959e+00 5.578199999999999825e+00 5.686239999999999739e+00 4.278870000000000395e+00 5.216829999999999856e+00 4.268440000000000012e+00 5.216809999999999725e+00 4.973889999999999922e+00 4.771119999999999806e+00 4.332779999999999632e+00
5.322219999999999729e+00 4.085910000000000153e+00 3.673690000000000122e+00 3.956290000000000084e+00 4.804759999999999920e+00 4.446710000000000385e+00 5.429359999999999964e+00 5.746109999999999829e+00 4.508189999999999920e+00 5.278489999999999682e+00 4.200669999999999682e+00 5.497950000000000337e+00 5.005790000000000184e+00 4.689379999999999882e+00 4.524709999999999788e+00
5.318800000000000416e+00 4.092679999999999652e+00 3.732619999999999827e+00 3.825480000000000214e+00 4.747609999999999886e+00 4.407020000000000159e+00 5.403010000000000090e+00 5.673460000000000392e+00 4.705400000000000027e+00 5.126319999999999766e+00 4.119970000000000354e+00 5.494650000000000034e+00 4.904740000000000322e+00 4.672640000000000349e+00 4.565500000000000114e+00
5.404609999999999914e+00 4.145690000000000097e+00 3.569240000000000190e+00 3.956420000000000048e+00 4.923090000000000188e+00 4.309009999999999785e+00 5.528109999999999857e+00 5.778719999999999857e+00 4.357300000000000395e+00 5.196979999999999933e+00 4.341820000000000235e+00 5.320210000000000328e+00 5.027980000000000338e+00 4.821930000000000049e+00 4.375429999999999708e+00
5.270839999999999748e+00 4.060570000000000235e+00 3.753569999999999851e+00 3.818560000000000176e+00 4.889890000000000292e+00 4.419970000000000176e+00 5.471000000000000085e+00 5.642190000000000261e+00 4.461940000000000239e+00 5.089129999999999932e+00 4.136870000000000047e+00 5.518609999999999793e+00 4.902009999999999756e+00 4.699679999999999858e+00 4.530210000000000292e+00
5.090709999999999624e+00 4.268279999999999852e+00 3.571190000000000087e+00 3.658819999999999961e+00 4.910820000000000185e+00 4.385690000000000310e+00 5.217979999999999841e+00 5.799039999999999750e+00 4.422979999999999912e+00 4.983080000000000176e+00 4.344570000000000043e+00 5.416489999999999583e+00 4.706240000000000201e+00 4.792989999999999640e+00 4.464380000000000237e+00