-1.212782223648569913e+00 3.663886418783310894e-01 1.114783566573459422e-01 3.663886418783310894e-01 3.933105419332941777e-01 9.745829589133474524e-01 1.114783566573459422e-01 9.745829589133474524e-01 1.036757860396974179e-01
1.238821560804600930e+00 -4.816728814207359988e-01 1.197316138571966393e+00 -4.816728814207359988e-01 -1.601808784025778198e+00 -5.386475520149787422e-02 1.197316138571966393e+00 -5.386475520149787422e-02 -3.201614800684374540e+00
4.728002151265244257e-01 -5.336971308699832717e-01 9.808591730188756519e-02 -5.336971308699832717e-01 1.069961882030052047e+00 -2.228282287521035632e-01 9.808591730188756519e-02 -2.228282287521035632e-01 3.853031695053595329e-01
9.588445877557049135e-01 6.699213261737430036e-01 4.399078522014852610e-01 6.699213261737430036e-01 -1.077505681845122076e+00 -1.594234519902712366e+00 4.399078522014852610e-01 -1.594234519902712366e+00 2.382551291200551702e-01
-7.539316623908245418e-01 1.926481884889227891e-01 4.165911798278398859e-02 1.926481884889227891e-01 -1.474491829376398888e+00 -3.756954530499497791e-01 4.165911798278398859e-02 -3.756954530499497791e-01 5.459230914456133510e-01
-3.172598007570736289e+00 6.362492837912890609e-02 -1.056744998601382018e-01 6.362492837912890609e-02 -1.542874666846776543e+00 -8.156190144037173129e-01 -1.056744998601382018e-01 -8.156190144037173129e-01 -1.076251739312771960e+00
-5.265425068984609658e-02 4.365366748795804219e-01 7.925287425509023320e-01 4.365366748795804219e-01 -7.561327327615707805e-01 -3.677127530062638816e-01 7.925287425509023320e-01 -3.677127530062638816e-01 -5.955309762199948453e-01
-1.472907619366314425e+00 -1.213130840137885302e+00 -7.101481797730128248e-03 -1.213130840137885302e+00 -2.144765298725279656e+00 -5.076791410465136822e-02 -7.101481797730128248e-03 -5.076791410465136822e-02 -1.044608949243250429e+00
1.509129688540870262e+00 1.397260305209140074e-01 3.323687174325777316e-01 1.397260305209140074e-01 -1.192281384621091123e+00 2.155253329991476396e-01 3.323687174325777316e-01 2.155253329991476396e-01 -6.192855956561250652e-01
1.192867477902571416e+00 -1.841707906998199529e-01 -9.894359387408599993e-01 -1.841707906998199529e-01 1.062816055651526259e+00 7.375487455514027069e-01 -9.894359387408599993e-01 7.375487455514027069e-01 3.125227972028202933e-02
-1.700420117809871901e+00 -5.280668157426301468e-01 1.110801281242885574e+00 -5.280668157426301468e-01 -2.574014376961338169e+00 -6.871203046533839176e-01 1.110801281242885574e+00 -6.871203046533839176e-01 -1.831914730892072019e+00
-1.978215127252205718e+00 -9.145998490479251286e-01 -3.965655610196143488e-02 -9.145998490479251286e-01 -1.197482866796167000e+00 6.655852279890688283e-01 -3.965655610196143488e-02 6.655852279890688283e-01 -6.470449800209117086e-01
-1.569577888612288197e+00 2.049222811399403071e-02 -1.699859362992776346e-01 2.049222811399403071e-02 -5.696356628122956067e-01 9.025091231904450728e-01 -1.699859362992776346e-01 9.025091231904450728e-01 -7.817951160186591419e-01
-4.021677841654363039e-01 -8.264623097034574650e-01 -5.124934021577638443e-01 -8.264623097034574650e-01 -4.745663003594929874e-01 2.399257375664460290e-01 -5.124934021577638443e-01 2.399257375664460290e-01 -7.285307063215501477e-01
-1.779192504229770710e-01 3.822032898279719149e-01 -3.721993817024504270e-01 3.822032898279719149e-01 6.108254618615423237e-02 2.286098366367656232e-01 -3.721993817024504270e-01 2.286098366367656232e-01 4.401134384005015443e-01
-1.849517946716032979e+00 2.236615342449257693e-01 -2.295134918099550059e-01 2.236615342449257693e-01 -1.610462026889813547e+00 -2.737498801060395115e-02 -2.295134918099550059e-01 -2.737498801060395115e-02 -1.135519591522829108e+00
3.829191209125198253e-02 -4.181694218108961691e-01 -1.695992511589175245e-01 -4.181694218108961691e-01 -1.013608434496946265e+00 2.191056215138718899e-01 -1.695992511589175245e-01 2.191056215138718899e-01 -6.690406943777457149e-01
1.111452473489080051e+00 -8.541392620174965700e-01 1.269108884400392823e-01 -8.541392620174965700e-01 1.013231563145072442e-02 -2.671504460320934249e-01 1.269108884400392823e-01 -2.671504460320934249e-01 9.944081601913873358e-01
2.871361984356191055e-01 3.465929462506132097e-01 -9.515453145327756879e-02 3.465929462506132097e-01 3.098029750259735371e-01 2.908245135752421037e-02 -9.515453145327756879e-02 2.908245135752421037e-02 -5.125376338098071027e-01
2.513578660347251414e+00 -1.029871619753425227e+00 2.251685542746276747e-01 -1.029871619753425227e+00 -8.333663298353929383e-01 2.208278770862923679e-01 2.251685542746276747e-01 2.208278770862923679e-01 -4.901198981779823494e-01
-6.660251705170778802e-01 1.450215113331129735e-01 -1.398597804155576607e-01 1.450215113331129735e-01 -9.228632540382081251e-01 -5.916388716297468209e-01 -1.398597804155576607e-01 -5.916388716297468209e-01 1.269273062248735262e-01
-1.387828794868664062e+00 9.015726775745337429e-01 4.903769025375493418e-01 9.015726775745337429e-01 -3.117527129260477814e-01 3.161467252532442762e-01 4.903769025375493418e-01 3.161467252532442762e-01 -9.291876351747980767e-01
2.391439118172510592e-01 -9.258094273221356696e-01 -1.357831768049578836e-01 -9.258094273221356696e-01 -5.170009195973266358e-01 -3.669918039558592859e-01 -1.357831768049578836e-01 -3.669918039558592859e-01 -1.620941992631088346e-01
-3.001669330507556466e-01 7.754405464154497940e-01 -2.045927252013198805e-01 7.754405464154497940e-01 -2.772490552721102453e-01 4.974404377426409618e-01 -2.045927252013198805e-01 4.974404377426409618e-01 -3.472043148800413093e+00
-1.623371699399559775e-01 -4.749598151148736597e-03 1.234197050777432053e-01 -4.749598151148736597e-03 4.698165136219643878e-02 1.482217257652385378e-01 1.234197050777432053e-01 1.482217257652385378e-01 8.241314145717085204e-02
2.859864637364158968e-01 3.893447115006671289e-01 -2.904628766143790841e-01 3.893447115006671289e-01 -1.919581206285292385e-01 9.747221153995844212e-01 -2.904628766143790841e-01 9.747221153995844212e-01 -1.184888481719330366e+00
-4.576515977495106413e-01 5.514671298211413532e-03 5.916303251498358229e-01 5.514671298211413532e-03 -1.122572913990465826e-01 -3.059451803495855660e-01 5.916303251498358229e-01 -3.059451803495855660e-01 -8.090431966476122616e-01
-7.272672401113622342e-01 -1.235005195275757639e-01 1.640724859570529548e-01 -1.235005195275757639e-01 5.526913892331027922e-01 -4.707425276601231445e-01 1.640724859570529548e-01 -4.707425276601231445e-01 -2.958171511596760506e-03
-3.742218061096255766e-01 2.256734968585113743e-01 -9.572010343052530512e-01 2.256734968585113743e-01 4.861187726070752002e-01 1.026363735501206742e+00 -9.572010343052530512e-01 1.026363735501206742e+00 -1.861831246157764408e+00
1.103948905606628950e+00 -3.475789884162722165e-01 -2.182300758851656031e-01 -3.475789884162722165e-01 -1.321028590012312876e+00 -1.600847895832124834e-01 -2.182300758851656031e-01 -1.600847895832124834e-01 -7.950881085318539654e-01
-4.970401932048821303e-01 -1.187120552703111037e-01 -6.666288435910408539e-02 -1.187120552703111037e-01 1.739439196441927571e-01 -2.976478859128001697e-01 -6.666288435910408539e-02 -2.976478859128001697e-01 1.412135999413971943e+00
5.288427279038595552e-01 1.958300848733069144e-01 3.469862532936968114e-01 1.958300848733069144e-01 4.830210979538445137e-01 2.072760729315580031e-01 3.469862532936968114e-01 2.072760729315580031e-01 2.785986850717111496e-01
-1.187894606449154455e+00 -1.171447562034480250e-01 1.449047013904672110e-01 -1.171447562034480250e-01 -3.673159428593064102e-01 2.032121888132203680e-01 1.449047013904672110e-01 2.032121888132203680e-01 -2.079056677869827396e+00
1.014303204170145412e+00 -1.065681290314173024e+00 -4.058043222195215072e-01 -1.065681290314173024e+00 6.978052818539987046e-01 2.588225461295033392e-01 -4.058043222195215072e-01 2.588225461295033392e-01 2.828800015022087666e-01
-6.281307530527301397e-01 4.194030325504081724e-01 7.460108277670378651e-01 4.194030325504081724e-01 -2.757130392488978954e-01 1.456252819898248840e-01 7.460108277670378651e-01 1.456252819898248840e-01 -6.161627301710909110e-01
9.819463363745590812e-01 -4.025357058895652762e-01 7.304162988449071081e-01 -4.025357058895652762e-01 -1.628005241493793775e+00 6.920505928399864892e-01 7.304162988449071081e-01 6.920505928399864892e-01 -2.066131710343658057e+00
-1.300197597032115349e+00 1.383666820005038066e-02 -1.928684217614448082e-01 1.383666820005038066e-02 -1.205302583609831613e-01 1.465197671635988519e-01 -1.928684217614448082e-01 1.465197671635988519e-01 6.644966952584172581e-01
7.129032656168235449e-02 -3.599759572475108582e-02 2.422016827346020751e-01 -3.599759572475108582e-02 -2.562012160351479828e+00 -9.035570294070474073e-01 2.422016827346020751e-01 -9.035570294070474073e-01 -1.244681186485976587e+00
-7.443749019172150871e-02 5.312087673095611251e-01 -2.507094685926732347e-01 5.312087673095611251e-01 6.455577199908911767e-01 2.178528853604655702e-01 -2.507094685926732347e-01 2.178528853604655702e-01 -9.530026658681710616e-01
-1.748017597164750248e+00 3.068710008590381788e-01 1.310541844358746433e+00 3.068710008590381788e-01 2.673236176410324072e-01 -9.665587524697152322e-01 1.310541844358746433e+00 -9.665587524697152322e-01 -1.758353412337894994e+00
-3.552355351713750720e-01 3.893515738674608873e-01 -2.364283337024178366e-01 3.893515738674608873e-01 -1.072915710708027603e+00 -1.741505998420134205e-01 -2.364283337024178366e-01 -1.741505998420134205e-01 -6.032667896481561653e-01
-4.827420647088490613e-01 2.748779823258875599e-01 -9.411315126205331560e-02 2.748779823258875599e-01 -4.569338670650692769e-01 -5.653370770882393259e-02 -9.411315126205331560e-02 -5.653370770882393259e-02 -5.808991291918230715e-01
-6.234318564591325718e-01 -6.357458818505267173e-01 -2.179573090549840331e-01 -6.357458818505267173e-01 5.455092684193563191e-01 1.099849566452751892e+00 -2.179573090549840331e-01 1.099849566452751892e+00 -1.406153753179212318e-01
-4.786057158001295053e-01 -3.181802365942096866e-01 1.138001775155380146e+00 -3.181802365942096866e-01 -9.256518453552584624e-01 -3.282956125721969154e-01 1.138001775155380146e+00 -3.282956125721969154e-01 -1.427433511130716592e+00
2.253186189628763270e+00 -4.491250087515039069e-01 1.008062017009347500e+00 -4.491250087515039069e-01 2.052895204045172561e-01 -6.115107326097533047e-01 1.008062017009347500e+00 -6.115107326097533047e-01 4.034116411413082859e-02
7.310196036935202868e-02 7.532908816177991129e-01 -1.756041788215202681e-01 7.532908816177991129e-01 4.781645668352148548e-01 -5.789108881152830177e-01 -1.756041788215202681e-01 -5.789108881152830177e-01 -8.242844182716141388e-01
1.491895518053500069e+00 -2.392932178480466354e-01 -3.214252627644604288e-01 -2.392932178480466354e-01 1.720534310555266733e-01 2.271472569440271816e-01 -3.214252627644604288e-01 2.271472569440271816e-01 2.114872834609912988e-01
-2.058699093566436655e+00 7.430319003306237735e-02 1.381700924975164391e-01 7.430319003306237735e-02 -2.257465078987536400e-01 -2.543329701134492971e-01 1.381700924975164391e-01 -2.543329701134492971e-01 -1.119213710753739655e+00
-2.590653740048929898e-01 -1.502687119529946547e-01 3.266730395309367929e-01 -1.502687119529946547e-01 9.165212297507434602e-01 -1.757233390005356333e-01 3.266730395309367929e-01 -1.757233390005356333e-01 9.203237216825392863e-01
-1.065070032958513740e-01 1.056011905719051319e-01 3.861839625429742684e-01 1.056011905719051319e-01 -2.671890333265908857e-01 -4.349864619925231102e-02 3.861839625429742684e-01 -4.349864619925231102e-02 5.040795267419507786e-01
5.855950680128517716e-01 4.518899757842243514e-01 3.121473203462381552e-01 4.518899757842243514e-01 -4.218478496222663465e-01 -2.569995928535909191e-01 3.121473203462381552e-01 -2.569995928535909191e-01 -1.312584754569822154e+00
-9.615371560531635886e-01 5.050814035393344503e-02 -1.048320777027391681e-01 5.050814035393344503e-02 4.497781536193385943e-01 -1.870111782547024537e-01 -1.048320777027391681e-01 -1.870111782547024537e-01 -1.764478307396746271e+00
-1.706810011553419271e+00 -6.063061846135759936e-01 -3.365349725221704058e-01 -6.063061846135759936e-01 -1.086886838658960075e+00 7.238137975448730721e-01 -3.365349725221704058e-01 7.238137975448730721e-01 -1.934796136968565949e-01
-6.038397677390213714e-01 7.434996024045238405e-01 4.819461964171206647e-01 7.434996024045238405e-01 1.454193614860741779e-01 -4.210994418485210500e-01 4.819461964171206647e-01 -4.210994418485210500e-01 -2.061828653408595002e+00
-1.407121662312232235e+00 -9.305113334317144380e-02 -7.689000497357628694e-01 -9.305113334317144380e-02 3.121571486811780191e-02 -1.925320744034194897e-01 -7.689000497357628694e-01 -1.925320744034194897e-01 1.364112250558993988e+00
-1.345236772431042782e+00 -6.993720073899012402e-01 -3.362277146557520191e-01 -6.993720073899012402e-01 -3.051928765620154360e-01 7.448539844495856155e-01 -3.362277146557520191e-01 7.448539844495856155e-01 -3.295106445955494623e-01
-7.461303736832229916e-01 5.174358273481018955e-01 -1.493531404759703696e-01 5.174358273481018955e-01 -4.930578414449774960e-01 5.934534784883920278e-01 -1.493531404759703696e-01 5.934534784883920278e-01 -4.122378844702396794e-01
-1.129154719881405811e+00 -1.356827271970013904e-01 -2.084450436341956335e-03 -1.356827271970013904e-01 -1.286617212421608203e+00 -5.803758980678364043e-01 -2.084450436341956335e-03 -5.803758980678364043e-01 -5.656661282546682212e-01
-4.923707686522222904e-01 -1.213407705531557967e+00 -7.632043751492155748e-01 -1.213407705531557967e+00 -2.246413819124473576e+00 9.332750644284680541e-02 -7.632043751492155748e-01 9.332750644284680541e-02 6.417548076343241314e-01
-2.985702714067848818e-01 -5.883335073847715396e-02 1.649446695136358720e-01 -5.883335073847715396e-02 1.962333083291905589e-01 3.983970048402028508e-01 1.649446695136358720e-01 3.983970048402028508e-01 -1.152664656028895285e-01
-1.501041126387818725e-01 -4.081476895951325345e-01 -3.340601772998215147e-01 -4.081476895951325345e-01 -8.208049177714173486e-03 -2.260346914029622845e-01 -3.340601772998215147e-01 -2.260346914029622845e-01 4.881638996841680123e-01
-1.838416312225133575e+00 -3.566039520162585519e-01 -1.635001442833020346e-01 -3.566039520162585519e-01 -1.595168182455971140e+00 1.865637506452580141e-01 -1.635001442833020346e-01 1.865637506452580141e-01 -1.653801407505459231e+00
-1.741577580242589518e-01 2.304338372119372341e-02 1.428034543075986429e+00 2.304338372119372341e-02 -9.262116626768809313e-01 -5.143799940741405896e-01 1.428034543075986429e+00 -5.143799940741405896e-01 -2.730087887240389422e-01
-2.286736844177395256e-01 -7.122785932087667693e-02 -5.803695122298728748e-01 -7.122785932087667693e-02 -1.109434504447518677e+00 4.282863043538995274e-01 -5.803695122298728748e-01 4.282863043538995274e-01 -9.197664201034116971e-01
-9.140713220892886515e-01 -4.072492374104221824e-01 6.413535385559044899e-01 -4.072492374104221824e-01 -2.582262811314242512e+00 -3.390808001890620593e-01 6.413535385559044899e-01 -3.390808001890620593e-01 -6.519986144600022904e-01
-2.090052897439939716e+00 -4.796301575995790545e-01 2.204246430248779642e-02 -4.796301575995790545e-01 2.929243172739733753e-02 -4.056168344974337980e-01 2.204246430248779642e-02 -4.056168344974337980e-01 -1.026710757627754766e+00
-8.564006928042275923e-01 7.292473589539725243e-01 -1.962003406429546626e-01 7.292473589539725243e-01 -5.989255674695034282e-01 2.568148435027066134e-01 -1.962003406429546626e-01 2.568148435027066134e-01 -1.203077035237585246e+00
-3.815098008374000482e-01 -3.206427003169298046e-02 -5.672016318566606985e-02 -3.206427003169298046e-02 2.347043192105270903e-01 -8.587726910781555423e-02 -5.672016318566606985e-02 -8.587726910781555423e-02 6.378712104470208866e-01
1.505588348249503827e+00 -2.874876391784112473e-01 2.701422065357597657e-01 -2.874876391784112473e-01 -1.392543150187507406e-01 -3.598820758428611932e-01 2.701422065357597657e-01 -3.598820758428611932e-01 -6.488856784704282177e-01
-5.933755675810529207e-01 -6.587690856153730623e-01 -8.694585890323631716e-01 -6.587690856153730623e-01 -3.666657961027279811e-01 -1.276322666861035016e-01 -8.694585890323631716e-01 -1.276322666861035016e-01 1.213662253527489243e+00
-5.705380105585728945e-01 1.715542732821993543e-01 -5.232318926864561355e-03 1.715542732821993543e-01 -2.567782822156451927e-01 5.136462297472523808e-01 -5.232318926864561355e-03 5.136462297472523808e-01 -3.105426019476839050e-01
1.624794306158724166e-01 1.768921580589698228e-01 4.115020995716953123e-01 1.768921580589698228e-01 -4.096795502363534958e-01 -7.188454885273964923e-01 4.115020995716953123e-01 -7.188454885273964923e-01 1.232322008920347045e+00
6.682258976314096044e-01 -5.511792292867173648e-01 8.559336692779712097e-01 -5.511792292867173648e-01 2.105417718035762498e-01 -5.274688724329977818e-01 8.559336692779712097e-01 -5.274688724329977818e-01 1.073244495483038241e+00
1.585617586202802964e-01 -1.407940395278703058e-02 3.713316819354228054e-02 -1.407940395278703058e-02 6.506355470637836813e-01 -4.627667248826591306e-01 3.713316819354228054e-02 -4.627667248826591306e-01 9.687826464896864831e-01
-2.326285067373481841e+00 -3.229106128127055553e-01 -3.849688774550788506e-01 -3.229106128127055553e-01 -7.853754440139875115e-01 -6.769921865333138333e-01 -3.849688774550788506e-01 -6.769921865333138333e-01 1.509578614310025824e+00
9.809500272555302658e-01 -3.617258122394622077e-01 -3.461198514363992285e-01 -3.617258122394622077e-01 -2.274785735982018053e+00 6.894696109048989441e-02 -3.461198514363992285e-01 6.894696109048989441e-02 -1.237978328606131218e+00
-9.552249015493058382e-02 -5.282534292079946736e-01 -3.892877512164019671e-01 -5.282534292079946736e-01 -1.235739133469385465e+00 -9.008318304751876671e-01 -3.892877512164019671e-01 -9.008318304751876671e-01 -5.500657173155147905e-01
3.638106011647668225e-01 -6.884056548899782912e-01 5.747417428182306498e-01 -6.884056548899782912e-01 3.062251595063521584e-02 -9.985181315506227451e-01 5.747417428182306498e-01 -9.985181315506227451e-01 3.630929912482384891e-02
-1.110275201982219961e+00 -6.076225542199742424e-01 -2.443641219123893205e-01 -6.076225542199742424e-01 -1.129029297315616631e+00 1.367118270265986979e+00 -2.443641219123893205e-01 1.367118270265986979e+00 -8.310270295764882187e-01
1.216607461481163721e+00 -7.232588572273603855e-01 6.786938852604540440e-01 -7.232588572273603855e-01 1.543159905976503599e-01 3.585198379083823737e-03 6.786938852604540440e-01 3.585198379083823737e-03 -8.561734206812554593e-01
4.844456163442346641e-01 4.137160301472428969e-01 1.281135767116636237e-01 4.137160301472428969e-01 8.030121743296479986e-01 5.033068590531400988e-01 1.281135767116636237e-01 5.033068590531400988e-01 -7.681459797072461848e-01
-8.726506596900688306e-01 3.040446985043985806e-01 5.419099346319100619e-01 3.040446985043985806e-01 -5.722337168933230300e-01 -5.018901261782090506e-01 5.419099346319100619e-01 -5.018901261782090506e-01 -1.977399101638721124e+00
-1.369553641051912241e+00 -5.141032923452830694e-01 -3.176521987071463937e-01 -5.141032923452830694e-01 -2.198797905507051897e+00 1.310802752117470049e-01 -3.176521987071463937e-01 1.310802752117470049e-01 -1.105923473856550210e+00
2.869745160891057356e-02 -2.248385145596212831e-01 5.441736865102407839e-01 -2.248385145596212831e-01 -2.089425538014681172e-01 -5.417469524602579467e-01 5.441736865102407839e-01 -5.417469524602579467e-01 2.102716485731794538e-01
-2.231672108092492279e-01 5.441289112980309817e-01 5.053169703413771252e-01 5.441289112980309817e-01 -7.704727461329570204e-01 2.247586721519213848e-01 5.053169703413771252e-01 2.247586721519213848e-01 4.184003658864591801e-01
1.208292697058992671e+00 -2.623186717743112850e-01 3.523154069984142933e-01 -2.623186717743112850e-01 7.679424353353215826e-01 -5.173034747253929533e-01 3.523154069984142933e-01 -5.173034747253929533e-01 -8.504727304826133205e-03
6.064960949437467885e-01 -2.319099244332351872e-01 4.133769836913970819e-01 -2.319099244332351872e-01 9.690827715207351867e-01 3.050344870638065364e-01 4.133769836913970819e-01 3.050344870638065364e-01 1.134154224413062573e-01
-9.356701213747224966e-01 -1.182283173170854740e+00 -5.574063526026540316e-01 -1.182283173170854740e+00 -9.912347405542738521e-01 8.515583072258039454e-01 -5.574063526026540316e-01 8.515583072258039454e-01 -3.693658273107391921e-01
-5.346758561167841428e-02 5.329561428155381586e-01 4.332500388108257994e-01 5.329561428155381586e-01 5.166906964919740775e-01 -3.841035659715645867e-01 4.332500388108257994e-01 -3.841035659715645867e-01 -1.967200342039729710e+00
-1.968398476891901894e-01 -3.689060438374142797e-02 -3.948085197800170476e-02 -3.689060438374142797e-02 -3.331004572296652477e-01 -3.573408937194977320e-01 -3.948085197800170476e-02 -3.573408937194977320e-01 8.796798448238606072e-02
-2.502175774865829538e+00 -2.645961309520895588e-01 3.190806667152587973e-03 -2.645961309520895588e-01 -2.679380068036608886e+00 -2.100332805224997268e-01 3.190806667152587973e-03 -2.100332805224997268e-01 -1.368693465651335428e+00
1.320435793797723467e-01 -9.444592705893080087e-01 3.413298818511453225e-01 -9.444592705893080087e-01 -6.861063262051434464e-01 3.978630605375049201e-01 3.413298818511453225e-01 3.978630605375049201e-01 -1.362560768932892685e+00
-5.436690945768294370e-01 2.794791380794621818e-02 1.541724273756364949e-01 2.794791380794621818e-02 -1.176571857540563038e+00 1.375157930453482780e-01 1.541724273756364949e-01 1.375157930453482780e-01 -8.987067814622158313e-01
-9.840344849413427131e-01 2.073504994070102525e-01 6.814667647267202977e-01 2.073504994070102525e-01 -8.393311681509852962e-01 3.609857897681237882e-01 6.814667647267202977e-01 3.609857897681237882e-01 -3.841068148689119610e-01
5.784563787348105945e-01 -1.262730225269683149e-01 -6.235165257053767313e-02 -1.262730225269683149e-01 -8.126952013011028431e-01 -2.132538028041507938e-01 -6.235165257053767313e-02 -2.132538028041507938e-01 -5.157907550748369596e-02
-8.968473346859129336e-01 -3.001885061262116738e-01 7.756021722289889730e-01 -3.001885061262116738e-01 -7.340322364778891773e-01 3.156467397595638102e-01 7.756021722289889730e-01 3.156467397595638102e-01 -1.229666548183493857e+00
-4.725969009541425514e+00 -1.005359248133123884e-01 -3.185250699177123029e-02 -1.005359248133123884e-01 -7.871165146511122090e-01 9.427153283171497700e-01 -3.185250699177123029e-02 9.427153283171497700e-01 -1.019867454023587472e+00
4.670138941010057110e+00 6.346476786121146678e-03 8.548723998397184110e-02 6.346476786121146678e-03 2.904963912821287297e-02 -4.001950671458594511e-01 8.548723998397184110e-02 -4.001950671458594511e-01 -1.226517820321283425e-01
4.375855942941092591e-01 2.883251571796704993e-01 2.711265725370942681e-01 2.883251571796704993e-01 3.179655497162279798e-01 -1.225246559131488305e-01 2.711265725370942681e-01 -1.225246559131488305e-01 6.787483070704499744e-01
-1.173251153506179589e+00 -4.649913708649673350e-01 9.669281115907417401e-02 -4.649913708649673350e-01 -1.057260888460720694e-01 5.721605952186413768e-01 9.669281115907417401e-02 5.721605952186413768e-01 1.030629934329454267e+00
2.774351126922356206e-02 3.852946211477644711e-01 -3.701214939897692902e-02 3.852946211477644711e-01 -1.545978555381754882e+00 -1.022484270790018634e-01 -3.701214939897692902e-02 -1.022484270790018634e-01 -1.218248687701954047e+00
-5.048303838676901911e-01 -3.929434212581473518e-01 -1.133840612314123808e+00 -3.929434212581473518e-01 -8.699162032808575029e-01 8.774343226107904625e-01 -1.133840612314123808e+00 8.774343226107904625e-01 -1.531742795384126721e-01
1.055776881479169704e+00 -1.584462691894131248e-01 -3.760765844057082363e-01 -1.584462691894131248e-01 -1.275936096718079504e+00 -1.169025166852078884e-01 -3.760765844057082363e-01 -1.169025166852078884e-01 -1.238498352307463968e+00
-9.949130860248540653e-01 -2.410161126262634346e-01 -2.231235201064757923e-01 -2.410161126262634346e-01 -9.288722392827537533e-01 -3.819162295812335572e-01 -2.231235201064757923e-01 -3.819162295812335572e-01 8.710880355563110911e-01
1.249876212336792136e+00 1.428085104427632979e-01 5.138113717351370235e-01 1.428085104427632979e-01 -2.480877801361497659e-01 -7.565645519301982258e-01 5.138113717351370235e-01 -7.565645519301982258e-01 -8.180124304372470290e-01
-9.428569585679674736e-01 -1.237160701263369189e+00 -1.982141322643106995e-01 -1.237160701263369189e+00 -1.804144472001222743e+00 -2.916622373621120534e-01 -1.982141322643106995e-01 -2.916622373621120534e-01 -9.836656368627665348e-01
-2.301276071965316361e-01 -6.910879450045901429e-01 2.003643324032818307e-01 -6.910879450045901429e-01 1.119880598959449136e+00 1.213069068463948352e-02 2.003643324032818307e-01 1.213069068463948352e-02 2.910252086367776769e+00
-6.627436690306808265e-01 2.126517215336224190e-02 7.881981808641351506e-02 2.126517215336224190e-02 6.225435382143794660e-01 4.322939434282705995e-01 7.881981808641351506e-02 4.322939434282705995e-01 -8.457341521033086285e-02
2.590001394732222018e+00 -4.561677258618205832e-01 3.851709887039744262e-01 -4.561677258618205832e-01 5.513217875141136481e-01 1.830829524272443998e-01 3.851709887039744262e-01 1.830829524272443998e-01 -2.788833518114977039e-01
9.788631953856975765e-02 8.971860302620369154e-01 2.455631578718387997e-01 8.971860302620369154e-01 -2.102120596355590565e-01 -6.274217596486216797e-01 2.455631578718387997e-01 -6.274217596486216797e-01 -9.451942424390147313e-01
-9.262835784767258218e-01 1.234160985729581411e-02 9.187689554450666485e-01 1.234160985729581411e-02 -3.723634728851597520e-01 -5.862144490724319201e-01 9.187689554450666485e-01 -5.862144490724319201e-01 -3.491988557673976201e-01
-1.110010928408659447e+00 -2.379756570982336228e-01 -1.506215431989611168e-03 -2.379756570982336228e-01 -1.877509702651897872e+00 -7.592718073713702331e-01 -1.506215431989611168e-03 -7.592718073713702331e-01 -4.187405084390177223e-01
-8.644489942285837891e-03 2.080919577967054943e-02 1.854165577666359865e-01 2.080919577967054943e-02 -1.015344058000707150e+00 -4.078202376915100735e-02 1.854165577666359865e-01 -4.078202376915100735e-02 -1.581860599375205734e+00
-5.031187361686484394e-01 1.598166267905052479e-02 1.171517764936393924e+00 1.598166267905052479e-02 -3.982889735783404217e-01 -6.526855127989369398e-01 1.171517764936393924e+00 -6.526855127989369398e-01 -1.292143860433964397e-01
-3.425301329277286033e-01 -1.806731852314011899e-01 -7.818054983651298931e-03 -1.806731852314011899e-01 9.504999889067394792e-01 6.738685907722622437e-01 -7.818054983651298931e-03 6.738685907722622437e-01 3.271068840695178642e-02
1.377047259525518985e+00 -1.368627126977213226e+00 7.041669530952888723e-01 -1.368627126977213226e+00 -3.500402356351086097e-01 -8.794693276214348154e-01 7.041669530952888723e-01 -8.794693276214348154e-01 3.774227628938622292e-01
1.400262231679913150e+00 -6.732996269856716953e-01 2.926140958905685263e-01 -6.732996269856716953e-01 -7.262417728514455328e-01 6.447105426323423982e-01 2.926140958905685263e-01 6.447105426323423982e-01 2.899495924716619655e-01
-7.052959464277300805e-01 -3.040276483851702682e-01 1.446113796447282551e-01 -3.040276483851702682e-01 -9.131541021118785295e-01 3.706466832958291158e-01 1.446113796447282551e-01 3.706466832958291158e-01 4.290400971645712547e-01
2.057336579913447358e-02 2.723651176065954305e-01 -2.747876760644121230e-01 2.723651176065954305e-01 1.977008117269782039e-01 -6.728889259117050159e-01 -2.747876760644121230e-01 -6.728889259117050159e-01 1.429300801570333457e+00
1.271516887349577463e+00 2.350208972479923852e-04 -6.919135495288291082e-01 2.350208972479923852e-04 1.857364004193907459e+00 2.951380745799658811e-01 -6.919135495288291082e-01 2.951380745799658811e-01 1.785899784699868764e+00
1.578089816790978706e+00 -1.848696842165865328e-01 4.754090120410544018e-01 -1.848696842165865328e-01 -1.907668734710218084e-01 -5.242979929579868470e-01 4.754090120410544018e-01 -5.242979929579868470e-01 -3.195945228815376682e-01
5.068604827349837416e-02 7.258312644107405009e-02 -3.747628457075180552e-01 7.258312644107405009e-02 -1.938207738248461653e-01 2.699606192122485648e-01 -3.747628457075180552e-01 2.699606192122485648e-01 -1.083083138977656013e-01
1.153071056237714442e+00 -6.498779247245750623e-01 3.363393899869422943e-01 -6.498779247245750623e-01 -3.845484835730086370e-01 -2.530768098401628419e-01 3.363393899869422943e-01 -2.530768098401628419e-01 2.141782522836394032e-01
-1.023003301091274686e+00 8.378297538766517061e-01 -7.873215422058846280e-02 8.378297538766517061e-01 -5.220552174663397604e-01 -1.245341680405826768e-01 -7.873215422058846280e-02 -1.245341680405826768e-01 -1.985265036174046482e+00
-8.386660802743484133e-01 -4.756751915555690324e-01 -3.405875561928891071e-01 -4.756751915555690324e-01 -9.773754792001101421e-01 4.510031695244501870e-01 -3.405875561928891071e-01 4.510031695244501870e-01 -1.565812205575625449e-01
3.277120617357645038e+00 -3.235838564810802898e-01 -4.438231029211132245e-02 -3.235838564810802898e-01 -1.474127960952323679e+00 4.060572052926187392e-01 -4.438231029211132245e-02 4.060572052926187392e-01 -1.723908345849147095e+00
7.289050794501015229e-01 -4.597922646766452320e-02 1.511263136347004536e-03 -4.597922646766452320e-02 4.509786492482161235e-01 1.852884575063718300e-02 1.511263136347004536e-03 1.852884575063718300e-02 -2.134411239300401331e+00
-8.488220163266102514e-01 1.909033262771558659e-01 1.768600177190405298e-01 1.909033262771558659e-01 -1.479413359647818949e+00 4.507887346366356435e-02 1.768600177190405298e-01 4.507887346366356435e-02 2.617776533216041868e-01
9.005458445459968431e-01 5.444281660059742123e-01 -2.362782660939543866e-01 5.444281660059742123e-01 1.196650806909546949e+00 -1.165828754501220033e+00 -2.362782660939543866e-01 -1.165828754501220033e+00 -1.010554629889936912e-01
-1.532167280276564680e+00 4.053980245081728051e-01 -1.049895221832602837e-01 4.053980245081728051e-01 3.474858458105096332e-02 3.422796814125229625e-01 -1.049895221832602837e-01 3.422796814125229625e-01 -1.400208224978305216e+00