   5   5   0   0
  0.2058539E+03  0.1029744E-08  0.9737961E-09  0.1026843E-08  0.2000000E-14
   50.000000000000000     
  CAR 
 unknown system                          
      2.71325989    -18.83125607  301     -9.05751465      1.00000000
    -18.831  0.0000E+00  0.0000E+00
    -18.759  0.0000E+00  0.0000E+00
    -18.688  0.0000E+00  0.0000E+00
    -18.616  0.0000E+00  0.0000E+00
    -18.544  0.0000E+00  0.0000E+00
    -18.472 -0.3747E-27 -0.2691E-28
    -18.400 -0.1137E-24 -0.8193E-26
    -18.329 -0.2667E-22 -0.1923E-23
    -18.257 -0.4820E-20 -0.3481E-21
    -18.185 -0.6713E-18 -0.4856E-19
    -18.113 -0.7199E-16 -0.5219E-17
    -18.041 -0.5944E-14 -0.4321E-15
    -17.969 -0.3651E-12 -0.2665E-13
    -17.898 -0.1779E-10 -0.1304E-11
    -17.826 -0.6636E-09 -0.4896E-10
    -17.754 -0.1897E-07 -0.1411E-08
    -17.682 -0.4144E-06 -0.3117E-07
    -17.610 -0.6906E-05 -0.5271E-06
    -17.539 -0.8741E-04 -0.6805E-05
    -17.467 -0.8359E-03 -0.6684E-04
    -17.395 -0.5987E-02 -0.4968E-03
    -17.323 -0.3165E-01 -0.2770E-02
    -17.251 -0.1202E+00 -0.1140E-01
    -17.180 -0.3086E+00 -0.3357E-01
    -17.108 -0.4349E+00 -0.6480E-01
    -17.036  0.1400E+00 -0.5474E-01
    -16.964  0.2246E+01  0.1066E+00
    -16.892  0.5609E+01  0.5093E+00
    -16.820  0.8103E+01  0.1091E+01
    -16.749  0.7605E+01  0.1637E+01
    -16.677  0.4564E+01  0.1965E+01
    -16.605  0.1430E+01  0.2068E+01
    -16.533 -0.1630E+00  0.2056E+01
    -16.461 -0.4310E+00  0.2025E+01
    -16.390 -0.2438E+00  0.2008E+01
    -16.318 -0.8353E-01  0.2002E+01
    -16.246 -0.1983E-01  0.2000E+01
    -16.174 -0.3416E-02  0.2000E+01
    -16.102 -0.4367E-03  0.2000E+01
    -16.030 -0.4194E-04  0.2000E+01
    -15.959 -0.3049E-05  0.2000E+01
    -15.887 -0.1686E-06  0.2000E+01
    -15.815 -0.7114E-08  0.2000E+01
    -15.743 -0.2297E-09  0.2000E+01
    -15.671 -0.5688E-11  0.2000E+01
    -15.600 -0.1113E-12  0.2000E+01
    -15.528  0.0000E+00  0.2000E+01
    -15.456  0.0000E+00  0.2000E+01
    -15.384  0.0000E+00  0.2000E+01
    -15.312  0.0000E+00  0.2000E+01
    -15.241  0.0000E+00  0.2000E+01
    -15.169  0.0000E+00  0.2000E+01
    -15.097  0.0000E+00  0.2000E+01
    -15.025  0.0000E+00  0.2000E+01
    -14.953  0.0000E+00  0.2000E+01
    -14.881  0.0000E+00  0.2000E+01
    -14.810  0.0000E+00  0.2000E+01
    -14.738  0.0000E+00  0.2000E+01
    -14.666  0.0000E+00  0.2000E+01
    -14.594  0.0000E+00  0.2000E+01
    -14.522  0.0000E+00  0.2000E+01
    -14.451  0.0000E+00  0.2000E+01
    -14.379  0.0000E+00  0.2000E+01
    -14.307  0.0000E+00  0.2000E+01
    -14.235  0.0000E+00  0.2000E+01
    -14.163  0.0000E+00  0.2000E+01
    -14.091  0.0000E+00  0.2000E+01
    -14.020  0.0000E+00  0.2000E+01
    -13.948  0.0000E+00  0.2000E+01
    -13.876  0.0000E+00  0.2000E+01
    -13.804  0.0000E+00  0.2000E+01
    -13.732  0.0000E+00  0.2000E+01
    -13.661  0.0000E+00  0.2000E+01
    -13.589  0.0000E+00  0.2000E+01
    -13.517  0.0000E+00  0.2000E+01
    -13.445  0.0000E+00  0.2000E+01
    -13.373  0.0000E+00  0.2000E+01
    -13.301  0.0000E+00  0.2000E+01
    -13.230  0.0000E+00  0.2000E+01
    -13.158  0.0000E+00  0.2000E+01
    -13.086  0.0000E+00  0.2000E+01
    -13.014  0.0000E+00  0.2000E+01
    -12.942  0.0000E+00  0.2000E+01
    -12.871  0.0000E+00  0.2000E+01
    -12.799  0.0000E+00  0.2000E+01
    -12.727  0.0000E+00  0.2000E+01
    -12.655  0.0000E+00  0.2000E+01
    -12.583  0.0000E+00  0.2000E+01
    -12.512  0.0000E+00  0.2000E+01
    -12.440  0.0000E+00  0.2000E+01
    -12.368  0.0000E+00  0.2000E+01
    -12.296  0.0000E+00  0.2000E+01
    -12.224  0.0000E+00  0.2000E+01
    -12.152  0.0000E+00  0.2000E+01
    -12.081  0.0000E+00  0.2000E+01
    -12.009  0.0000E+00  0.2000E+01
    -11.937  0.0000E+00  0.2000E+01
    -11.865  0.0000E+00  0.2000E+01
    -11.793  0.0000E+00  0.2000E+01
    -11.722  0.0000E+00  0.2000E+01
    -11.650  0.0000E+00  0.2000E+01
    -11.578  0.0000E+00  0.2000E+01
    -11.506  0.0000E+00  0.2000E+01
    -11.434  0.0000E+00  0.2000E+01
    -11.362  0.0000E+00  0.2000E+01
    -11.291  0.0000E+00  0.2000E+01
    -11.219  0.0000E+00  0.2000E+01
    -11.147  0.0000E+00  0.2000E+01
    -11.075  0.0000E+00  0.2000E+01
    -11.003  0.0000E+00  0.2000E+01
    -10.932 -0.4690E-27  0.2000E+01
    -10.860 -0.1476E-24  0.2000E+01
    -10.788 -0.3451E-22  0.2000E+01
    -10.716 -0.6225E-20  0.2000E+01
    -10.644 -0.8661E-18  0.2000E+01
    -10.573 -0.9292E-16  0.2000E+01
    -10.501 -0.7686E-14  0.2000E+01
    -10.429 -0.4745E-12  0.2000E+01
    -10.357 -0.2323E-10  0.2000E+01
    -10.285 -0.8737E-09  0.2000E+01
    -10.213 -0.2525E-07  0.2000E+01
    -10.142 -0.5599E-06  0.2000E+01
    -10.070 -0.9507E-05  0.2000E+01
     -9.998 -0.1233E-03  0.2000E+01
     -9.926 -0.1216E-02  0.2000E+01
     -9.854 -0.9057E-02  0.1999E+01
     -9.783 -0.5044E-01  0.1996E+01
     -9.711 -0.2059E+00  0.1981E+01
     -9.639 -0.5905E+00  0.1938E+01
     -9.567 -0.1054E+01  0.1863E+01
     -9.495 -0.5215E+00  0.1825E+01
     -9.423  0.3075E+01  0.2046E+01
     -9.352  0.1072E+02  0.2816E+01
     -9.280  0.1937E+02  0.4207E+01
     -9.208  0.2310E+02  0.5865E+01
     -9.136  0.1893E+02  0.7225E+01
     -9.064  0.1026E+02  0.7961E+01
     -8.993  0.2885E+01  0.8168E+01
     -8.921 -0.5107E+00  0.8132E+01
     -8.849 -0.1006E+01  0.8060E+01
     -8.777 -0.5675E+00  0.8019E+01
     -8.705 -0.2011E+00  0.8004E+01
     -8.634 -0.5039E-01  0.8001E+01
     -8.562 -0.9299E-02  0.8000E+01
     -8.490 -0.1287E-02  0.8000E+01
     -8.418 -0.1349E-03  0.8000E+01
     -8.346 -0.1077E-04  0.8000E+01
     -8.274 -0.6571E-06  0.8000E+01
     -8.203 -0.3071E-07  0.8000E+01
     -8.131 -0.1101E-08  0.8000E+01
     -8.059 -0.3032E-10  0.8000E+01
     -7.987 -0.6385E-12  0.8000E+01
     -7.915 -0.1237E-13  0.8000E+01
     -7.844  0.0000E+00  0.8000E+01
     -7.772  0.0000E+00  0.8000E+01
     -7.700  0.0000E+00  0.8000E+01
     -7.628  0.0000E+00  0.8000E+01
     -7.556  0.0000E+00  0.8000E+01
     -7.484  0.0000E+00  0.8000E+01
     -7.413  0.0000E+00  0.8000E+01
     -7.341  0.0000E+00  0.8000E+01
     -7.269  0.0000E+00  0.8000E+01
     -7.197  0.0000E+00  0.8000E+01
     -7.125  0.0000E+00  0.8000E+01
     -7.054  0.0000E+00  0.8000E+01
     -6.982  0.0000E+00  0.8000E+01
     -6.910  0.0000E+00  0.8000E+01
     -6.838  0.0000E+00  0.8000E+01
     -6.766  0.0000E+00  0.8000E+01
     -6.695  0.0000E+00  0.8000E+01
     -6.623  0.0000E+00  0.8000E+01
     -6.551  0.0000E+00  0.8000E+01
     -6.479  0.0000E+00  0.8000E+01
     -6.407  0.0000E+00  0.8000E+01
     -6.335  0.0000E+00  0.8000E+01
     -6.264  0.0000E+00  0.8000E+01
     -6.192  0.0000E+00  0.8000E+01
     -6.120  0.0000E+00  0.8000E+01
     -6.048  0.0000E+00  0.8000E+01
     -5.976  0.0000E+00  0.8000E+01
     -5.905  0.0000E+00  0.8000E+01
     -5.833  0.0000E+00  0.8000E+01
     -5.761  0.0000E+00  0.8000E+01
     -5.689  0.0000E+00  0.8000E+01
     -5.617  0.0000E+00  0.8000E+01
     -5.545  0.0000E+00  0.8000E+01
     -5.474  0.0000E+00  0.8000E+01
     -5.402  0.0000E+00  0.8000E+01
     -5.330  0.0000E+00  0.8000E+01
     -5.258  0.0000E+00  0.8000E+01
     -5.186  0.0000E+00  0.8000E+01
     -5.115  0.0000E+00  0.8000E+01
     -5.043  0.0000E+00  0.8000E+01
     -4.971  0.0000E+00  0.8000E+01
     -4.899  0.0000E+00  0.8000E+01
     -4.827  0.0000E+00  0.8000E+01
     -4.756  0.0000E+00  0.8000E+01
     -4.684  0.0000E+00  0.8000E+01
     -4.612  0.0000E+00  0.8000E+01
     -4.540  0.0000E+00  0.8000E+01
     -4.468  0.0000E+00  0.8000E+01
     -4.396  0.0000E+00  0.8000E+01
     -4.325  0.0000E+00  0.8000E+01
     -4.253  0.0000E+00  0.8000E+01
     -4.181  0.0000E+00  0.8000E+01
     -4.109  0.0000E+00  0.8000E+01
     -4.037  0.0000E+00  0.8000E+01
     -3.966  0.0000E+00  0.8000E+01
     -3.894  0.0000E+00  0.8000E+01
     -3.822  0.0000E+00  0.8000E+01
     -3.750  0.0000E+00  0.8000E+01
     -3.678  0.0000E+00  0.8000E+01
     -3.606  0.0000E+00  0.8000E+01
     -3.535  0.0000E+00  0.8000E+01
     -3.463  0.0000E+00  0.8000E+01
     -3.391  0.0000E+00  0.8000E+01
     -3.319  0.0000E+00  0.8000E+01
     -3.247  0.0000E+00  0.8000E+01
     -3.176  0.0000E+00  0.8000E+01
     -3.104  0.0000E+00  0.8000E+01
     -3.032  0.0000E+00  0.8000E+01
     -2.960  0.0000E+00  0.8000E+01
     -2.888  0.0000E+00  0.8000E+01
     -2.816  0.0000E+00  0.8000E+01
     -2.745  0.0000E+00  0.8000E+01
     -2.673  0.0000E+00  0.8000E+01
     -2.601  0.0000E+00  0.8000E+01
     -2.529  0.0000E+00  0.8000E+01
     -2.457  0.0000E+00  0.8000E+01
     -2.386  0.0000E+00  0.8000E+01
     -2.314  0.0000E+00  0.8000E+01
     -2.242  0.0000E+00  0.8000E+01
     -2.170  0.0000E+00  0.8000E+01
     -2.098  0.0000E+00  0.8000E+01
     -2.027  0.0000E+00  0.8000E+01
     -1.955 -0.1985E-26  0.8000E+01
     -1.883 -0.5587E-24  0.8000E+01
     -1.811 -0.1215E-21  0.8000E+01
     -1.739 -0.2037E-19  0.8000E+01
     -1.667 -0.2631E-17  0.8000E+01
     -1.596 -0.2617E-15  0.8000E+01
     -1.524 -0.2003E-13  0.8000E+01
     -1.452 -0.1142E-11  0.8000E+01
     -1.380 -0.5146E-10  0.8000E+01
     -1.308 -0.1778E-08  0.8000E+01
     -1.237 -0.4705E-07  0.8000E+01
     -1.165 -0.9515E-06  0.8000E+01
     -1.093 -0.1466E-04  0.8000E+01
     -1.021 -0.1714E-03  0.8000E+01
     -0.949 -0.1510E-02  0.8000E+01
     -0.877 -0.9934E-02  0.7999E+01
     -0.806 -0.4796E-01  0.7996E+01
     -0.734 -0.1643E+00  0.7984E+01
     -0.662 -0.3682E+00  0.7957E+01
     -0.590 -0.3827E+00  0.7930E+01
     -0.518  0.5615E+00  0.7970E+01
     -0.447  0.3137E+01  0.8196E+01
     -0.375  0.6526E+01  0.8664E+01
     -0.303  0.8304E+01  0.9261E+01
     -0.231  0.6905E+01  0.9757E+01
     -0.159  0.3575E+01  0.1001E+02
     -0.088  0.8008E+00  0.1007E+02
     -0.016 -0.3425E+00  0.1005E+02
      0.056 -0.4345E+00  0.1001E+02
      0.128 -0.3503E+00  0.9990E+01
      0.200 -0.5012E+00  0.9954E+01
      0.272 -0.7757E+00  0.9898E+01
      0.343 -0.3986E+00  0.9869E+01
      0.415  0.2023E+01  0.1001E+02
      0.487  0.7416E+01  0.1055E+02
      0.559  0.1458E+02  0.1159E+02
      0.631  0.1997E+02  0.1303E+02
      0.702  0.2008E+02  0.1447E+02
      0.774  0.1464E+02  0.1552E+02
      0.846  0.7132E+01  0.1603E+02
      0.918  0.1590E+01  0.1615E+02
      0.990 -0.6583E+00  0.1610E+02
      1.062 -0.8153E+00  0.1604E+02
      1.133 -0.4154E+00  0.1601E+02
      1.205 -0.1374E+00  0.1600E+02
      1.277 -0.3237E-01  0.1600E+02
      1.349 -0.5626E-02  0.1600E+02
      1.421 -0.7337E-03  0.1600E+02
      1.492 -0.7248E-04  0.1600E+02
      1.564 -0.5455E-05  0.1600E+02
      1.636 -0.3139E-06  0.1600E+02
      1.708 -0.1385E-07  0.1600E+02
      1.780 -0.4691E-09  0.1600E+02
      1.851 -0.1221E-10  0.1600E+02
      1.923 -0.2458E-12  0.1600E+02
      1.995 -0.3092E-14  0.1600E+02
      2.067  0.0000E+00  0.1600E+02
      2.139  0.0000E+00  0.1600E+02
      2.211  0.0000E+00  0.1600E+02
      2.282  0.0000E+00  0.1600E+02
      2.354  0.0000E+00  0.1600E+02
      2.426  0.0000E+00  0.1600E+02
      2.498  0.0000E+00  0.1600E+02
      2.570  0.0000E+00  0.1600E+02
      2.641  0.0000E+00  0.1600E+02
      2.713  0.0000E+00  0.1600E+02
      2.70836402    -18.81069246  301     -8.82931607      1.00000000
    -18.811  0.0000E+00  0.0000E+00
    -18.739  0.0000E+00  0.0000E+00
    -18.667  0.0000E+00  0.0000E+00
    -18.596  0.0000E+00  0.0000E+00
    -18.524  0.0000E+00  0.0000E+00
    -18.452 -0.3622E-27 -0.2598E-28
    -18.380 -0.1094E-24 -0.7871E-26
    -18.309 -0.2554E-22 -0.1840E-23
    -18.237 -0.4598E-20 -0.3317E-21
    -18.165 -0.6383E-18 -0.4612E-19
    -18.093 -0.6828E-16 -0.4944E-17
    -18.022 -0.5626E-14 -0.4085E-15
    -17.950 -0.3460E-12 -0.2523E-13
    -17.878 -0.1681E-10 -0.1231E-11
    -17.806 -0.6269E-09 -0.4620E-10
    -17.735 -0.1793E-07 -0.1332E-08
    -17.663 -0.3922E-06 -0.2947E-07
    -17.591 -0.6549E-05 -0.4992E-06
    -17.520 -0.8312E-04 -0.6461E-05
    -17.448 -0.7976E-03 -0.6368E-04
    -17.376 -0.5738E-02 -0.4752E-03
    -17.304 -0.3050E-01 -0.2663E-02
    -17.233 -0.1167E+00 -0.1104E-01
    -17.161 -0.3028E+00 -0.3275E-01
    -17.089 -0.4368E+00 -0.6409E-01
    -17.017  0.1046E+00 -0.5659E-01
    -16.946  0.2157E+01  0.9817E-01
    -16.874  0.5502E+01  0.4928E+00
    -16.802  0.8063E+01  0.1071E+01
    -16.731  0.7674E+01  0.1622E+01
    -16.659  0.4687E+01  0.1958E+01
    -16.587  0.1520E+01  0.2067E+01
    -16.515 -0.1328E+00  0.2057E+01
    -16.444 -0.4340E+00  0.2026E+01
    -16.372 -0.2522E+00  0.2008E+01
    -16.300 -0.8793E-01  0.2002E+01
    -16.228 -0.2120E-01  0.2000E+01
    -16.157 -0.3707E-02  0.2000E+01
    -16.085 -0.4812E-03  0.2000E+01
    -16.013 -0.4693E-04  0.2000E+01
    -15.941 -0.3465E-05  0.2000E+01
    -15.870 -0.1947E-06  0.2000E+01
    -15.798 -0.8356E-08  0.2000E+01
    -15.726 -0.2745E-09  0.2000E+01
    -15.655 -0.6915E-11  0.2000E+01
    -15.583 -0.1362E-12  0.2000E+01
    -15.511  0.0000E+00  0.2000E+01
    -15.439  0.0000E+00  0.2000E+01
    -15.368  0.0000E+00  0.2000E+01
    -15.296  0.0000E+00  0.2000E+01
    -15.224  0.0000E+00  0.2000E+01
    -15.152  0.0000E+00  0.2000E+01
    -15.081  0.0000E+00  0.2000E+01
    -15.009  0.0000E+00  0.2000E+01
    -14.937  0.0000E+00  0.2000E+01
    -14.866  0.0000E+00  0.2000E+01
    -14.794  0.0000E+00  0.2000E+01
    -14.722  0.0000E+00  0.2000E+01
    -14.650  0.0000E+00  0.2000E+01
    -14.579  0.0000E+00  0.2000E+01
    -14.507  0.0000E+00  0.2000E+01
    -14.435  0.0000E+00  0.2000E+01
    -14.363  0.0000E+00  0.2000E+01
    -14.292  0.0000E+00  0.2000E+01
    -14.220  0.0000E+00  0.2000E+01
    -14.148  0.0000E+00  0.2000E+01
    -14.077  0.0000E+00  0.2000E+01
    -14.005  0.0000E+00  0.2000E+01
    -13.933  0.0000E+00  0.2000E+01
    -13.861  0.0000E+00  0.2000E+01
    -13.790  0.0000E+00  0.2000E+01
    -13.718  0.0000E+00  0.2000E+01
    -13.646  0.0000E+00  0.2000E+01
    -13.574  0.0000E+00  0.2000E+01
    -13.503  0.0000E+00  0.2000E+01
    -13.431  0.0000E+00  0.2000E+01
    -13.359  0.0000E+00  0.2000E+01
    -13.287  0.0000E+00  0.2000E+01
    -13.216  0.0000E+00  0.2000E+01
    -13.144  0.0000E+00  0.2000E+01
    -13.072  0.0000E+00  0.2000E+01
    -13.001  0.0000E+00  0.2000E+01
    -12.929  0.0000E+00  0.2000E+01
    -12.857  0.0000E+00  0.2000E+01
    -12.785  0.0000E+00  0.2000E+01
    -12.714  0.0000E+00  0.2000E+01
    -12.642  0.0000E+00  0.2000E+01
    -12.570  0.0000E+00  0.2000E+01
    -12.498  0.0000E+00  0.2000E+01
    -12.427  0.0000E+00  0.2000E+01
    -12.355  0.0000E+00  0.2000E+01
    -12.283  0.0000E+00  0.2000E+01
    -12.212  0.0000E+00  0.2000E+01
    -12.140  0.0000E+00  0.2000E+01
    -12.068  0.0000E+00  0.2000E+01
    -11.996  0.0000E+00  0.2000E+01
    -11.925  0.0000E+00  0.2000E+01
    -11.853  0.0000E+00  0.2000E+01
    -11.781  0.0000E+00  0.2000E+01
    -11.709  0.0000E+00  0.2000E+01
    -11.638  0.0000E+00  0.2000E+01
    -11.566  0.0000E+00  0.2000E+01
    -11.494  0.0000E+00  0.2000E+01
    -11.422  0.0000E+00  0.2000E+01
    -11.351  0.0000E+00  0.2000E+01
    -11.279  0.0000E+00  0.2000E+01
    -11.207  0.0000E+00  0.2000E+01
    -11.136 -0.3354E-27  0.2000E+01
    -11.064 -0.1016E-24  0.2000E+01
    -10.992 -0.2381E-22  0.2000E+01
    -10.920 -0.4301E-20  0.2000E+01
    -10.849 -0.5991E-18  0.2000E+01
    -10.777 -0.6431E-16  0.2000E+01
    -10.705 -0.5317E-14  0.2000E+01
    -10.633 -0.3276E-12  0.2000E+01
    -10.562 -0.1600E-10  0.2000E+01
    -10.490 -0.5988E-09  0.2000E+01
    -10.418 -0.1718E-07  0.2000E+01
    -10.347 -0.3773E-06  0.2000E+01
    -10.275 -0.6321E-05  0.2000E+01
    -10.203 -0.8053E-04  0.2000E+01
    -10.131 -0.7757E-03  0.2000E+01
    -10.060 -0.5602E-02  0.2000E+01
     -9.988 -0.2992E-01  0.1997E+01
     -9.916 -0.1152E+00  0.1989E+01
     -9.844 -0.3017E+00  0.1967E+01
     -9.773 -0.4488E+00  0.1935E+01
     -9.701  0.3560E-01  0.1938E+01
     -9.629  0.1941E+01  0.2077E+01
     -9.557  0.5069E+01  0.2441E+01
     -9.486  0.7657E+01  0.2990E+01
     -9.414  0.8274E+01  0.3583E+01
     -9.342  0.7803E+01  0.4143E+01
     -9.271  0.7848E+01  0.4706E+01
     -9.199  0.8286E+01  0.5300E+01
     -9.127  0.8412E+01  0.5904E+01
     -9.055  0.8568E+01  0.6518E+01
     -8.984  0.8640E+01  0.7138E+01
     -8.912  0.7310E+01  0.7662E+01
     -8.840  0.4334E+01  0.7973E+01
     -8.768  0.1366E+01  0.8071E+01
     -8.697 -0.1780E+00  0.8059E+01
     -8.625 -0.4459E+00  0.8027E+01
     -8.553 -0.2558E+00  0.8008E+01
     -8.482 -0.8914E-01  0.8002E+01
     -8.410 -0.2152E-01  0.8000E+01
     -8.338 -0.3773E-02  0.8000E+01
     -8.266 -0.4910E-03  0.8000E+01
     -8.195 -0.4800E-04  0.8000E+01
     -8.123 -0.3553E-05  0.8000E+01
     -8.051 -0.2002E-06  0.8000E+01
     -7.979 -0.8611E-08  0.8000E+01
     -7.908 -0.2836E-09  0.8000E+01
     -7.836 -0.7165E-11  0.8000E+01
     -7.764 -0.1378E-12  0.8000E+01
     -7.693  0.0000E+00  0.8000E+01
     -7.621  0.0000E+00  0.8000E+01
     -7.549  0.0000E+00  0.8000E+01
     -7.477  0.0000E+00  0.8000E+01
     -7.406  0.0000E+00  0.8000E+01
     -7.334  0.0000E+00  0.8000E+01
     -7.262  0.0000E+00  0.8000E+01
     -7.190  0.0000E+00  0.8000E+01
     -7.119  0.0000E+00  0.8000E+01
     -7.047  0.0000E+00  0.8000E+01
     -6.975  0.0000E+00  0.8000E+01
     -6.903  0.0000E+00  0.8000E+01
     -6.832  0.0000E+00  0.8000E+01
     -6.760  0.0000E+00  0.8000E+01
     -6.688  0.0000E+00  0.8000E+01
     -6.617  0.0000E+00  0.8000E+01
     -6.545  0.0000E+00  0.8000E+01
     -6.473  0.0000E+00  0.8000E+01
     -6.401  0.0000E+00  0.8000E+01
     -6.330  0.0000E+00  0.8000E+01
     -6.258  0.0000E+00  0.8000E+01
     -6.186  0.0000E+00  0.8000E+01
     -6.114  0.0000E+00  0.8000E+01
     -6.043  0.0000E+00  0.8000E+01
     -5.971  0.0000E+00  0.8000E+01
     -5.899  0.0000E+00  0.8000E+01
     -5.828  0.0000E+00  0.8000E+01
     -5.756  0.0000E+00  0.8000E+01
     -5.684  0.0000E+00  0.8000E+01
     -5.612  0.0000E+00  0.8000E+01
     -5.541  0.0000E+00  0.8000E+01
     -5.469  0.0000E+00  0.8000E+01
     -5.397  0.0000E+00  0.8000E+01
     -5.325  0.0000E+00  0.8000E+01
     -5.254  0.0000E+00  0.8000E+01
     -5.182  0.0000E+00  0.8000E+01
     -5.110  0.0000E+00  0.8000E+01
     -5.038  0.0000E+00  0.8000E+01
     -4.967  0.0000E+00  0.8000E+01
     -4.895  0.0000E+00  0.8000E+01
     -4.823  0.0000E+00  0.8000E+01
     -4.752  0.0000E+00  0.8000E+01
     -4.680  0.0000E+00  0.8000E+01
     -4.608  0.0000E+00  0.8000E+01
     -4.536  0.0000E+00  0.8000E+01
     -4.465  0.0000E+00  0.8000E+01
     -4.393  0.0000E+00  0.8000E+01
     -4.321  0.0000E+00  0.8000E+01
     -4.249  0.0000E+00  0.8000E+01
     -4.178  0.0000E+00  0.8000E+01
     -4.106  0.0000E+00  0.8000E+01
     -4.034  0.0000E+00  0.8000E+01
     -3.963  0.0000E+00  0.8000E+01
     -3.891  0.0000E+00  0.8000E+01
     -3.819  0.0000E+00  0.8000E+01
     -3.747  0.0000E+00  0.8000E+01
     -3.676  0.0000E+00  0.8000E+01
     -3.604  0.0000E+00  0.8000E+01
     -3.532  0.0000E+00  0.8000E+01
     -3.460  0.0000E+00  0.8000E+01
     -3.389  0.0000E+00  0.8000E+01
     -3.317  0.0000E+00  0.8000E+01
     -3.245  0.0000E+00  0.8000E+01
     -3.174  0.0000E+00  0.8000E+01
     -3.102  0.0000E+00  0.8000E+01
     -3.030  0.0000E+00  0.8000E+01
     -2.958  0.0000E+00  0.8000E+01
     -2.887  0.0000E+00  0.8000E+01
     -2.815  0.0000E+00  0.8000E+01
     -2.743  0.0000E+00  0.8000E+01
     -2.671  0.0000E+00  0.8000E+01
     -2.600  0.0000E+00  0.8000E+01
     -2.528  0.0000E+00  0.8000E+01
     -2.456  0.0000E+00  0.8000E+01
     -2.384  0.0000E+00  0.8000E+01
     -2.313  0.0000E+00  0.8000E+01
     -2.241  0.0000E+00  0.8000E+01
     -2.169  0.0000E+00  0.8000E+01
     -2.098  0.0000E+00  0.8000E+01
     -2.026  0.0000E+00  0.8000E+01
     -1.954 -0.2892E-26  0.8000E+01
     -1.882 -0.7944E-24  0.8000E+01
     -1.811 -0.1688E-21  0.8000E+01
     -1.739 -0.2766E-19  0.8000E+01
     -1.667 -0.3494E-17  0.8000E+01
     -1.595 -0.3401E-15  0.8000E+01
     -1.524 -0.2472E-13  0.8000E+01
     -1.452 -0.1425E-11  0.8000E+01
     -1.380 -0.6293E-10  0.8000E+01
     -1.309 -0.2134E-08  0.8000E+01
     -1.237 -0.5543E-07  0.8000E+01
     -1.165 -0.1101E-05  0.8000E+01
     -1.093 -0.1667E-04  0.8000E+01
     -1.022 -0.1916E-03  0.8000E+01
     -0.950 -0.1661E-02  0.8000E+01
     -0.878 -0.1075E-01  0.7999E+01
     -0.806 -0.5104E-01  0.7995E+01
     -0.735 -0.1718E+00  0.7983E+01
     -0.663 -0.3762E+00  0.7956E+01
     -0.591 -0.3692E+00  0.7930E+01
     -0.519  0.6313E+00  0.7975E+01
     -0.448  0.3264E+01  0.8209E+01
     -0.376  0.6635E+01  0.8685E+01
     -0.304  0.8309E+01  0.9281E+01
     -0.233  0.6807E+01  0.9769E+01
     -0.161  0.3462E+01  0.1002E+02
     -0.089  0.7393E+00  0.1007E+02
     -0.017 -0.3554E+00  0.1005E+02
      0.054 -0.4301E+00  0.1001E+02
      0.126 -0.3457E+00  0.9989E+01
      0.198 -0.4937E+00  0.9954E+01
      0.270 -0.7524E+00  0.9900E+01
      0.341 -0.3662E+00  0.9874E+01
      0.413  0.1996E+01  0.1002E+02
      0.485  0.7234E+01  0.1054E+02
      0.556  0.1428E+02  0.1156E+02
      0.628  0.1979E+02  0.1298E+02
      0.700  0.2021E+02  0.1443E+02
      0.772  0.1495E+02  0.1550E+02
      0.843  0.7383E+01  0.1603E+02
      0.915  0.1678E+01  0.1615E+02
      0.987 -0.6675E+00  0.1610E+02
      1.059 -0.8400E+00  0.1604E+02
      1.130 -0.4281E+00  0.1601E+02
      1.202 -0.1411E+00  0.1600E+02
      1.274 -0.3308E-01  0.1600E+02
      1.345 -0.5716E-02  0.1600E+02
      1.417 -0.7408E-03  0.1600E+02
      1.489 -0.7272E-04  0.1600E+02
      1.561 -0.5439E-05  0.1600E+02
      1.632 -0.3112E-06  0.1600E+02
      1.704 -0.1366E-07  0.1600E+02
      1.776 -0.4605E-09  0.1600E+02
      1.848 -0.1195E-10  0.1600E+02
      1.919 -0.2415E-12  0.1600E+02
      1.991 -0.3096E-14  0.1600E+02
      2.063  0.0000E+00  0.1600E+02
      2.135  0.0000E+00  0.1600E+02
      2.206  0.0000E+00  0.1600E+02
      2.278  0.0000E+00  0.1600E+02
      2.350  0.0000E+00  0.1600E+02
      2.421  0.0000E+00  0.1600E+02
      2.493  0.0000E+00  0.1600E+02
      2.565  0.0000E+00  0.1600E+02
      2.637  0.0000E+00  0.1600E+02
      2.708  0.0000E+00  0.1600E+02
      2.70860049    -18.86965056  301     -8.74895525      1.00000000
    -18.870  0.0000E+00  0.0000E+00
    -18.798  0.0000E+00  0.0000E+00
    -18.726  0.0000E+00  0.0000E+00
    -18.654  0.0000E+00  0.0000E+00
    -18.582  0.0000E+00  0.0000E+00
    -18.510 -0.3914E-27 -0.2815E-28
    -18.438 -0.1196E-24 -0.8630E-26
    -18.366 -0.2821E-22 -0.2038E-23
    -18.294 -0.5126E-20 -0.3707E-21
    -18.222 -0.7169E-18 -0.5193E-19
    -18.150 -0.7715E-16 -0.5601E-17
    -18.078 -0.6386E-14 -0.4649E-15
    -18.007 -0.3940E-12 -0.2880E-13
    -17.935 -0.1917E-10 -0.1407E-11
    -17.863 -0.7151E-09 -0.5284E-10
    -17.791 -0.2042E-07 -0.1522E-08
    -17.719 -0.4455E-06 -0.3356E-07
    -17.647 -0.7404E-05 -0.5661E-06
    -17.575 -0.9338E-04 -0.7283E-05
    -17.503 -0.8889E-03 -0.7122E-04
    -17.431 -0.6329E-02 -0.5265E-03
    -17.359 -0.3322E-01 -0.2916E-02
    -17.287 -0.1250E+00 -0.1190E-01
    -17.215 -0.3162E+00 -0.3465E-01
    -17.143 -0.4317E+00 -0.6570E-01
    -17.071  0.1889E+00 -0.5211E-01
    -17.000  0.2365E+01  0.1180E+00
    -16.928  0.5748E+01  0.5314E+00
    -16.856  0.8151E+01  0.1118E+01
    -16.784  0.7508E+01  0.1658E+01
    -16.712  0.4402E+01  0.1974E+01
    -16.640  0.1315E+01  0.2069E+01
    -16.568 -0.1999E+00  0.2055E+01
    -16.496 -0.4260E+00  0.2024E+01
    -16.424 -0.2330E+00  0.2007E+01
    -16.352 -0.7799E-01  0.2002E+01
    -16.280 -0.1813E-01  0.2000E+01
    -16.208 -0.3063E-02  0.2000E+01
    -16.136 -0.3838E-03  0.2000E+01
    -16.064 -0.3612E-04  0.2000E+01
    -15.993 -0.2572E-05  0.2000E+01
    -15.921 -0.1392E-06  0.2000E+01
    -15.849 -0.5747E-08  0.2000E+01
    -15.777 -0.1814E-09  0.2000E+01
    -15.705 -0.4385E-11  0.2000E+01
    -15.633 -0.8026E-13  0.2000E+01
    -15.561  0.0000E+00  0.2000E+01
    -15.489  0.0000E+00  0.2000E+01
    -15.417  0.0000E+00  0.2000E+01
    -15.345  0.0000E+00  0.2000E+01
    -15.273  0.0000E+00  0.2000E+01
    -15.201  0.0000E+00  0.2000E+01
    -15.129  0.0000E+00  0.2000E+01
    -15.057  0.0000E+00  0.2000E+01
    -14.986  0.0000E+00  0.2000E+01
    -14.914  0.0000E+00  0.2000E+01
    -14.842  0.0000E+00  0.2000E+01
    -14.770  0.0000E+00  0.2000E+01
    -14.698  0.0000E+00  0.2000E+01
    -14.626  0.0000E+00  0.2000E+01
    -14.554  0.0000E+00  0.2000E+01
    -14.482  0.0000E+00  0.2000E+01
    -14.410  0.0000E+00  0.2000E+01
    -14.338  0.0000E+00  0.2000E+01
    -14.266  0.0000E+00  0.2000E+01
    -14.194  0.0000E+00  0.2000E+01
    -14.122  0.0000E+00  0.2000E+01
    -14.051  0.0000E+00  0.2000E+01
    -13.979  0.0000E+00  0.2000E+01
    -13.907  0.0000E+00  0.2000E+01
    -13.835  0.0000E+00  0.2000E+01
    -13.763  0.0000E+00  0.2000E+01
    -13.691  0.0000E+00  0.2000E+01
    -13.619  0.0000E+00  0.2000E+01
    -13.547  0.0000E+00  0.2000E+01
    -13.475  0.0000E+00  0.2000E+01
    -13.403  0.0000E+00  0.2000E+01
    -13.331  0.0000E+00  0.2000E+01
    -13.259  0.0000E+00  0.2000E+01
    -13.187  0.0000E+00  0.2000E+01
    -13.115  0.0000E+00  0.2000E+01
    -13.044  0.0000E+00  0.2000E+01
    -12.972  0.0000E+00  0.2000E+01
    -12.900  0.0000E+00  0.2000E+01
    -12.828  0.0000E+00  0.2000E+01
    -12.756  0.0000E+00  0.2000E+01
    -12.684  0.0000E+00  0.2000E+01
    -12.612  0.0000E+00  0.2000E+01
    -12.540  0.0000E+00  0.2000E+01
    -12.468  0.0000E+00  0.2000E+01
    -12.396  0.0000E+00  0.2000E+01
    -12.324  0.0000E+00  0.2000E+01
    -12.252  0.0000E+00  0.2000E+01
    -12.180  0.0000E+00  0.2000E+01
    -12.108  0.0000E+00  0.2000E+01
    -12.037  0.0000E+00  0.2000E+01
    -11.965  0.0000E+00  0.2000E+01
    -11.893  0.0000E+00  0.2000E+01
    -11.821  0.0000E+00  0.2000E+01
    -11.749  0.0000E+00  0.2000E+01
    -11.677  0.0000E+00  0.2000E+01
    -11.605  0.0000E+00  0.2000E+01
    -11.533  0.0000E+00  0.2000E+01
    -11.461  0.0000E+00  0.2000E+01
    -11.389  0.0000E+00  0.2000E+01
    -11.317  0.0000E+00  0.2000E+01
    -11.245  0.0000E+00  0.2000E+01
    -11.173 -0.1593E-27  0.2000E+01
    -11.101 -0.5065E-25  0.2000E+01
    -11.030 -0.1244E-22  0.2000E+01
    -10.958 -0.2352E-20  0.2000E+01
    -10.886 -0.3424E-18  0.2000E+01
    -10.814 -0.3835E-16  0.2000E+01
    -10.742 -0.3305E-14  0.2000E+01
    -10.670 -0.2128E-12  0.2000E+01
    -10.598 -0.1076E-10  0.2000E+01
    -10.526 -0.4182E-09  0.2000E+01
    -10.454 -0.1244E-07  0.2000E+01
    -10.382 -0.2830E-06  0.2000E+01
    -10.310 -0.4907E-05  0.2000E+01
    -10.238 -0.6463E-04  0.2000E+01
    -10.166 -0.6436E-03  0.2000E+01
    -10.094 -0.4809E-02  0.2000E+01
    -10.023 -0.2665E-01  0.1998E+01
     -9.951 -0.1072E+00  0.1990E+01
     -9.879 -0.2993E+00  0.1968E+01
     -9.807 -0.5112E+00  0.1932E+01
     -9.735 -0.2122E+00  0.1916E+01
     -9.663  0.1503E+01  0.2025E+01
     -9.591  0.4983E+01  0.2383E+01
     -9.519  0.9122E+01  0.3039E+01
     -9.447  0.1199E+02  0.3901E+01
     -9.375  0.1224E+02  0.4782E+01
     -9.303  0.9710E+01  0.5480E+01
     -9.231  0.5477E+01  0.5874E+01
     -9.159  0.1809E+01  0.6004E+01
     -9.088  0.9360E+00  0.6072E+01
     -9.016  0.3279E+01  0.6308E+01
     -8.944  0.6734E+01  0.6792E+01
     -8.872  0.8144E+01  0.7378E+01
     -8.800  0.6275E+01  0.7829E+01
     -8.728  0.2898E+01  0.8038E+01
     -8.656  0.4390E+00  0.8069E+01
     -8.584 -0.4032E+00  0.8040E+01
     -8.512 -0.3530E+00  0.8015E+01
     -8.440 -0.1514E+00  0.8004E+01
     -8.368 -0.4283E-01  0.8001E+01
     -8.296 -0.8623E-02  0.8000E+01
     -8.224 -0.1275E-02  0.8000E+01
     -8.152 -0.1408E-03  0.8000E+01
     -8.081 -0.1171E-04  0.8000E+01
     -8.009 -0.7388E-06  0.8000E+01
     -7.937 -0.3549E-07  0.8000E+01
     -7.865 -0.1302E-08  0.8000E+01
     -7.793 -0.3655E-10  0.8000E+01
     -7.721 -0.7872E-12  0.8000E+01
     -7.649 -0.1235E-13  0.8000E+01
     -7.577  0.0000E+00  0.8000E+01
     -7.505  0.0000E+00  0.8000E+01
     -7.433  0.0000E+00  0.8000E+01
     -7.361  0.0000E+00  0.8000E+01
     -7.289  0.0000E+00  0.8000E+01
     -7.217  0.0000E+00  0.8000E+01
     -7.145  0.0000E+00  0.8000E+01
     -7.074  0.0000E+00  0.8000E+01
     -7.002  0.0000E+00  0.8000E+01
     -6.930  0.0000E+00  0.8000E+01
     -6.858  0.0000E+00  0.8000E+01
     -6.786  0.0000E+00  0.8000E+01
     -6.714  0.0000E+00  0.8000E+01
     -6.642  0.0000E+00  0.8000E+01
     -6.570  0.0000E+00  0.8000E+01
     -6.498  0.0000E+00  0.8000E+01
     -6.426  0.0000E+00  0.8000E+01
     -6.354  0.0000E+00  0.8000E+01
     -6.282  0.0000E+00  0.8000E+01
     -6.210  0.0000E+00  0.8000E+01
     -6.138  0.0000E+00  0.8000E+01
     -6.067  0.0000E+00  0.8000E+01
     -5.995  0.0000E+00  0.8000E+01
     -5.923  0.0000E+00  0.8000E+01
     -5.851  0.0000E+00  0.8000E+01
     -5.779  0.0000E+00  0.8000E+01
     -5.707  0.0000E+00  0.8000E+01
     -5.635  0.0000E+00  0.8000E+01
     -5.563  0.0000E+00  0.8000E+01
     -5.491  0.0000E+00  0.8000E+01
     -5.419  0.0000E+00  0.8000E+01
     -5.347  0.0000E+00  0.8000E+01
     -5.275  0.0000E+00  0.8000E+01
     -5.203  0.0000E+00  0.8000E+01
     -5.131  0.0000E+00  0.8000E+01
     -5.060  0.0000E+00  0.8000E+01
     -4.988  0.0000E+00  0.8000E+01
     -4.916  0.0000E+00  0.8000E+01
     -4.844  0.0000E+00  0.8000E+01
     -4.772  0.0000E+00  0.8000E+01
     -4.700  0.0000E+00  0.8000E+01
     -4.628  0.0000E+00  0.8000E+01
     -4.556  0.0000E+00  0.8000E+01
     -4.484  0.0000E+00  0.8000E+01
     -4.412  0.0000E+00  0.8000E+01
     -4.340  0.0000E+00  0.8000E+01
     -4.268  0.0000E+00  0.8000E+01
     -4.196  0.0000E+00  0.8000E+01
     -4.125  0.0000E+00  0.8000E+01
     -4.053  0.0000E+00  0.8000E+01
     -3.981  0.0000E+00  0.8000E+01
     -3.909  0.0000E+00  0.8000E+01
     -3.837  0.0000E+00  0.8000E+01
     -3.765  0.0000E+00  0.8000E+01
     -3.693  0.0000E+00  0.8000E+01
     -3.621  0.0000E+00  0.8000E+01
     -3.549  0.0000E+00  0.8000E+01
     -3.477  0.0000E+00  0.8000E+01
     -3.405  0.0000E+00  0.8000E+01
     -3.333  0.0000E+00  0.8000E+01
     -3.261  0.0000E+00  0.8000E+01
     -3.189  0.0000E+00  0.8000E+01
     -3.118  0.0000E+00  0.8000E+01