    5    5    1    1
  0.2058539E+03  0.1029744E-08  0.9737961E-09  0.1026843E-08  0.2000000E-14
   50.000000000000000     
  CAR 
 unknown system                          
      8      4      8

  0.2500000E+00  0.2500000E+00  0.2500000E+00  0.2500000E+00
    1      -16.914206   1.000000
    2       -9.518251   1.000021
    3       -9.248251   1.010715
    4       -9.026526   0.989273
    5       -0.311340   0.000000
    6        0.543529   0.000000
    7        0.657081   0.000000
    8        0.691578   0.000000

 -0.2500000E+00  0.2500000E+00  0.2500000E+00  0.2500000E+00
    1      -16.914169   1.000000
    2       -9.518231   1.000021
    3       -9.248222   1.010719
    4       -9.026524   0.989271
    5       -0.318436   0.000000
    6        0.558407   0.000000
    7        0.665967   0.000000
    8        0.713657   0.000000

  0.2500000E+00 -0.2500000E+00  0.2500000E+00  0.2500000E+00
    1      -16.914174   1.000000
    2       -9.518204   1.000021
    3       -9.248183   1.010726
    4       -9.026459   0.989186
    5       -0.315776   0.000000
    6        0.545943   0.000000
    7        0.664605   0.000000
    8        0.710103   0.000000

 -0.2500000E+00 -0.2500000E+00  0.2500000E+00  0.2500000E+00
    1      -16.914203   1.000000
    2       -9.518215   1.000021
    3       -9.248270   1.010712
    4       -9.026558   0.989315
    5       -0.311099   0.000000
    6        0.539183   0.000000
    7        0.667075   0.000000
    8        0.688395   0.000000
