 vasp.5.4.4.18Apr17-6-g9f103f2a35 (build Jul 12 2018 13:43:46) complex           
 executed on             LinuxGNU date 2019.06.22  02:17:32
 running on    1 total cores
 distrk:  each k-point on    1 cores,    1 groups
 distr:  one band on NCORES_PER_BAND=   1 cores,    1 groups


--------------------------------------------------------------------------------------------------------


 INCAR:
 POTCAR:    PAW_PBE H 15Jun2001                   
 POTCAR:    PAW_PBE C 08Apr2002                   
 POTCAR:    PAW_PBE H 15Jun2001                   
   VRHFIN =H: ultrasoft test                                                    
   LEXCH  = PE                                                                  
   EATOM  =    12.4884 eV,    0.9179 Ry                                         
                                                                                
   TITEL  = PAW_PBE H 15Jun2001                                                 
   LULTRA =        F    use ultrasoft PP ?                                      
   IUNSCR =        0    unscreen: 0-lin 1-nonlin 2-no                           
   RPACOR =    0.000    partial core radius                                     
   POMASS =    1.000; ZVAL   =    1.000    mass and valenz                      
   RCORE  =    1.100    outmost cutoff radius                                   
   RWIGS  =    0.700; RWIGS  =    0.370    wigner-seitz radius (au A)           
   ENMAX  =  250.000; ENMIN  =  200.000 eV                                      
   RCLOC  =    0.701    cutoff for local pot                                    
   LCOR   =        T    correct aug charges                                     
   LPAW   =        T    paw PP                                                  
   EAUG   =  400.000                                                            
   RMAX   =    1.123    core radius for proj-oper                               
   RAUG   =    1.200    factor for augmentation sphere                          
   RDEP   =    1.112    radius for radial grids                                 
   RDEPT  =    0.926    core radius for aug-charge                              
                                                                                
   Atomic configuration                                                         
    2 entries                                                                   
     n  l   j            E        occ.                                          
     1  0  0.50        -6.4927   1.0000                                         
     2  1  0.50        -3.4015   0.0000                                         
   Description                                                                  
     l       E           TYP  RCUT    TYP  RCUT                                 
     0     -6.4927494     23  1.100                                             
     0      6.8029130     23  1.100                                             
     1     -4.0817478     23  1.100                                             
  local pseudopotential read in
  atomic valenz-charges read in
  non local Contribution for L=           0  read in
    real space projection operators read in
  non local Contribution for L=           0  read in
    real space projection operators read in
  non local Contribution for L=           1  read in
    real space projection operators read in
    PAW grid and wavefunctions read in

   number of l-projection  operators is LMAX  =           3
   number of lm-projection operators is LMMAX =           5

 POTCAR:    PAW_PBE C 08Apr2002                   
   VRHFIN =C: s2p2                                                              
   LEXCH  = PE                                                                  
   EATOM  =   147.1560 eV,   10.8157 Ry                                         
                                                                                
   TITEL  = PAW_PBE C 08Apr2002                                                 
   LULTRA =        F    use ultrasoft PP ?                                      
   IUNSCR =        1    unscreen: 0-lin 1-nonlin 2-no                           
   RPACOR =    1.200    partial core radius                                     
   POMASS =   12.011; ZVAL   =    4.000    mass and valenz                      
   RCORE  =    1.500    outmost cutoff radius                                   
   RWIGS  =    1.630; RWIGS  =    0.863    wigner-seitz radius (au A)           
   ENMAX  =  400.000; ENMIN  =  300.000 eV                                      
   ICORE  =        2    local potential                                         
   LCOR   =        T    correct aug charges                                     
   LPAW   =        T    paw PP                                                  
   EAUG   =  644.873                                                            
   DEXC   =    0.000                                                            
   RMAX   =    1.529    core radius for proj-oper                               
   RAUG   =    1.300    factor for augmentation sphere                          
   RDEP   =    1.501    radius for radial grids                                 
   RDEPT  =    1.300    core radius for aug-charge                              
                                                                                
   Atomic configuration                                                         
    4 entries                                                                   
     n  l   j            E        occ.                                          
     1  0  0.50      -273.3789   2.0000                                         
     2  0  0.50       -13.7508   2.0000                                         
     2  1  0.50        -5.2854   2.0000                                         
     3  2  1.50        -5.4423   0.0000                                         
   Description                                                                  
     l       E           TYP  RCUT    TYP  RCUT                                 
     0    -13.7508458     23  1.200                                             
     0     -8.2022199     23  1.200                                             
     1     -5.2854383     23  1.500                                             
     1     34.0145650     23  1.500                                             
     2     -5.4423304      7  1.500                                             
  local pseudopotential read in
  partial core-charges read in
  partial kinetic energy density read in
  atomic valenz-charges read in
  non local Contribution for L=           0  read in
    real space projection operators read in
  non local Contribution for L=           0  read in
    real space projection operators read in
  non local Contribution for L=           1  read in
    real space projection operators read in
  non local Contribution for L=           1  read in
    real space projection operators read in
    PAW grid and wavefunctions read in

   number of l-projection  operators is LMAX  =           4
   number of lm-projection operators is LMMAX =           8


 ----------------------------------------------------------------------------- 
|                                                                             |
|  ADVICE TO THIS USER RUNNING 'VASP/VAMP'   (HEAR YOUR MASTER'S VOICE ...):  |
|                                                                             |
|      You have a (more or less) 'small supercell' and for smaller cells      |
|      it is recommended  to use the reciprocal-space projection scheme!      |
|      The real space optimization is not  efficient for small cells and it   |
|      is also less accurate ...                                              |
|      Therefore set LREAL=.FALSE. in the  INCAR file                         |
|                                                                             |
 ----------------------------------------------------------------------------- 


 ----------------------------------------------------------------------------- 
|                                                                             |
|           W    W    AA    RRRRR   N    N  II  N    N   GGGG   !!!           |
|           W    W   A  A   R    R  NN   N  II  NN   N  G    G  !!!           |
|           W    W  A    A  R    R  N N  N  II  N N  N  G       !!!           |
|           W WW W  AAAAAA  RRRRR   N  N N  II  N  N N  G  GGG   !            |
|           WW  WW  A    A  R   R   N   NN  II  N   NN  G    G                |
|           W    W  A    A  R    R  N    N  II  N    N   GGGG   !!!           |
|                                                                             |
|     The real-space-projection scheme for the treatment of the nonlocal      |
|     pseudopotentials has been switched on -- but on file POTCAR I have      |
|     not found any entries signalling me that you have ever performed a      |
|     real-space optimization of all nonlocal projectors! BE WARNED that      |
|     a calculation using the real-space-projection scheme together with      |
|     nonlocal projectors which were not real-space-optimized (according      |
|     to the plane-wave-cutoff used in this calculation) might give more      |
|     or less inaccurate results                                              |
|     I hope you know what you are doing                                      |
|                                                                             |
 ----------------------------------------------------------------------------- 

  PAW_PBE H 15Jun2001                   :
 energy of atom  1       EATOM=  -12.4884
 kinetic energy error for atom=    0.0098 (will be added to EATOM!!)
  PAW_PBE C 08Apr2002                   :
 energy of atom  2       EATOM= -147.1560
 kinetic energy error for atom=    0.0288 (will be added to EATOM!!)


 POSCAR:  H  C                                   
  positions in cartesian coordinates
  No initial velocities read in
 exchange correlation table for  LEXCH =        8
   RHO(1)=    0.500       N(1)  =     2000
   RHO(2)=  100.500       N(2)  =     4000



--------------------------------------------------------------------------------------------------------


 ion  position               nearest neighbor table
   1  0.538  0.407  0.360-   5 1.12
   2  0.395  0.480  0.439-   5 1.13
   3  0.552  0.565  0.443-   5 1.07
   4  0.529  0.417  0.539-   5 1.11
   5  0.504  0.467  0.445-   3 1.07   4 1.11   1 1.12   2 1.13


IMPORTANT INFORMATION: All symmetrisations will be switched off!
NOSYMM: (Re-)initialisation of all symmetry stuff for point group C_1.




Automatic generation of k-mesh.
 generate k-points for:    2    2    2
Space group operators:
 irot       det(A)        alpha          n_x          n_y          n_z        tau_x        tau_y        tau_z
    1     1.000000     0.000001     1.000000     0.000000     0.000000     0.000000     0.000000     0.000000
 
 Subroutine IBZKPT returns following result:
 ===========================================
 
 Found      4 irreducible k-points:
 
 Following reciprocal coordinates:
            Coordinates               Weight
  0.250000  0.250000  0.250000      2.000000
 -0.250000  0.250000  0.250000      2.000000
  0.250000 -0.250000  0.250000      2.000000
 -0.250000 -0.250000  0.250000      2.000000
 
 Following cartesian coordinates:
            Coordinates               Weight
  0.024278  0.026358  0.024435      2.000000
 -0.024278  0.025008  0.024217      2.000000
  0.024278 -0.025008  0.024476      2.000000
 -0.024278 -0.026358  0.024259      2.000000
 


--------------------------------------------------------------------------------------------------------




 Dimension of arrays:
   k-points           NKPTS =      4   k-points in BZ     NKDIM =      4   number of bands    NBANDS=      8
   number of dos      NEDOS =    301   number of ions     NIONS =      5
   non local maximal  LDIM  =      4   non local SUM 2l+1 LMDIM =      8
   total plane-waves  NPLWV = 313600
   max r-space proj   IRMAX =    725   max aug-charges    IRDMAX=   3795
   dimension x,y,z NGX =    70 NGY =   64 NGZ =   70
   dimension x,y,z NGXF=   140 NGYF=  128 NGZF=  140
   support grid    NGXF=   140 NGYF=  128 NGZF=  140
   ions per type =               4   1
   NGX,Y,Z   is equivalent  to a cutoff of  11.30, 10.93, 11.33 a.u.
   NGXF,Y,Z  is equivalent  to a cutoff of  22.60, 21.85, 22.67 a.u.

 SYSTEM =  unknown system                          
 POSCAR =   H  C                                   

 Startparameter for this run:
   NWRITE =      2    write-flag & timer
   PREC   = a         normal or accurate (medium, high low for compatibility)
   ISTART =      0    job   : 0-new  1-cont  2-samecut
   ICHARG =      2    charge: 1-file 2-atom 10-const
   ISPIN  =      1    spin polarized calculation?
   LNONCOLLINEAR =      F non collinear calculations
   LSORBIT =      F    spin-orbit coupling
   INIWAV =      1    electr: 0-lowe 1-rand  2-diag
   LASPH  =      F    aspherical Exc in radial PAW
   METAGGA=      F    non-selfconsistent MetaGGA calc.

 Electronic Relaxation 1
   ENCUT  =  400.0 eV  29.40 Ry    5.42 a.u.  16.79 15.88 16.75*2*pi/ulx,y,z
   ENINI  =  400.0     initial cutoff
   ENAUG  =  644.9 eV  augmentation charge cutoff
   NELM   =     60;   NELMIN=  2; NELMDL= -5     # of ELM steps 
   EDIFF  = 0.1E-05   stopping-criterion for ELM
   LREAL  =      T    real-space projection
   NLSPLINE    = F    spline interpolate recip. space projectors
   LCOMPAT=      F    compatible to vasp.4.4
   GGA_COMPAT  = T    GGA compatible to vasp.4.4-vasp.4.6
   LMAXPAW     = -100 max onsite density
   LMAXMIX     =    2 max onsite mixed and CHGCAR
   VOSKOWN=      0    Vosko Wilk Nusair interpolation
   ROPT   =    0.00000   0.00000
 Ionic relaxation
   EDIFFG = 0.1E-04   stopping-criterion for IOM
   NSW    =     10    number of steps for IOM
   NBLOCK =      1;   KBLOCK =      1    inner block; outer block 
   IBRION =      0    ionic relax: 0-MD 1-quasi-New 2-CG
   NFREE  =      0    steps in history (QN), initial steepest desc. (CG)
   ISIF   =      2    stress and relaxation
   IWAVPR =     12    prediction:  0-non 1-charg 2-wave 3-comb
   ISYM   =      0    0-nonsym 1-usesym 2-fastsym
   LCORR  =      T    Harris-Foulkes like correction to forces

   POTIM  = 2.0000    time-step for ionic-motion
   TEIN   =   50.0    initial temperature
   TEBEG  =   50.0;   TEEND  =  50.0 temperature during run
   SMASS  =   0.00    Nose mass-parameter (am)
   estimated Nose-frequenzy (Omega)   =  0.79E+14 period in steps = 40.00 mass=   0.123E-29a.u.
   SCALEE = 1.0000    scale energy and forces
   NPACO  =    256;   APACO  = 16.0  distance and # of slots for P.C.
   PSTRESS=    0.0 pullay stress

  Mass of Ions in am
   POMASS =   1.00 12.01
  Ionic Valenz
   ZVAL   =   1.00  4.00
  Atomic Wigner-Seitz radii
   RWIGS  =  -1.00 -1.00
  virtual crystal weights 
   VCA    =   1.00  1.00
   NELECT =       8.0000    total number of electrons
   NUPDOWN=      -1.0000    fix difference up-down

 DOS related values:
   EMIN   =  10.00;   EMAX   =-10.00  energy-range for DOS
   EFERMI =   0.00
   ISMEAR =     1;   SIGMA  =   0.20  broadening in eV -4-tet -1-fermi 0-gaus

 Electronic relaxation 2 (details)
   IALGO  =     68    algorithm
   LDIAG  =      T    sub-space diagonalisation (order eigenvalues)
   LSUBROT=      F    optimize rotation matrix (better conditioning)
   TURBO    =      0    0=normal 1=particle mesh
   IRESTART =      0    0=no restart 2=restart with 2 vectors
   NREBOOT  =      0    no. of reboots
   NMIN     =      0    reboot dimension
   EREF     =   0.00    reference energy to select bands
   IMIX   =      4    mixing-type and parameters
     AMIX     =   0.40;   BMIX     =  1.00
     AMIX_MAG =   1.60;   BMIX_MAG =  1.00
     AMIN     =   0.10
     WC   =   100.;   INIMIX=   1;  MIXPRE=   1;  MAXMIX=  50

 Intra band minimization:
   WEIMIN = 0.0010     energy-eigenvalue tresh-hold
   EBREAK =  0.31E-07  absolut break condition
   DEPER  =   0.30     relativ break condition  

   TIME   =   0.40     timestep for ELM

  volume/ion in A,a.u.               =     205.85      1389.17
  Fermi-wavevector in a.u.,A,eV,Ry     =   0.324286  0.612812  1.430809  0.105162
  Thomas-Fermi vector in A             =   1.214278

 Write flags
   LWAVE        =      F    write WAVECAR
   LDOWNSAMPLE  =      F    k-point downsampling of WAVECAR
   LCHARG       =      F    write CHGCAR
   LVTOT        =      F    write LOCPOT, total local potential
   LVHAR        =      F    write LOCPOT, Hartree potential only
   LELF         =      F    write electronic localiz. function (ELF)
   LORBIT       =      0    0 simple, 1 ext, 2 COOP (PROOUT), +10 PAW based schemes


 Dipole corrections
   LMONO  =      F    monopole corrections only (constant potential shift)
   LDIPOL =      F    correct potential (dipole corrections)
   IDIPOL =      0    1-x, 2-y, 3-z, 4-all directions 
   EPSILON=  1.0000000 bulk dielectric constant

 Exchange correlation treatment:
   GGA     =    --    GGA type
   LEXCH   =     8    internal setting for exchange type
   VOSKOWN=      0    Vosko Wilk Nusair interpolation
   LHFCALC =     F    Hartree Fock is set to
   LHFONE  =     F    Hartree Fock one center treatment
   AEXX    =    0.0000 exact exchange contribution

 Linear response parameters
   LEPSILON=     F    determine dielectric tensor
   LRPA    =     F    only Hartree local field effects (RPA)
   LNABLA  =     F    use nabla operator in PAW spheres
   LVEL    =     F    velocity operator in full k-point grid
   LINTERFAST=   F  fast interpolation
   KINTER  =     0    interpolate to denser k-point grid
   CSHIFT  =0.1000    complex shift for real part using Kramers Kronig
   OMEGAMAX=  -1.0    maximum frequency
   DEG_THRESHOLD= 0.2000000E-02 threshold for treating states as degnerate
   RTIME   =   -0.100 relaxation time in fs
  (WPLASMAI=    0.000 imaginary part of plasma frequency in eV, 0.658/RTIME)
   DFIELD  = 0.0000000 0.0000000 0.0000000 field for delta impulse in time

 Orbital magnetization related:
   ORBITALMAG=     F  switch on orbital magnetization
   LCHIMAG   =     F  perturbation theory with respect to B field
   DQ        =  0.001000  dq finite difference perturbation B field
   LLRAUG    =     F  two centre corrections for induced B field



--------------------------------------------------------------------------------------------------------


 molecular dynamics for ions
   using nose mass (canonical ensemble)
 charge density and potential will be updated during run
 non-spin polarized calculation
 RMM-DIIS sequential band-by-band and
  variant of blocked Davidson during initial phase
 perform sub-space diagonalisation
    before iterative eigenvector-optimisation
 modified Broyden-mixing scheme, WC =      100.0
 initial mixing is a Kerker type mixing with AMIX =  0.4000 and BMIX =      1.0000
 Hartree-type preconditioning will be used
 using additional bands            4
 real space projection scheme for non local part
 use partial core corrections
 calculate Harris-corrections to forces   (improved forces if not selfconsistent)
 use gradient corrections 
 use of overlap-Matrix (Vanderbilt PP)
 Methfessel and Paxton  Order N= 1 SIGMA  =   0.20


--------------------------------------------------------------------------------------------------------


  energy-cutoff  :      400.00
  volume of cell :     1029.27
      direct lattice vectors                 reciprocal lattice vectors
    10.297442358  0.000000000  0.000000000     0.097111493  0.002700127  0.000435067
    -0.270653603  9.734199354  0.000000000     0.000000000  0.102730586 -0.000082301
    -0.046231646  0.008226269 10.268323551     0.000000000 -0.000000000  0.097386881

  length of vectors
    10.297442358  9.737961308 10.268430921     0.097149998  0.102730619  0.097386881



 k-points in units of 2pi/SCALE and weight: read from INCAR                         
   0.02427787  0.02635768  0.02443491       0.250
  -0.02427787  0.02500761  0.02421738       0.250
   0.02427787 -0.02500761  0.02447606       0.250
  -0.02427787 -0.02635768  0.02425853       0.250

 k-points in reciprocal lattice and weights: read from INCAR                         
   0.25000000  0.25000000  0.25000000       0.250
  -0.25000000  0.25000000  0.25000000       0.250
   0.25000000 -0.25000000  0.25000000       0.250
  -0.25000000 -0.25000000  0.25000000       0.250

 position of ions in fractional coordinates (direct lattice) 
   0.53835015  0.40732743  0.35999682
   0.39464327  0.48035892  0.43894712
   0.55201119  0.56535464  0.44283255
   0.52878873  0.41707781  0.53878133
   0.50354540  0.46701985  0.44528386

 position of ions in cartesian coordinates  (Angst):
   5.41674174  3.96796782  3.69656381
   3.91351217  4.67952038  4.50725103
   5.51081530  5.50691768  4.54714794
   5.30737907  4.06435073  5.53238106
   5.03824288  4.54972738  4.57231871



--------------------------------------------------------------------------------------------------------


 k-point  1 :   0.2500 0.2500 0.2500  plane waves:   18695
 k-point  2 :  -0.2500 0.2500 0.2500  plane waves:   18683
 k-point  3 :   0.2500-0.2500 0.2500  plane waves:   18673
 k-point  4 :  -0.2500-0.2500 0.2500  plane waves:   18699

 maximum and minimum number of plane-waves per node :     18699    18673

 maximum number of plane-waves:     18699
 maximum index in each direction: 
   IXMAX=   17   IYMAX=   16   IZMAX=   16
   IXMIN=  -17   IYMIN=  -16   IZMIN=  -16


 serial   3D FFT for wavefunctions
 parallel 3D FFT for charge:
    minimum data exchange during FFTs selected (reduces bandwidth)


 total amount of memory used by VASP MPI-rank0   280877. kBytes
=======================================================================

   base      :      30000. kBytes
   nonlr-proj:        148. kBytes
   fftplans  :      86584. kBytes
   grid      :     154542. kBytes
   one-center:         15. kBytes
   wavefun   :       9588. kBytes

     INWAV:  cpu time    0.0000: real time    0.0000
 Broyden mixing: mesh for mixing (old mesh)
   NGX = 33   NGY = 31   NGZ = 33
  (NGX  =140   NGY  =128   NGZ  =140)
  gives a total of  33759 points

 initial charge density was supplied:
 charge density of overlapping atoms calculated
 number of electron       8.0000000 magnetization 
 keeping initial charge density in first step


--------------------------------------------------------------------------------------------------------


 Maximum index for non-local projection operator          658
 Maximum index for augmentation-charges         3480 (set IRDMAX)


--------------------------------------------------------------------------------------------------------


 First call to EWALD:  gamma=   0.176
 Maximum number of real-space cells 3x 3x 3
 Maximum number of reciprocal cells 3x 3x 3

    FEWALD:  cpu time    0.0007: real time    0.0007


--------------------------------------- Iteration      1(   1)  ---------------------------------------


    POTLOK:  cpu time    1.5637: real time    1.5676
    SETDIJ:  cpu time    0.0065: real time    0.0065
     EDDAV:  cpu time    2.6007: real time    2.6068
       DOS:  cpu time    0.0003: real time    0.0003
    --------------------------------------------
      LOOP:  cpu time    4.1711: real time    4.1813

 eigenvalue-minimisations  :    96
 total energy-change (2. order) : 0.1133727E+02  (-0.1894951E+03)
 number of electron       8.0000000 magnetization 
 augmentation part        8.0000000 magnetization 

 Free energy of the ion-electron system (eV)
  ---------------------------------------------------
  alpha Z        PSCENC =         0.23536184
  Ewald energy   TEWEN  =       127.81204451
  -Hartree energ DENC   =      -244.06552799
  -exchange      EXHF   =         0.00000000
  -V(xc)+E(xc)   XCENC  =        21.95491245
  PAW double counting   =       117.05815612     -117.66307307
  entropy T*S    EENTRO =         0.00289895
  eigenvalues    EBANDS =       -91.03925650
  atomic energy  EATOM  =       197.04175453
  Solvation  Ediel_sol  =         0.00000000
  ---------------------------------------------------
  free energy    TOTEN  =        11.33727085 eV

  energy without entropy =       11.33437190  energy(sigma->0) =       11.33630453


--------------------------------------------------------------------------------------------------------




--------------------------------------- Iteration      1(   2)  ---------------------------------------


     EDDAV:  cpu time    2.0170: real time    2.0218
       DOS:  cpu time    0.0002: real time    0.0002
    --------------------------------------------
      LOOP:  cpu time    2.0172: real time    2.0221

 eigenvalue-minimisations  :    64
 total energy-change (2. order) :-0.3485746E+02  (-0.3485750E+02)
 number of electron       8.0000000 magnetization 
 augmentation part        8.0000000 magnetization 

 Free energy of the ion-electron system (eV)
  ---------------------------------------------------
  alpha Z        PSCENC =         0.23536184
  Ewald energy   TEWEN  =       127.81204451
  -Hartree energ DENC   =      -244.06552799
  -exchange      EXHF   =         0.00000000
  -V(xc)+E(xc)   XCENC  =        21.95491245
  PAW double counting   =       117.05815612     -117.66307307
  entropy T*S    EENTRO =         0.00317096
  eigenvalues    EBANDS =      -125.89699263
  atomic energy  EATOM  =       197.04175453
  Solvation  Ediel_sol  =         0.00000000
  ---------------------------------------------------
  free energy    TOTEN  =       -23.52019327 eV

  energy without entropy =      -23.52336424  energy(sigma->0) =      -23.52125026


--------------------------------------------------------------------------------------------------------




--------------------------------------- Iteration      1(   3)  ---------------------------------------


     EDDAV:  cpu time    2.0495: real time    2.0544
       DOS:  cpu time    0.0002: real time    0.0002
    --------------------------------------------
      LOOP:  cpu time    2.0498: real time    2.0546

 eigenvalue-minimisations  :    64
 total energy-change (2. order) :-0.3721069E+01  (-0.3731209E+01)
 number of electron       8.0000000 magnetization 
 augmentation part        8.0000000 magnetization 

 Free energy of the ion-electron system (eV)
  ---------------------------------------------------
  alpha Z        PSCENC =         0.23536184
  Ewald energy   TEWEN  =       127.81204451
  -Hartree energ DENC   =      -244.06552799
  -exchange      EXHF   =         0.00000000
  -V(xc)+E(xc)   XCENC  =        21.95491245
  PAW double counting   =       117.05815612     -117.66307307
  entropy T*S    EENTRO =         0.02046498
  eigenvalues    EBANDS =      -129.63535529
  atomic energy  EATOM  =       197.04175453
  Solvation  Ediel_sol  =         0.00000000
  ---------------------------------------------------
  free energy    TOTEN  =       -27.24126191 eV

  energy without entropy =      -27.26172689  energy(sigma->0) =      -27.24808357


--------------------------------------------------------------------------------------------------------




--------------------------------------- Iteration      1(   4)  ---------------------------------------


     EDDAV:  cpu time    3.6469: real time    3.6556
       DOS:  cpu time    0.0002: real time    0.0002
    --------------------------------------------
      LOOP:  cpu time    3.6471: real time    3.6558

 eigenvalue-minimisations  :   128
 total energy-change (2. order) :-0.1465191E+00  (-0.1465549E+00)
 number of electron       8.0000000 magnetization 
 augmentation part        8.0000000 magnetization 

 Free energy of the ion-electron system (eV)
  ---------------------------------------------------
  alpha Z        PSCENC =         0.23536184
  Ewald energy   TEWEN  =       127.81204451
  -Hartree energ DENC   =      -244.06552799
  -exchange      EXHF   =         0.00000000
  -V(xc)+E(xc)   XCENC  =        21.95491245
  PAW double counting   =       117.05815612     -117.66307307
  entropy T*S    EENTRO =         0.02049744
  eigenvalues    EBANDS =      -129.78190687
  atomic energy  EATOM  =       197.04175453
  Solvation  Ediel_sol  =         0.00000000
  ---------------------------------------------------
  free energy    TOTEN  =       -27.38778103 eV

  energy without entropy =      -27.40827847  energy(sigma->0) =      -27.39461351


--------------------------------------------------------------------------------------------------------




--------------------------------------- Iteration      1(   5)  ---------------------------------------


     EDDAV:  cpu time    2.6360: real time    2.6422
       DOS:  cpu time    0.0002: real time    0.0002
    CHARGE:  cpu time    0.1901: real time    0.1905
    MIXING:  cpu time    0.0403: real time    0.0404
    --------------------------------------------
      LOOP:  cpu time    2.8666: real time    2.8735

 eigenvalue-minimisations  :    88
 total energy-change (2. order) :-0.4389262E-04  (-0.4389203E-04)
 number of electron       8.0000002 magnetization 
 augmentation part        0.2210387 magnetization 

 Broyden mixing:
  rms(total) = 0.85344E+00    rms(broyden)= 0.85319E+00
  rms(prec ) = 0.12038E+01
  weight for this iteration     100.00

 Free energy of the ion-electron system (eV)
  ---------------------------------------------------
  alpha Z        PSCENC =         0.23536184
  Ewald energy   TEWEN  =       127.81204451
  -Hartree energ DENC   =      -244.06552799
  -exchange      EXHF   =         0.00000000
  -V(xc)+E(xc)   XCENC  =        21.95491245
  PAW double counting   =       117.05815612     -117.66307307
  entropy T*S    EENTRO =         0.02049751
  eigenvalues    EBANDS =      -129.78195083
  atomic energy  EATOM  =       197.04175453
  Solvation  Ediel_sol  =         0.00000000
  ---------------------------------------------------
  free energy    TOTEN  =       -27.38782492 eV

  energy without entropy =      -27.40832243  energy(sigma->0) =      -27.39465743


--------------------------------------------------------------------------------------------------------




--------------------------------------- Iteration      1(   6)  ---------------------------------------


    POTLOK:  cpu time    1.7070: real time    1.7111
    SETDIJ:  cpu time    0.0067: real time    0.0067
    EDDIAG:  cpu time    0.4590: real time    0.4600
  RMM-DIIS:  cpu time    1.3616: real time    1.3649
    ORTHCH:  cpu time    0.0128: real time    0.0128
       DOS:  cpu time    0.0002: real time    0.0002
    CHARGE:  cpu time    0.1826: real time    0.1830
    MIXING:  cpu time    0.0410: real time    0.0411
    --------------------------------------------
      LOOP:  cpu time    3.7709: real time    3.7798

 eigenvalue-minimisations  :    64
 total energy-change (2. order) : 0.2796680E+01  (-0.5107286E+00)
 number of electron       8.0000001 magnetization 
 augmentation part        0.1947899 magnetization 

 Broyden mixing:
  rms(total) = 0.41665E+00    rms(broyden)= 0.41653E+00
  rms(prec ) = 0.54096E+00
  weight for this iteration     100.00

 eigenvalues of (default mixing * dielectric matrix)
  average eigenvalue GAMMA=   1.2964
  1.2964

 Free energy of the ion-electron system (eV)
  ---------------------------------------------------
  alpha Z        PSCENC =         0.23536184
  Ewald energy   TEWEN  =       127.81204451
  -Hartree energ DENC   =      -263.43519835
  -exchange      EXHF   =         0.00000000
  -V(xc)+E(xc)   XCENC  =        23.13109799
  PAW double counting   =       228.00635493     -228.78120239
  entropy T*S    EENTRO =         0.03588976
  eigenvalues    EBANDS =      -108.63724801
  atomic energy  EATOM  =       197.04175453
  Solvation  Ediel_sol  =         0.00000000
  ---------------------------------------------------
  free energy    TOTEN  =       -24.59114519 eV

  energy without entropy =      -24.62703494  energy(sigma->0) =      -24.60310844


--------------------------------------------------------------------------------------------------------




--------------------------------------- Iteration      1(   7)  ---------------------------------------


    POTLOK:  cpu time    1.7088: real time    1.7129
    SETDIJ:  cpu time    0.0065: real time    0.0065
    EDDIAG:  cpu time    0.4281: real time    0.4291
  RMM-DIIS:  cpu time    1.4051: real time    1.4084
    ORTHCH:  cpu time    0.0124: real time    0.0124
       DOS:  cpu time    0.0002: real time    0.0002
    CHARGE:  cpu time    0.1885: real time    0.1890
    MIXING:  cpu time    0.0405: real time    0.0406
    --------------------------------------------
      LOOP:  cpu time    3.7901: real time    3.7990

 eigenvalue-minimisations  :    64
 total energy-change (2. order) : 0.4753176E+00  (-0.1115174E+00)
 number of electron       8.0000001 magnetization 
 augmentation part        0.1845687 magnetization 

 Broyden mixing:
  rms(total) = 0.22207E+00    rms(broyden)= 0.22198E+00
  rms(prec ) = 0.27085E+00
  weight for this iteration     100.00

 eigenvalues of (default mixing * dielectric matrix)
  average eigenvalue GAMMA=   1.7262
  1.4978  1.9545

 Free energy of the ion-electron system (eV)
  ---------------------------------------------------
  alpha Z        PSCENC =         0.23536184
  Ewald energy   TEWEN  =       127.81204451
  -Hartree energ DENC   =      -274.72675543
  -exchange      EXHF   =         0.00000000
  -V(xc)+E(xc)   XCENC  =        23.96384121
  PAW double counting   =       338.62227991     -339.43336586
  entropy T*S    EENTRO =         0.04051373
  eigenvalues    EBANDS =       -97.67150206
  atomic energy  EATOM  =       197.04175453
  Solvation  Ediel_sol  =         0.00000000
  ---------------------------------------------------
  free energy    TOTEN  =       -24.11582761 eV

  energy without entropy =      -24.15634134  energy(sigma->0) =      -24.12933219


--------------------------------------------------------------------------------------------------------




--------------------------------------- Iteration      1(   8)  ---------------------------------------


    POTLOK:  cpu time    1.7009: real time    1.7049
    SETDIJ:  cpu time    0.0064: real time    0.0064
    EDDIAG:  cpu time    0.4332: real time    0.4342
  RMM-DIIS:  cpu time    1.4596: real time    1.4631
    ORTHCH:  cpu time    0.0120: real time    0.0121
       DOS:  cpu time    0.0002: real time    0.0002
    CHARGE:  cpu time    0.1790: real time    0.1794
    MIXING:  cpu time    0.0413: real time    0.0414
    --------------------------------------------
      LOOP:  cpu time    3.8327: real time    3.8418

 eigenvalue-minimisations  :    64
 total energy-change (2. order) : 0.1312100E+00  (-0.1432911E-01)
 number of electron       8.0000001 magnetization 
 augmentation part        0.1835920 magnetization 

 Broyden mixing:
  rms(total) = 0.74905E-01    rms(broyden)= 0.74790E-01
  rms(prec ) = 0.10890E+00
  weight for this iteration     100.00

 eigenvalues of (default mixing * dielectric matrix)
  average eigenvalue GAMMA=   1.4126
  2.2206  1.4305  0.5869

 Free energy of the ion-electron system (eV)
  ---------------------------------------------------
  alpha Z        PSCENC =         0.23536184
  Ewald energy   TEWEN  =       127.81204451
  -Hartree energ DENC   =      -279.43307577
  -exchange      EXHF   =         0.00000000
  -V(xc)+E(xc)   XCENC  =        24.43274200
  PAW double counting   =       420.86642704     -421.64869671
  entropy T*S    EENTRO =         0.03968707
  eigenvalues    EBANDS =       -93.33086214
  atomic energy  EATOM  =       197.04175453
  Solvation  Ediel_sol  =         0.00000000
  ---------------------------------------------------
  free energy    TOTEN  =       -23.98461762 eV

  energy without entropy =      -24.02430469  energy(sigma->0) =      -23.99784664


--------------------------------------------------------------------------------------------------------




--------------------------------------- Iteration      1(   9)  ---------------------------------------


    POTLOK:  cpu time    1.6945: real time    1.6985
    SETDIJ:  cpu time    0.0065: real time    0.0065
    EDDIAG:  cpu time    0.4194: real time    0.4204
  RMM-DIIS:  cpu time    1.5201: real time    1.5237
    ORTHCH:  cpu time    0.0121: real time    0.0121
       DOS:  cpu time    0.0002: real time    0.0002
    CHARGE:  cpu time    0.1923: real time    0.1927
    MIXING:  cpu time    0.0445: real time    0.0446
    --------------------------------------------
      LOOP:  cpu time    3.8895: real time    3.8987

 eigenvalue-minimisations  :    64
 total energy-change (2. order) : 0.1855245E-01  (-0.1748813E-02)
 number of electron       8.0000001 magnetization 
 augmentation part        0.1831255 magnetization 

 Broyden mixing:
  rms(total) = 0.31228E-01    rms(broyden)= 0.31188E-01
  rms(prec ) = 0.54802E-01
  weight for this iteration     100.00

 eigenvalues of (default mixing * dielectric matrix)
  average eigenvalue GAMMA=   1.2781
  2.1885  1.4116  0.7562  0.7562

 Free energy of the ion-electron system (eV)
  ---------------------------------------------------
  alpha Z        PSCENC =         0.23536184
  Ewald energy   TEWEN  =       127.81204451
  -Hartree energ DENC   =      -280.71394923
  -exchange      EXHF   =         0.00000000
  -V(xc)+E(xc)   XCENC  =        24.53107097
  PAW double counting   =       433.31954524     -434.10043586
  entropy T*S    EENTRO =         0.04004163
  eigenvalues    EBANDS =       -92.13149880
  atomic energy  EATOM  =       197.04175453
  Solvation  Ediel_sol  =         0.00000000
  ---------------------------------------------------
  free energy    TOTEN  =       -23.96606517 eV

  energy without entropy =      -24.00610680  energy(sigma->0) =      -23.97941238


--------------------------------------------------------------------------------------------------------




--------------------------------------- Iteration      1(  10)  ---------------------------------------


    POTLOK:  cpu time    1.6657: real time    1.6697
    SETDIJ:  cpu time    0.0065: real time    0.0065
    EDDIAG:  cpu time    0.4132: real time    0.4142
  RMM-DIIS:  cpu time    1.5160: real time    1.5195
    ORTHCH:  cpu time    0.0123: real time    0.0123
       DOS:  cpu time    0.0002: real time    0.0002
    CHARGE:  cpu time    0.1897: real time    0.1902
    MIXING:  cpu time    0.0442: real time    0.0443
    --------------------------------------------
      LOOP:  cpu time    3.8477: real time    3.8569

 eigenvalue-minimisations  :    64
 total energy-change (2. order) : 0.2453060E-02  (-0.5230619E-03)
 number of electron       8.0000001 magnetization 
 augmentation part        0.1825475 magnetization 

 Broyden mixing:
  rms(total) = 0.19185E-01    rms(broyden)= 0.19099E-01
  rms(prec ) = 0.38284E-01
  weight for this iteration     100.00

 eigenvalues of (default mixing * dielectric matrix)
  average eigenvalue GAMMA=   1.3719
  2.0475  2.0475  1.3437  0.7104  0.7104

 Free energy of the ion-electron system (eV)
  ---------------------------------------------------
  alpha Z        PSCENC =         0.23536184
  Ewald energy   TEWEN  =       127.81204451
  -Hartree energ DENC   =      -281.51629728
  -exchange      EXHF   =         0.00000000
  -V(xc)+E(xc)   XCENC  =        24.56640332
  PAW double counting   =       432.33558810     -433.11866231
  entropy T*S    EENTRO =         0.03932190
  eigenvalues    EBANDS =       -91.35912673
  atomic energy  EATOM  =       197.04175453
  Solvation  Ediel_sol  =         0.00000000
  ---------------------------------------------------
  free energy    TOTEN  =       -23.96361211 eV

  energy without entropy =      -24.00293401  energy(sigma->0) =      -23.97671941


--------------------------------------------------------------------------------------------------------




--------------------------------------- Iteration      1(  11)  ---------------------------------------


    POTLOK:  cpu time    1.6473: real time    1.6511
    SETDIJ:  cpu time    0.0064: real time    0.0064
    EDDIAG:  cpu time    0.4225: real time    0.4236
  RMM-DIIS:  cpu time    1.5236: real time    1.5272
    ORTHCH:  cpu time    0.0124: real time    0.0124
       DOS:  cpu time    0.0002: real time    0.0002
    CHARGE:  cpu time    0.1895: real time    0.1900
    MIXING:  cpu time    0.0449: real time    0.0450
    --------------------------------------------
      LOOP:  cpu time    3.8468: real time    3.8559

 eigenvalue-minimisations  :    64
 total energy-change (2. order) : 0.3636425E-02  (-0.8347976E-03)
 number of electron       8.0000001 magnetization 
 augmentation part        0.1819803 magnetization 

 Broyden mixing:
  rms(total) = 0.11392E-01    rms(broyden)= 0.11389E-01
  rms(prec ) = 0.21336E-01
  weight for this iteration     100.00

 eigenvalues of (default mixing * dielectric matrix)
  average eigenvalue GAMMA=   1.5187
  2.9077  2.5218  1.1507  1.1507  0.6907  0.6907

 Free energy of the ion-electron system (eV)
  ---------------------------------------------------
  alpha Z        PSCENC =         0.23536184
  Ewald energy   TEWEN  =       127.81204451
  -Hartree energ DENC   =      -283.03386272
  -exchange      EXHF   =         0.00000000
  -V(xc)+E(xc)   XCENC  =        24.62695973
  PAW double counting   =       427.30164566     -428.08534917
  entropy T*S    EENTRO =         0.03957467
  eigenvalues    EBANDS =       -89.89810473
  atomic energy  EATOM  =       197.04175453
  Solvation  Ediel_sol  =         0.00000000
  ---------------------------------------------------
  free energy    TOTEN  =       -23.95997569 eV

  energy without entropy =      -23.99955035  energy(sigma->0) =      -23.97316724


--------------------------------------------------------------------------------------------------------




--------------------------------------- Iteration      1(  12)  ---------------------------------------


    POTLOK:  cpu time    1.5900: real time    1.5937
    SETDIJ:  cpu time    0.0064: real time    0.0064
    EDDIAG:  cpu time    0.4382: real time    0.4392
  RMM-DIIS:  cpu time    1.4895: real time    1.4930
    ORTHCH:  cpu time    0.0125: real time    0.0125
       DOS:  cpu time    0.0002: real time    0.0002
    CHARGE:  cpu time    0.1979: real time    0.1984
    MIXING:  cpu time    0.0463: real time    0.0464
    --------------------------------------------
      LOOP:  cpu time    3.7810: real time    3.7900

 eigenvalue-minimisations  :    64
 total energy-change (2. order) : 0.1791982E-02  (-0.9161551E-04)
 number of electron       8.0000001 magnetization 
 augmentation part        0.1819671 magnetization 

 Broyden mixing:
  rms(total) = 0.69961E-02    rms(broyden)= 0.69906E-02
  rms(prec ) = 0.13520E-01
  weight for this iteration     100.00

 eigenvalues of (default mixing * dielectric matrix)
  average eigenvalue GAMMA=   1.4783
  3.0648  2.4677  1.2817  1.2817  0.7064  0.7064  0.8394

 Free energy of the ion-electron system (eV)
  ---------------------------------------------------
  alpha Z        PSCENC =         0.23536184
  Ewald energy   TEWEN  =       127.81204451
  -Hartree energ DENC   =      -283.41078569
  -exchange      EXHF   =         0.00000000
  -V(xc)+E(xc)   XCENC  =        24.64241193
  PAW double counting   =       426.00454171     -426.78499742
  entropy T*S    EENTRO =         0.03956810
  eigenvalues    EBANDS =       -89.53808322
  atomic energy  EATOM  =       197.04175453
  Solvation  Ediel_sol  =         0.00000000
  ---------------------------------------------------
  free energy    TOTEN  =       -23.95818370 eV

  energy without entropy =      -23.99775180  energy(sigma->0) =      -23.97137307


--------------------------------------------------------------------------------------------------------




--------------------------------------- Iteration      1(  13)  ---------------------------------------


    POTLOK:  cpu time    1.5662: real time    1.5699
    SETDIJ:  cpu time    0.0064: real time    0.0064
    EDDIAG:  cpu time    0.4237: real time    0.4247
  RMM-DIIS:  cpu time    1.4921: real time    1.4956
    ORTHCH:  cpu time    0.0129: real time    0.0130
       DOS:  cpu time    0.0002: real time    0.0002
    CHARGE:  cpu time    0.1853: real time    0.1857
    MIXING:  cpu time    0.0456: real time    0.0457
    --------------------------------------------
      LOOP:  cpu time    3.7324: real time    3.7413

 eigenvalue-minimisations  :    64
 total energy-change (2. order) :-0.4465383E-02  (-0.1078404E-03)
 number of electron       8.0000001 magnetization 
 augmentation part        0.1820432 magnetization 

 Broyden mixing:
  rms(total) = 0.82832E-02    rms(broyden)= 0.82701E-02
  rms(prec ) = 0.12724E-01
  weight for this iteration     100.00

 eigenvalues of (default mixing * dielectric matrix)
  average eigenvalue GAMMA=   1.7250
  4.3458  2.5880  2.5880  1.2717  0.9995  0.6925  0.6925  0.6225

 Free energy of the ion-electron system (eV)
  ---------------------------------------------------
  alpha Z        PSCENC =         0.23536184
  Ewald energy   TEWEN  =       127.81204451
  -Hartree energ DENC   =      -283.59415520
  -exchange      EXHF   =         0.00000000
  -V(xc)+E(xc)   XCENC  =        24.64603348
  PAW double counting   =       425.80864324     -426.58791115
  entropy T*S    EENTRO =         0.03934402
  eigenvalues    EBANDS =       -89.36376437
  atomic energy  EATOM  =       197.04175453
  Solvation  Ediel_sol  =         0.00000000
  ---------------------------------------------------
  free energy    TOTEN  =       -23.96264909 eV

  energy without entropy =      -24.00199311  energy(sigma->0) =      -23.97576376


--------------------------------------------------------------------------------------------------------




--------------------------------------- Iteration      1(  14)  ---------------------------------------


    POTLOK:  cpu time    1.5153: real time    1.5189
    SETDIJ:  cpu time    0.0065: real time    0.0066
    EDDIAG:  cpu time    0.4227: real time    0.4237
  RMM-DIIS:  cpu time    1.4920: real time    1.4955
    ORTHCH:  cpu time    0.0129: real time    0.0130
       DOS:  cpu time    0.0002: real time    0.0002
    CHARGE:  cpu time    0.1900: real time    0.1904
    MIXING:  cpu time    0.0479: real time    0.0480
    --------------------------------------------
      LOOP:  cpu time    3.6876: real time    3.6963

 eigenvalue-minimisations  :    64
 total energy-change (2. order) :-0.4435397E-02  (-0.8366535E-04)
 number of electron       8.0000001 magnetization 
 augmentation part        0.1820559 magnetization 

 Broyden mixing:
  rms(total) = 0.68632E-02    rms(broyden)= 0.68622E-02
  rms(prec ) = 0.93702E-02
  weight for this iteration     100.00

 eigenvalues of (default mixing * dielectric matrix)
  average eigenvalue GAMMA=   1.6914
  4.7145  2.7034  2.2285  1.3292  1.3292  0.9128  0.7019  0.7019  0.6011

 Free energy of the ion-electron system (eV)
  ---------------------------------------------------
  alpha Z        PSCENC =         0.23536184
  Ewald energy   TEWEN  =       127.81204451
  -Hartree energ DENC   =      -283.79330381
  -exchange      EXHF   =         0.00000000
  -V(xc)+E(xc)   XCENC  =        24.64824224
  PAW double counting   =       425.53239912     -426.31154426
  entropy T*S    EENTRO =         0.03933991
  eigenvalues    EBANDS =       -89.17137857
  atomic energy  EATOM  =       197.04175453
  Solvation  Ediel_sol  =         0.00000000
  ---------------------------------------------------
  free energy    TOTEN  =       -23.96708448 eV

  energy without entropy =      -24.00642439  energy(sigma->0) =      -23.98019779


--------------------------------------------------------------------------------------------------------




--------------------------------------- Iteration      1(  15)  ---------------------------------------


    POTLOK:  cpu time    1.5222: real time    1.5258
    SETDIJ:  cpu time    0.0066: real time    0.0066
    EDDIAG:  cpu time    0.4507: real time    0.4518
  RMM-DIIS:  cpu time    1.4638: real time    1.4673
    ORTHCH:  cpu time    0.0120: real time    0.0121
       DOS:  cpu time    0.0002: real time    0.0002
    CHARGE:  cpu time    0.1929: real time    0.1934
    MIXING:  cpu time    0.0474: real time    0.0475
    --------------------------------------------
      LOOP:  cpu time    3.6960: real time    3.7047

 eigenvalue-minimisations  :    64
 total energy-change (2. order) :-0.1657655E-02  (-0.1387372E-03)
 number of electron       8.0000001 magnetization 
 augmentation part        0.1818547 magnetization 

 Broyden mixing:
  rms(total) = 0.51591E-02    rms(broyden)= 0.51491E-02
  rms(prec ) = 0.70632E-02
  weight for this iteration     100.00

 eigenvalues of (default mixing * dielectric matrix)
  average eigenvalue GAMMA=   1.8980
  5.6561  3.4751  2.2196  2.2196  1.2296  1.2296  0.9552  0.7022  0.7022  0.5909

 Free energy of the ion-electron system (eV)
  ---------------------------------------------------
  alpha Z        PSCENC =         0.23536184
  Ewald energy   TEWEN  =       127.81204451
  -Hartree energ DENC   =      -283.88875071
  -exchange      EXHF   =         0.00000000
  -V(xc)+E(xc)   XCENC  =        24.64536805
  PAW double counting   =       424.57521105     -425.35663389
  entropy T*S    EENTRO =         0.03954622
  eigenvalues    EBANDS =       -89.07264374
  atomic energy  EATOM  =       197.04175453
  Solvation  Ediel_sol  =         0.00000000
  ---------------------------------------------------
  free energy    TOTEN  =       -23.96874214 eV

  energy without entropy =      -24.00828836  energy(sigma->0) =      -23.98192421


--------------------------------------------------------------------------------------------------------




--------------------------------------- Iteration      1(  16)  ---------------------------------------


    POTLOK:  cpu time    1.4764: real time    1.4799
    SETDIJ:  cpu time    0.0064: real time    0.0065
    EDDIAG:  cpu time    0.4526: real time    0.4537
  RMM-DIIS:  cpu time    1.4971: real time    1.5006
    ORTHCH:  cpu time    0.0126: real time    0.0126
       DOS:  cpu time    0.0002: real time    0.0002
    CHARGE:  cpu time    0.1791: real time    0.1795
    MIXING:  cpu time    0.0475: real time    0.0476
    --------------------------------------------
      LOOP:  cpu time    3.6720: real time    3.6806

 eigenvalue-minimisations  :    64
 total energy-change (2. order) :-0.1725511E-02  (-0.5581764E-04)
 number of electron       8.0000001 magnetization 
 augmentation part        0.1819030 magnetization 

 Broyden mixing:
  rms(total) = 0.21041E-02    rms(broyden)= 0.21040E-02
  rms(prec ) = 0.28260E-02
  weight for this iteration     100.00

 eigenvalues of (default mixing * dielectric matrix)
  average eigenvalue GAMMA=   1.9707
  6.2856  3.9990  2.5986  2.1168  1.2651  1.2651  1.1379  1.0133  0.7022  0.7022
  0.5915

 Free energy of the ion-electron system (eV)
  ---------------------------------------------------
  alpha Z        PSCENC =         0.23536184
  Ewald energy   TEWEN  =       127.81204451
  -Hartree energ DENC   =      -283.75831336
  -exchange      EXHF   =         0.00000000
  -V(xc)+E(xc)   XCENC  =        24.63517732
  PAW double counting   =       424.93565145     -425.71594409
  entropy T*S    EENTRO =         0.03948494
  eigenvalues    EBANDS =       -89.19568479
  atomic energy  EATOM  =       197.04175453
  Solvation  Ediel_sol  =         0.00000000
  ---------------------------------------------------
  free energy    TOTEN  =       -23.97046765 eV

  energy without entropy =      -24.00995259  energy(sigma->0) =      -23.98362930


--------------------------------------------------------------------------------------------------------




--------------------------------------- Iteration      1(  17)  ---------------------------------------


    POTLOK:  cpu time    1.4668: real time    1.4703
    SETDIJ:  cpu time    0.0065: real time    0.0065
    EDDIAG:  cpu time    0.4562: real time    0.4573
  RMM-DIIS:  cpu time    1.4832: real time    1.4867
    ORTHCH:  cpu time    0.0122: real time    0.0123
       DOS:  cpu time    0.0002: real time    0.0002
    CHARGE:  cpu time    0.1698: real time    0.1702
    MIXING:  cpu time    0.0476: real time    0.0478
    --------------------------------------------
      LOOP:  cpu time    3.6426: real time    3.6512

 eigenvalue-minimisations  :    64
 total energy-change (2. order) :-0.3043776E-03  (-0.9393109E-05)
 number of electron       8.0000001 magnetization 
 augmentation part        0.1819218 magnetization 

 Broyden mixing:
  rms(total) = 0.10519E-02    rms(broyden)= 0.10493E-02
  rms(prec ) = 0.13651E-02
  weight for this iteration     100.00

 eigenvalues of (default mixing * dielectric matrix)
  average eigenvalue GAMMA=   2.0157
  6.9969  4.0897  2.5645  2.1535  2.0170  1.1940  1.1940  0.7023  0.7023  0.5923
  1.0440  0.9381

 Free energy of the ion-electron system (eV)
  ---------------------------------------------------
  alpha Z        PSCENC =         0.23536184
  Ewald energy   TEWEN  =       127.81204451
  -Hartree energ DENC   =      -283.80530289
  -exchange      EXHF   =         0.00000000
  -V(xc)+E(xc)   XCENC  =        24.63941955
  PAW double counting   =       425.78760814     -426.56757831
  entropy T*S    EENTRO =         0.03944754
  eigenvalues    EBANDS =       -89.15352695
  atomic energy  EATOM  =       197.04175453
  Solvation  Ediel_sol  =         0.00000000
  ---------------------------------------------------
  free energy    TOTEN  =       -23.97077203 eV

  energy without entropy =      -24.01021957  energy(sigma->0) =      -23.98392121


--------------------------------------------------------------------------------------------------------




--------------------------------------- Iteration      1(  18)  ---------------------------------------


    POTLOK:  cpu time    1.4815: real time    1.4850
    SETDIJ:  cpu time    0.0065: real time    0.0065
    EDDIAG:  cpu time    0.4601: real time    0.4612
  RMM-DIIS:  cpu time    1.5406: real time    1.5442
    ORTHCH:  cpu time    0.0119: real time    0.0119
       DOS:  cpu time    0.0002: real time    0.0002
    CHARGE:  cpu time    0.1757: real time    0.1761
    MIXING:  cpu time    0.0531: real time    0.0533
    --------------------------------------------
      LOOP:  cpu time    3.7295: real time    3.7384

 eigenvalue-minimisations  :    64
 total energy-change (2. order) :-0.1924050E-03  (-0.2273838E-05)
 number of electron       8.0000001 magnetization 
 augmentation part        0.1819068 magnetization 

 Broyden mixing:
  rms(total) = 0.55667E-03    rms(broyden)= 0.55658E-03
  rms(prec ) = 0.78483E-03
  weight for this iteration     100.00

 eigenvalues of (default mixing * dielectric matrix)
  average eigenvalue GAMMA=   2.1774
  7.8723  4.8865  3.1222  2.5075  1.8298  1.7018  1.2062  1.2062  0.7024  0.7024
  0.5919  1.0228  0.9548

 Free energy of the ion-electron system (eV)
  ---------------------------------------------------
  alpha Z        PSCENC =         0.23536184
  Ewald energy   TEWEN  =       127.81204451
  -Hartree energ DENC   =      -283.82185274
  -exchange      EXHF   =         0.00000000
  -V(xc)+E(xc)   XCENC  =        24.63924174
  PAW double counting   =       425.35233763     -426.13264839
  entropy T*S    EENTRO =         0.03946437
  eigenvalues    EBANDS =       -89.13666792
  atomic energy  EATOM  =       197.04175453
  Solvation  Ediel_sol  =         0.00000000
  ---------------------------------------------------
  free energy    TOTEN  =       -23.97096443 eV

  energy without entropy =      -24.01042880  energy(sigma->0) =      -23.98411922


--------------------------------------------------------------------------------------------------------




--------------------------------------- Iteration      1(  19)  ---------------------------------------


    POTLOK:  cpu time    1.4874: real time    1.4910
    SETDIJ:  cpu time    0.0065: real time    0.0065
    EDDIAG:  cpu time    0.4533: real time    0.4543
  RMM-DIIS:  cpu time    1.5589: real time    1.5626
    ORTHCH:  cpu time    0.0119: real time    0.0119
       DOS:  cpu time    0.0002: real time    0.0002
    CHARGE:  cpu time    0.1677: real time    0.1681
    MIXING:  cpu time    0.0512: real time    0.0513
    --------------------------------------------
      LOOP:  cpu time    3.7370: real time    3.7459

 eigenvalue-minimisations  :    64
 total energy-change (2. order) :-0.6899851E-04  (-0.6156577E-06)
 number of electron       8.0000001 magnetization 
 augmentation part        0.1819147 magnetization 

 Broyden mixing:
  rms(total) = 0.19992E-03    rms(broyden)= 0.19923E-03
  rms(prec ) = 0.27591E-03
  weight for this iteration     100.00

 eigenvalues of (default mixing * dielectric matrix)
  average eigenvalue GAMMA=   2.2076
  8.2983  5.0901  3.4619  2.4747  2.3365  1.4574  1.4574  1.1906  1.1906  0.7024
  0.7024  0.9760  0.9760  0.5917

 Free energy of the ion-electron system (eV)
  ---------------------------------------------------
  alpha Z        PSCENC =         0.23536184
  Ewald energy   TEWEN  =       127.81204451
  -Hartree energ DENC   =      -283.80728437
  -exchange      EXHF   =         0.00000000
  -V(xc)+E(xc)   XCENC  =        24.63842540
  PAW double counting   =       425.25722502     -426.03737365
  entropy T*S    EENTRO =         0.03945014
  eigenvalues    EBANDS =       -89.15063686
  atomic energy  EATOM  =       197.04175453
  Solvation  Ediel_sol  =         0.00000000
  ---------------------------------------------------
  free energy    TOTEN  =       -23.97103343 eV

  energy without entropy =      -24.01048357  energy(sigma->0) =      -23.98418348


--------------------------------------------------------------------------------------------------------




--------------------------------------- Iteration      1(  20)  ---------------------------------------


    POTLOK:  cpu time    1.5341: real time    1.5377
    SETDIJ:  cpu time    0.0065: real time    0.0065
    EDDIAG:  cpu time    0.4343: real time    0.4354
  RMM-DIIS:  cpu time    1.2173: real time    1.2201
    ORTHCH:  cpu time    0.0123: real time    0.0123
       DOS:  cpu time    0.0002: real time    0.0002
    CHARGE:  cpu time    0.1792: real time    0.1796
    MIXING:  cpu time    0.0525: real time    0.0526
    --------------------------------------------
      LOOP:  cpu time    3.4363: real time    3.4444

 eigenvalue-minimisations  :    48
 total energy-change (2. order) :-0.1601245E-04  (-0.2025463E-06)
 number of electron       8.0000001 magnetization 
 augmentation part        0.1819079 magnetization 

 Broyden mixing:
  rms(total) = 0.23098E-03    rms(broyden)= 0.23094E-03
  rms(prec ) = 0.31500E-03
  weight for this iteration     100.00

 eigenvalues of (default mixing * dielectric matrix)
  average eigenvalue GAMMA=   2.2381
  8.6166  5.3514  3.8441  2.6324  2.5397  1.8647  1.4756  1.1986  1.1986  0.7024
  0.7024  0.5917  0.9900  0.9900  0.8736

 Free energy of the ion-electron system (eV)
  ---------------------------------------------------
  alpha Z        PSCENC =         0.23536184
  Ewald energy   TEWEN  =       127.81204451
  -Hartree energ DENC   =      -283.81929915
  -exchange      EXHF   =         0.00000000
  -V(xc)+E(xc)   XCENC  =        24.63909281
  PAW double counting   =       425.31087541     -426.09113462
  entropy T*S    EENTRO =         0.03945658
  eigenvalues    EBANDS =       -89.13920135
  atomic energy  EATOM  =       197.04175453
  Solvation  Ediel_sol  =         0.00000000
  ---------------------------------------------------
  free energy    TOTEN  =       -23.97104944 eV

  energy without entropy =      -24.01050602  energy(sigma->0) =      -23.98420163


--------------------------------------------------------------------------------------------------------




--------------------------------------- Iteration      1(  21)  ---------------------------------------


    POTLOK:  cpu time    1.5526: real time    1.5563
    SETDIJ:  cpu time    0.0066: real time    0.0066
    EDDIAG:  cpu time    0.4533: real time    0.4544
  RMM-DIIS:  cpu time    1.1685: real time    1.1713
    ORTHCH:  cpu time    0.0132: real time    0.0132
       DOS:  cpu time    0.0002: real time    0.0002
    CHARGE:  cpu time    0.1853: real time    0.1857
    MIXING:  cpu time    0.0540: real time    0.0541
    --------------------------------------------
      LOOP:  cpu time    3.4336: real time    3.4417

 eigenvalue-minimisations  :    48
 total energy-change (2. order) :-0.5003413E-05  (-0.8817382E-07)
 number of electron       8.0000001 magnetization 
 augmentation part        0.1819118 magnetization 

 Broyden mixing:
  rms(total) = 0.52440E-04    rms(broyden)= 0.52367E-04
  rms(prec ) = 0.76126E-04
  weight for this iteration     100.00

 eigenvalues of (default mixing * dielectric matrix)
  average eigenvalue GAMMA=   2.2221
  8.6352  5.5091  3.6134  3.0359  2.3364  2.3364  0.7024  0.7024  0.5917  1.4171
  1.4171  1.1790  1.1790  0.9786  0.9786  0.9417

 Free energy of the ion-electron system (eV)
  ---------------------------------------------------
  alpha Z        PSCENC =         0.23536184
  Ewald energy   TEWEN  =       127.81204451
  -Hartree energ DENC   =      -283.81346701
  -exchange      EXHF   =         0.00000000
  -V(xc)+E(xc)   XCENC  =        24.63882110
  PAW double counting   =       425.33034697     -426.11052418
  entropy T*S    EENTRO =         0.03945609
  eigenvalues    EBANDS =       -89.14484830
  atomic energy  EATOM  =       197.04175453
  Solvation  Ediel_sol  =         0.00000000
  ---------------------------------------------------
  free energy    TOTEN  =       -23.97105445 eV

  energy without entropy =      -24.01051054  energy(sigma->0) =      -23.98420648


--------------------------------------------------------------------------------------------------------




--------------------------------------- Iteration      1(  22)  ---------------------------------------


    POTLOK:  cpu time    1.5562: real time    1.5599
    SETDIJ:  cpu time    0.0065: real time    0.0065
    EDDIAG:  cpu time    0.4377: real time    0.4388
  RMM-DIIS:  cpu time    1.1338: real time    1.1365
    ORTHCH:  cpu time    0.0120: real time    0.0120
       DOS:  cpu time    0.0002: real time    0.0002
    CHARGE:  cpu time    0.1695: real time    0.1699
    MIXING:  cpu time    0.0547: real time    0.0548
    --------------------------------------------
      LOOP:  cpu time    3.3707: real time    3.3786

 eigenvalue-minimisations  :    48
 total energy-change (2. order) :-0.1764528E-05  (-0.5668328E-07)
 number of electron       8.0000001 magnetization 
 augmentation part        0.1819159 magnetization 

 Broyden mixing:
  rms(total) = 0.11753E-03    rms(broyden)= 0.11751E-03
  rms(prec ) = 0.15940E-03
  weight for this iteration     100.00

 eigenvalues of (default mixing * dielectric matrix)
  average eigenvalue GAMMA=   2.2422
  8.7287  5.5065  4.3435  2.7565  2.7565  2.4462  1.9564  0.7024  0.7024  1.3126
  1.1925  1.1925  0.5917  1.0451  0.9635  0.9601  0.9601

 Free energy of the ion-electron system (eV)
  ---------------------------------------------------
  alpha Z        PSCENC =         0.23536184
  Ewald energy   TEWEN  =       127.81204451
  -Hartree energ DENC   =      -283.80929570
  -exchange      EXHF   =         0.00000000
  -V(xc)+E(xc)   XCENC  =        24.63855752
  PAW double counting   =       425.32828650     -426.10843480
  entropy T*S    EENTRO =         0.03945376
  eigenvalues    EBANDS =       -89.14878437
  atomic energy  EATOM  =       197.04175453
  Solvation  Ediel_sol  =         0.00000000
  ---------------------------------------------------
  free energy    TOTEN  =       -23.97105621 eV

  energy without entropy =      -24.01050997  energy(sigma->0) =      -23.98420746


--------------------------------------------------------------------------------------------------------




--------------------------------------- Iteration      1(  23)  ---------------------------------------


    POTLOK:  cpu time    1.5660: real time    1.5697
    SETDIJ:  cpu time    0.0064: real time    0.0064
    EDDIAG:  cpu time    0.4326: real time    0.4336
  RMM-DIIS:  cpu time    1.0980: real time    1.1006
    ORTHCH:  cpu time    0.0117: real time    0.0117
       DOS:  cpu time    0.0002: real time    0.0002
    --------------------------------------------
      LOOP:  cpu time    3.1149: real time    3.1222

 eigenvalue-minimisations  :    48
 total energy-change (2. order) :-0.7273148E-06  (-0.2498478E-07)
 number of electron       8.0000001 magnetization 
 augmentation part        0.1819159 magnetization 

 Free energy of the ion-electron system (eV)
  ---------------------------------------------------
  alpha Z        PSCENC =         0.23536184
  Ewald energy   TEWEN  =       127.81204451
  -Hartree energ DENC   =      -283.81391368
  -exchange      EXHF   =         0.00000000
  -V(xc)+E(xc)   XCENC  =        24.63877381
  PAW double counting   =       425.32234618     -426.10253529
  entropy T*S    EENTRO =         0.03945398
  eigenvalues    EBANDS =       -89.14434282
  atomic energy  EATOM  =       197.04175453
  Solvation  Ediel_sol  =         0.00000000
  ---------------------------------------------------
  free energy    TOTEN  =       -23.97105694 eV

  energy without entropy =      -24.01051092  energy(sigma->0) =      -23.98420827


--------------------------------------------------------------------------------------------------------




 average (electrostatic) potential at core
  the test charge radii are     0.5201  0.6991
  (the norm of the test charge is              1.0000)
       1 -41.3813       2 -41.3466       3 -41.6648       4 -41.3806       5 -58.0243



 E-fermi :  -9.0575     XC(G=0):  -0.6844     alpha+bet : -0.2047


 k-point     1 :       0.2500    0.2500    0.2500
  band No.  band energies     occupation 
      1     -16.8313      2.00000
      2      -9.2934      2.07025
      3      -9.2546      2.04714
      4      -9.1876      1.88277
      5      -0.3317      0.00000
      6       0.5383      0.00000
      7       0.6355      0.00000
      8       0.6937      0.00000

 k-point     2 :      -0.2500    0.2500    0.2500
  band No.  band energies     occupation 
      1     -16.8312      2.00000
      2      -9.2934      2.07024
      3      -9.2547      2.04716
      4      -9.1876      1.88259
      5      -0.3367      0.00000
      6       0.5389      0.00000
      7       0.6484      0.00000
      8       0.7133      0.00000

 k-point     3 :       0.2500   -0.2500    0.2500
  band No.  band energies     occupation 
      1     -16.8312      2.00000
      2      -9.2934      2.07024
      3      -9.2546      2.04710
      4      -9.1875      1.88227
      5      -0.3360      0.00000
      6       0.5384      0.00000
      7       0.6444      0.00000
      8       0.7129      0.00000

 k-point     4 :      -0.2500   -0.2500    0.2500
  band No.  band energies     occupation 
      1     -16.8313      2.00000
      2      -9.2934      2.07025
      3      -9.2547      2.04721
      4      -9.1876      1.88278
      5      -0.3324      0.00000
      6       0.5407      0.00000
      7       0.6400      0.00000
      8       0.6915      0.00000


--------------------------------------------------------------------------------------------------------


 soft charge-density along one line, spin component           1
         0         1         2         3         4         5         6         7         8         9
 total charge-density along one line

 pseudopotential strength for first ion, spin component:           1
 -2.340  -4.032  -0.001  -0.001   0.001
 -4.032  -6.862  -0.003  -0.004   0.002
 -0.001  -0.003  -0.338   0.002  -0.001
 -0.001  -0.004   0.002  -0.336  -0.001
  0.001   0.002  -0.001  -0.001  -0.338
 total augmentation occupancy for first ion, spin component:           1
  3.548  -0.657   0.211   0.371  -0.169
 -0.657   0.134  -0.041  -0.070   0.031
  0.211  -0.041   0.018   0.019  -0.008
  0.371  -0.070   0.019   0.043  -0.016
 -0.169   0.031  -0.008  -0.016   0.015


------------------------ aborting loop because EDIFF is reached ----------------------------------------


    CHARGE:  cpu time    0.1658: real time    0.1661
    FORLOC:  cpu time    0.1112: real time    0.1115
    FORNL :  cpu time    0.6034: real time    0.6049
    STRESS:  cpu time    1.9250: real time    1.9295
    FORCOR:  cpu time    1.6488: real time    1.6527
    FORHAR:  cpu time    0.5592: real time    0.5605
    MIXING:  cpu time    0.0591: real time    0.0592
    OFIELD:  cpu time    0.0000: real time    0.0000

  FORCE on cell =-STRESS in cart. coord.  units (eV):
  Direction    XX          YY          ZZ          XY          YZ          ZX
  --------------------------------------------------------------------------------------
  Alpha Z     0.23536     0.23536     0.23536
  Ewald      40.44702    45.23961    42.12538     0.51965    -0.09892    -0.57657
  Hartree    92.72452    97.49900    93.59082    -0.23566     0.05641    -0.27921
  E(xc)     -27.09090   -27.12322   -27.08522    -0.00195     0.00111    -0.00299
  Local    -192.20354  -200.99488  -195.03645    -0.41696    -0.03153     0.88256
  n-local   -15.71292   -15.73340   -16.30824    -0.62088    -0.29373     0.01713
  augment     0.12397     0.11233     0.12608     0.00120     0.00097    -0.00039
  Kinetic    99.91620   100.65709   100.88956     1.63014    -0.06190    -0.10338
  Fock        0.00000     0.00000     0.00000     0.00000     0.00000     0.00000
  -------------------------------------------------------------------------------------
  Total      -1.56029    -0.10811    -1.46271     0.87553    -0.42760    -0.06286
  in kB      -2.42877    -0.16828    -2.27687     1.36287    -0.66561    -0.09785
  external pressure =       -1.62 kB  Pullay stress =        0.00 kB

  kinetic pressure (ideal gas correction) =      0.03 kB
  total pressure  =     -1.60 kB
  Total+kin.    -2.393      -0.138      -2.262       1.376      -0.668      -0.103

 VOLUME and BASIS-vectors are now :
 -----------------------------------------------------------------------------
  energy-cutoff  :      400.00
  volume of cell :     1029.27
      direct lattice vectors                 reciprocal lattice vectors
    10.297442358  0.000000000  0.000000000     0.097111493  0.002700127  0.000435067
    -0.270653603  9.734199354  0.000000000     0.000000000  0.102730586 -0.000082301
    -0.046231646  0.008226269 10.268323551     0.000000000 -0.000000000  0.097386881

  length of vectors
    10.297442358  9.737961308 10.268430921     0.097149998  0.102730619  0.097386881


 FORCES acting on ions
    electron-ion (+dipol)            ewald-force                    non-local-force                 convergence-correction
 -----------------------------------------------------------------------------------------------
   -.176E+02 0.273E+02 0.404E+02   0.189E+02 -.296E+02 -.441E+02   -.196E+01 0.283E+01 0.405E+01   0.123E-04 0.127E-04 -.452E-04
   0.506E+02 -.599E+01 0.294E+01   -.545E+02 0.606E+01 -.318E+01   0.481E+01 -.259E+00 0.617E+00   -.244E-04 -.380E-05 -.155E-04
   -.237E+02 -.485E+02 0.126E+01   0.269E+02 0.547E+02 -.145E+01   -.255E+01 -.514E+01 0.179E+00   0.466E-04 0.292E-04 -.559E-05
   -.127E+02 0.232E+02 -.450E+02   0.137E+02 -.253E+02 0.494E+02   -.157E+01 0.186E+01 -.442E+01   0.199E-04 0.176E-04 0.351E-04
   0.447E+01 0.506E+01 0.652E+00   -.495E+01 -.588E+01 -.635E+00   -.958E+00 0.191E+00 -.265E+00   0.252E-03 0.257E-03 -.205E-03
 -----------------------------------------------------------------------------------------------
   0.107E+01 0.102E+01 0.219E+00   -.533E-14 0.355E-14 0.142E-13   -.222E+01 -.508E+00 0.168E+00   0.307E-03 0.313E-03 -.236E-03


 POSITION                                       TOTAL-FORCE (eV/Angst)
 -----------------------------------------------------------------------------------
      5.41674      3.96797      3.69656        -0.639927      0.523284      0.365222
      3.91351      4.67952      4.50725         0.842184     -0.197451      0.376388
      5.51082      5.50692      4.54715         0.701870      1.066151     -0.006741
      5.30738      4.06435      5.53238        -0.615135     -0.247306     -0.100416
      5.03824      4.54973      4.57232        -1.440441     -0.631910     -0.248141
 -----------------------------------------------------------------------------------
    total drift:                               -1.151448      0.512768      0.386312


--------------------------------------------------------------------------------------------------------



  FREE ENERGIE OF THE ION-ELECTRON SYSTEM (eV)
  ---------------------------------------------------
  free  energy   TOTEN  =       -23.97105694 eV

  energy  without entropy=      -24.01051092  energy(sigma->0) =      -23.98420827



--------------------------------------------------------------------------------------------------------


    POTLOK:  cpu time    1.6075: real time    1.6113


--------------------------------------------------------------------------------------------------------


           RANDOM_SEED =         578492921                0                0
           RANDOM_SEED =         578492921               30                0
   IONSTEP:  cpu time    0.0021: real time    0.0022

  ENERGY OF THE ELECTRON-ION-THERMOSTAT SYSTEM (eV)
  ---------------------------------------------------
% ion-electron   TOTEN  =       -23.971057  see above
  kinetic energy EKIN   =         0.061221
  kin. lattice  EKIN_LAT=         0.000000  (temperature  118.41 K)
  nose potential ES     =         0.000000
  nose kinetic   EPS    =         0.000151
  ---------------------------------------------------
  total energy   ETOTAL =       -23.909685 eV

  maximum distance moved by ions :      0.80E-02


 mean value of Nose-termostat <S>:     1.017 mean value of <T> :   118.407
 mean temperature <T/S>/<1/S>  :   118.407

    WAVPRE:  cpu time    0.4382: real time    0.4439
    FEWALD:  cpu time    0.0004: real time    0.0004
    ORTHCH:  cpu time    0.2028: real time    0.2033
     LOOP+:  cpu time   88.0964: real time   88.3121


--------------------------------------- Iteration      2(   1)  ---------------------------------------


    POTLOK:  cpu time    1.6263: real time    1.6303
    SETDIJ:  cpu time    0.0065: real time    0.0065
     EDDAV:  cpu time    1.9445: real time    1.9492
       DOS:  cpu time    0.0002: real time    0.0002
    CHARGE:  cpu time    0.1724: real time    0.1728
    MIXING:  cpu time    0.0417: real time    0.0418
    --------------------------------------------
      LOOP:  cpu time    3.7916: real time    3.8008

 eigenvalue-minimisations  :    64
 total energy-change (2. order) :-0.2982057E-01  (-0.4863230E+00)
 number of electron       8.0000002 magnetization 
 augmentation part        0.1812836 magnetization 

 Broyden mixing:
  rms(total) = 0.99736E-01    rms(broyden)= 0.99627E-01
  rms(prec ) = 0.11511E+00
  weight for this iteration     100.00

 Free energy of the ion-electron system (eV)
  ---------------------------------------------------
  alpha Z        PSCENC =         0.23536184
  Ewald energy   TEWEN  =       127.13563382
  -Hartree energ DENC   =      -283.37483865
  -exchange      EXHF   =         0.00000000
  -V(xc)+E(xc)   XCENC  =        24.61551436
  PAW double counting   =       425.32322891     -426.10342266
  entropy T*S    EENTRO =         0.01180498
  eigenvalues    EBANDS =       -88.88591391
  atomic energy  EATOM  =       197.04175453
  Solvation  Ediel_sol  =         0.00000000
  ---------------------------------------------------
  free energy    TOTEN  =       -24.00087678 eV

  energy without entropy =      -24.01268175  energy(sigma->0) =      -24.00481177


--------------------------------------------------------------------------------------------------------




--------------------------------------- Iteration      2(   2)  ---------------------------------------


    POTLOK:  cpu time    1.3975: real time    1.4008
    SETDIJ:  cpu time    0.0065: real time    0.0065
    EDDIAG:  cpu time    0.4370: real time    0.4380
  RMM-DIIS:  cpu time    1.4467: real time    1.4502
    ORTHCH:  cpu time    0.0118: real time    0.0118
       DOS:  cpu time    0.0002: real time    0.0002
    CHARGE:  cpu time    0.1807: real time    0.1811
    MIXING:  cpu time    0.0577: real time    0.0579
    --------------------------------------------
      LOOP:  cpu time    3.5382: real time    3.5465

 eigenvalue-minimisations  :    64
 total energy-change (2. order) : 0.1382556E-01  (-0.1379811E-01)
 number of electron       8.0000002 magnetization 
 augmentation part        0.1817890 magnetization 

 Broyden mixing:
  rms(total) = 0.67732E-01    rms(broyden)= 0.67708E-01
  rms(prec ) = 0.78884E-01
  weight for this iteration     100.00

 eigenvalues of (default mixing * dielectric matrix)
  average eigenvalue GAMMA=   2.2000
  8.7179  5.6005  4.4356  2.9617  2.9617  2.3791  2.0407  1.7694  0.7024  0.7024
  0.5917  1.3976  1.2365  1.2365  1.0791  1.0791  1.0233  0.9425  0.9425

 Free energy of the ion-electron system (eV)
  ---------------------------------------------------
  alpha Z        PSCENC =         0.23536184
  Ewald energy   TEWEN  =       127.13563382
  -Hartree energ DENC   =      -282.91988808
  -exchange      EXHF   =         0.00000000
  -V(xc)+E(xc)   XCENC  =        24.59534430
  PAW double counting   =       433.82437165     -434.60434059
  entropy T*S    EENTRO =         0.01219273
  eigenvalues    EBANDS =       -89.30748141
  atomic energy  EATOM  =       197.04175453
  Solvation  Ediel_sol  =         0.00000000
  ---------------------------------------------------
  free energy    TOTEN  =       -23.98705122 eV

  energy without entropy =      -23.99924394  energy(sigma->0) =      -23.99111546


--------------------------------------------------------------------------------------------------------




--------------------------------------- Iteration      2(   3)  ---------------------------------------


    POTLOK:  cpu time    1.3714: real time    1.3747
    SETDIJ:  cpu time    0.0065: real time    0.0065
    EDDIAG:  cpu time    0.4240: real time    0.4250
  RMM-DIIS:  cpu time    1.4920: real time    1.4958
    ORTHCH:  cpu time    0.0121: real time    0.0121
       DOS:  cpu time    0.0002: real time    0.0002
    CHARGE:  cpu time    0.1792: real time    0.1796
    MIXING:  cpu time    0.0622: real time    0.0623
    --------------------------------------------
      LOOP:  cpu time    3.5476: real time    3.5562

 eigenvalue-minimisations  :    64
 total energy-change (2. order) :-0.3213266E-01  (-0.1786407E-01)
 number of electron       8.0000002 magnetization 
 augmentation part        0.1787384 magnetization 

 Broyden mixing:
  rms(total) = 0.93859E-01    rms(broyden)= 0.93847E-01
  rms(prec ) = 0.12711E+00
  weight for this iteration     100.00

 eigenvalues of (default mixing * dielectric matrix)
  average eigenvalue GAMMA=   2.1914
  8.7195  5.6076  4.4386  3.0110  3.0110  2.5075  2.4046  2.0379  1.5044  0.7024
  0.7024  0.5917  1.2462  1.2462  1.0807  1.0807  1.0673  0.9482  0.9482  0.9721

 Free energy of the ion-electron system (eV)
  ---------------------------------------------------
  alpha Z        PSCENC =         0.23536184
[...]
  rms(prec ) = 0.38585E-03
  weight for this iteration     100.00

 eigenvalues of (default mixing * dielectric matrix)
  average eigenvalue GAMMA=   2.2333
  6.9746  6.9746  4.2853  4.2853  2.8676  2.8676  1.0243  1.0243  0.2842  0.3879
  3.3842  1.7742  1.7742  2.2692  2.2692  0.6934  1.1247  1.1247  0.8465  0.8465
  1.0153  1.0153  0.9891  1.2990  1.2990  1.1443  1.4044  1.4044  2.7416  2.7416
  2.9324  2.9324  3.0586  3.0586  1.9359  1.9359  2.0400  2.7737  2.7737  2.2315
  2.2760  2.6497  2.4205  2.5224  2.5224  2.5329

 Free energy of the ion-electron system (eV)
  ---------------------------------------------------
  alpha Z        PSCENC =         0.23536184
  Ewald energy   TEWEN  =       130.88723984
  -Hartree energ DENC   =      -286.53295919
  -exchange      EXHF   =         0.00000000
  -V(xc)+E(xc)   XCENC  =        24.78027359
  PAW double counting   =       439.90733806     -440.69990056
  entropy T*S    EENTRO =         0.01350787
  eigenvalues    EBANDS =       -89.68256881
  atomic energy  EATOM  =       197.04175453
  Solvation  Ediel_sol  =         0.00000000
  ---------------------------------------------------
  free energy    TOTEN  =       -24.04995283 eV

  energy without entropy =      -24.06346071  energy(sigma->0) =      -24.05445546


--------------------------------------------------------------------------------------------------------




--------------------------------------- Iteration     10(  12)  ---------------------------------------


    POTLOK:  cpu time    1.3760: real time    1.3792
    SETDIJ:  cpu time    0.0062: real time    0.0062
    EDDIAG:  cpu time    0.3092: real time    0.3100
  RMM-DIIS:  cpu time    1.1808: real time    1.1836
    ORTHCH:  cpu time    0.0118: real time    0.0119
       DOS:  cpu time    0.0002: real time    0.0002
    CHARGE:  cpu time    0.1296: real time    0.1299
    MIXING:  cpu time    0.1154: real time    0.1157
    --------------------------------------------
      LOOP:  cpu time    3.1293: real time    3.1367

 eigenvalue-minimisations  :    64
 total energy-change (2. order) :-0.1087908E-04  (-0.9846047E-06)
 number of electron       8.0000002 magnetization 
 augmentation part        0.1873982 magnetization 

 Broyden mixing:
  rms(total) = 0.72612E-03    rms(broyden)= 0.72604E-03
  rms(prec ) = 0.90815E-03
  weight for this iteration     100.00

 eigenvalues of (default mixing * dielectric matrix)
  average eigenvalue GAMMA=   2.2638
  7.2287  7.2287  5.3794  3.8890  2.9010  2.9010  1.0821  1.0821  0.2811  0.4068
  1.9184  1.9184  0.6798  1.0298  1.0298  0.8652  0.8652  0.9591  0.9591  1.0406
  1.0406  1.0320  1.2477  1.2477  2.1471  2.1471  3.3118  3.3118  3.2197  1.6405
  1.6405  2.8887  2.8887  2.8517  2.8517  2.9956  1.9303  1.9303  2.0739  2.2212
  2.7658  2.7658  2.4180  2.5031  2.5031  2.5326  2.6446

 Free energy of the ion-electron system (eV)
  ---------------------------------------------------
  alpha Z        PSCENC =         0.23536184
  Ewald energy   TEWEN  =       130.88723984
  -Hartree energ DENC   =      -286.53346621
  -exchange      EXHF   =         0.00000000
  -V(xc)+E(xc)   XCENC  =        24.78035248
  PAW double counting   =       439.92075068     -440.71329811
  entropy T*S    EENTRO =         0.01359436
  eigenvalues    EBANDS =       -89.68225313
  atomic energy  EATOM  =       197.04175453
  Solvation  Ediel_sol  =         0.00000000
  ---------------------------------------------------
  free energy    TOTEN  =       -24.04996371 eV

  energy without entropy =      -24.06355808  energy(sigma->0) =      -24.05449517


--------------------------------------------------------------------------------------------------------




--------------------------------------- Iteration     10(  13)  ---------------------------------------


    POTLOK:  cpu time    1.3914: real time    1.3947
    SETDIJ:  cpu time    0.0059: real time    0.0059
    EDDIAG:  cpu time    0.3109: real time    0.3116
  RMM-DIIS:  cpu time    1.1774: real time    1.1801
    ORTHCH:  cpu time    0.0111: real time    0.0112
       DOS:  cpu time    0.0002: real time    0.0002
    CHARGE:  cpu time    0.1378: real time    0.1382
    MIXING:  cpu time    0.1216: real time    0.1219
    --------------------------------------------
      LOOP:  cpu time    3.1563: real time    3.1638

 eigenvalue-minimisations  :    64
 total energy-change (2. order) :-0.5295705E-05  (-0.8957336E-06)
 number of electron       8.0000002 magnetization 
 augmentation part        0.1873982 magnetization 

 Broyden mixing:
  rms(total) = 0.30762E-03    rms(broyden)= 0.30748E-03
  rms(prec ) = 0.40849E-03
  weight for this iteration     100.00

 eigenvalues of (default mixing * dielectric matrix)
  average eigenvalue GAMMA=   2.2737
  7.0228  7.0228  6.2368  3.2366  3.2366  3.9303  3.5713  1.0395  1.0395  0.2899
  0.3686  0.9370  0.9370  1.8512  1.8512  1.3441  1.3441  0.6947  0.7158  0.8704
  1.0472  1.0472  0.9416  0.9416  1.1847  1.1847  3.2477  3.1580  3.1580  2.7517
  2.7517  2.8361  2.8361  1.5461  2.1635  2.1635  1.9128  1.9991  2.0347  2.0347
  2.7735  2.7735  2.2565  2.7295  2.4126  2.5079  2.6190  2.5841

 Free energy of the ion-electron system (eV)
  ---------------------------------------------------
  alpha Z        PSCENC =         0.23536184
  Ewald energy   TEWEN  =       130.88723984
  -Hartree energ DENC   =      -286.53371404
  -exchange      EXHF   =         0.00000000
  -V(xc)+E(xc)   XCENC  =        24.78030937
  PAW double counting   =       439.92974357     -440.72229634
  entropy T*S    EENTRO =         0.01349919
  eigenvalues    EBANDS =       -89.68186698
  atomic energy  EATOM  =       197.04175453
  Solvation  Ediel_sol  =         0.00000000
  ---------------------------------------------------
  free energy    TOTEN  =       -24.04996901 eV

  energy without entropy =      -24.06346820  energy(sigma->0) =      -24.05446874


--------------------------------------------------------------------------------------------------------




--------------------------------------- Iteration     10(  14)  ---------------------------------------


    POTLOK:  cpu time    1.3852: real time    1.3884
    SETDIJ:  cpu time    0.0065: real time    0.0065
    EDDIAG:  cpu time    0.3095: real time    0.3102
  RMM-DIIS:  cpu time    0.9421: real time    0.9443
    ORTHCH:  cpu time    0.0117: real time    0.0117
       DOS:  cpu time    0.0002: real time    0.0002
    CHARGE:  cpu time    0.1354: real time    0.1358
    MIXING:  cpu time    0.1261: real time    0.1264
    --------------------------------------------
      LOOP:  cpu time    2.9166: real time    2.9235

 eigenvalue-minimisations  :    48
 total energy-change (2. order) :-0.1970182E-05  (-0.2651052E-07)
 number of electron       8.0000002 magnetization 
 augmentation part        0.1873981 magnetization 

 Broyden mixing:
  rms(total) = 0.19469E-03    rms(broyden)= 0.19469E-03
  rms(prec ) = 0.26543E-03
  weight for this iteration     100.00

 eigenvalues of (default mixing * dielectric matrix)
  average eigenvalue GAMMA=   2.2867
  7.1029  7.1029  6.4030  4.3069  2.9264  2.9264  3.5570  3.2853  3.2853  1.9619
  1.9619  1.0286  1.0286  0.2757  3.1560  0.3629  2.7890  2.7890  2.2906  2.2906
  2.8626  2.8626  2.8955  2.7640  2.6803  2.6803  2.6133  2.6133  2.5003  2.4115
  2.2176  2.0511  1.9799  0.9179  0.9179  1.8623  1.2721  1.2721  1.5734  1.5734
  0.6943  0.7830  1.1730  1.1730  0.8612  0.9474  0.9474  1.0985  1.0186

 Free energy of the ion-electron system (eV)
  ---------------------------------------------------
  alpha Z        PSCENC =         0.23536184
  Ewald energy   TEWEN  =       130.88723984
  -Hartree energ DENC   =      -286.53365148
  -exchange      EXHF   =         0.00000000
  -V(xc)+E(xc)   XCENC  =        24.78030710
  PAW double counting   =       439.92288234     -440.71543280
  entropy T*S    EENTRO =         0.01351570
  eigenvalues    EBANDS =       -89.68194807
  atomic energy  EATOM  =       197.04175453
  Solvation  Ediel_sol  =         0.00000000
  ---------------------------------------------------
  free energy    TOTEN  =       -24.04997098 eV

  energy without entropy =      -24.06348668  energy(sigma->0) =      -24.05447621


--------------------------------------------------------------------------------------------------------




--------------------------------------- Iteration     10(  15)  ---------------------------------------


    POTLOK:  cpu time    1.4202: real time    1.4236
    SETDIJ:  cpu time    0.0062: real time    0.0062
    EDDIAG:  cpu time    0.2952: real time    0.2959
  RMM-DIIS:  cpu time    0.9172: real time    0.9194
    ORTHCH:  cpu time    0.0111: real time    0.0111
       DOS:  cpu time    0.0002: real time    0.0002
    --------------------------------------------
      LOOP:  cpu time    2.6501: real time    2.6564

 eigenvalue-minimisations  :    48
 total energy-change (2. order) :-0.6940427E-06  (-0.6916965E-07)
 number of electron       8.0000002 magnetization 
 augmentation part        0.1873981 magnetization 

 Free energy of the ion-electron system (eV)
  ---------------------------------------------------
  alpha Z        PSCENC =         0.23536184
  Ewald energy   TEWEN  =       130.88723984
  -Hartree energ DENC   =      -286.53364749
  -exchange      EXHF   =         0.00000000
  -V(xc)+E(xc)   XCENC  =        24.78030889
  PAW double counting   =       439.92380221     -440.71635498
  entropy T*S    EENTRO =         0.01353581
  eigenvalues    EBANDS =       -89.68197232
  atomic energy  EATOM  =       197.04175453
  Solvation  Ediel_sol  =         0.00000000
  ---------------------------------------------------
  free energy    TOTEN  =       -24.04997167 eV

  energy without entropy =      -24.06350748  energy(sigma->0) =      -24.05448361


--------------------------------------------------------------------------------------------------------




 average (electrostatic) potential at core
  the test charge radii are     0.5201  0.6991
  (the norm of the test charge is              1.0000)
       1 -41.5145       2 -41.7281       3 -41.5119       4 -41.3316       5 -57.9393



 E-fermi :  -8.8787     XC(G=0):  -0.6777     alpha+bet : -0.2047


 k-point     1 :       0.2500    0.2500    0.2500
  band No.  band energies     occupation 
      1     -16.9379      2.00000
      2      -9.5218      2.00005
      3      -9.3359      2.00570
      4      -9.0446      1.99430
      5      -0.3116      0.00000
      6       0.5490      0.00000
      7       0.6473      0.00000
      8       0.6933      0.00000

 k-point     2 :      -0.2500    0.2500    0.2500
  band No.  band energies     occupation 
      1     -16.9379      2.00000
      2      -9.5218      2.00005
      3      -9.3359      2.00571
      4      -9.0445      1.99424
      5      -0.3175      0.00000
      6       0.5505      0.00000
      7       0.6639      0.00000
      8       0.7153      0.00000

 k-point     3 :       0.2500   -0.2500    0.2500
  band No.  band energies     occupation 
      1     -16.9379      2.00000
      2      -9.5218      2.00005
      3      -9.3359      2.00571
      4      -9.0445      1.99408
      5      -0.3160      0.00000
      6       0.5474      0.00000
      7       0.6560      0.00000
      8       0.7165      0.00000

 k-point     4 :      -0.2500   -0.2500    0.2500
  band No.  band energies     occupation 
      1     -16.9379      2.00000
      2      -9.5219      2.00005
      3      -9.3360      2.00570
      4      -9.0446      1.99434
      5      -0.3116      0.00000
      6       0.5390      0.00000
      7       0.6605      0.00000
      8       0.6968      0.00000


--------------------------------------------------------------------------------------------------------


 soft charge-density along one line, spin component           1
         0         1         2         3         4         5         6         7         8         9
 total charge-density along one line

 pseudopotential strength for first ion, spin component:           1
 -2.341  -4.034  -0.001  -0.002   0.001
 -4.034  -6.865  -0.002  -0.005   0.002
 -0.001  -0.002  -0.338   0.002  -0.001
 -0.002  -0.005   0.002  -0.336  -0.002
  0.001   0.002  -0.001  -0.002  -0.338
 total augmentation occupancy for first ion, spin component:           1
  3.155  -0.492   0.170   0.375  -0.190
 -0.492   0.092  -0.029  -0.059   0.029
  0.170  -0.029   0.017   0.016  -0.008
  0.375  -0.059   0.016   0.049  -0.019
 -0.190   0.029  -0.008  -0.019   0.020


------------------------ aborting loop because EDIFF is reached ----------------------------------------


    CHARGE:  cpu time    0.1309: real time    0.1312
    FORLOC:  cpu time    0.1045: real time    0.1048
    FORNL :  cpu time    0.4988: real time    0.4999
    STRESS:  cpu time    1.5349: real time    1.5385
    FORCOR:  cpu time    1.5417: real time    1.5454
    FORHAR:  cpu time    0.5095: real time    0.5108
    MIXING:  cpu time    0.1226: real time    0.1228
    OFIELD:  cpu time    0.0000: real time    0.0000

  FORCE on cell =-STRESS in cart. coord.  units (eV):
  Direction    XX          YY          ZZ          XY          YZ          ZX
  --------------------------------------------------------------------------------------
  Alpha Z     0.23536     0.23536     0.23536
  Ewald      42.10743    46.77947    42.00029    -2.42203    -3.20047    -4.00061
  Hartree    92.73073    99.74214    94.06077    -1.06515    -1.11968    -1.06050
  E(xc)     -27.25887   -27.25678   -27.24094    -0.01084    -0.02175    -0.01949
  Local    -192.89660  -205.61040  -195.04482     3.19095     3.95034     4.29745
  n-local   -17.44616   -15.08698   -16.47437    -0.37085    -0.13356     0.27701
  augment     0.11784     0.12864     0.12938     0.00178     0.00196     0.00612
  Kinetic   101.71357   101.69444   100.66792     0.54294     1.03168     0.90710
  Fock        0.00000     0.00000     0.00000     0.00000     0.00000     0.00000
  -------------------------------------------------------------------------------------
  Total      -0.69670     0.62589    -1.66640    -0.13320     0.50853     0.40708
  in kB      -1.08450     0.97427    -2.59395    -0.20735     0.79158     0.63367
  external pressure =       -0.90 kB  Pullay stress =        0.00 kB

  kinetic pressure (ideal gas correction) =      0.08 kB
  total pressure  =     -0.82 kB
  Total+kin.    -1.034       1.056      -2.495      -0.253       0.825       0.614

 VOLUME and BASIS-vectors are now :
 -----------------------------------------------------------------------------
  energy-cutoff  :      400.00
  volume of cell :     1029.27
      direct lattice vectors                 reciprocal lattice vectors
    10.297442358  0.000000000  0.000000000     0.097111493  0.002700127  0.000435067
    -0.270653603  9.734199354  0.000000000     0.000000000  0.102730586 -0.000082301
    -0.046231646  0.008226269 10.268323551     0.000000000 -0.000000000  0.097386881

  length of vectors
    10.297442358  9.737961308 10.268430921     0.097149998  0.102730619  0.097386881


 FORCES acting on ions
    electron-ion (+dipol)            ewald-force                    non-local-force                 convergence-correction
 -----------------------------------------------------------------------------------------------
   -.199E+02 0.239E+02 0.428E+02   0.219E+02 -.266E+02 -.472E+02   -.213E+01 0.207E+01 0.457E+01   -.242E-03 0.451E-05 -.165E-03
   0.541E+02 -.414E+01 0.183E+01   -.610E+02 0.455E+01 -.221E+01   0.651E+01 -.705E+00 0.275E+00   -.484E-04 -.118E-03 -.277E-03
   -.195E+02 -.495E+02 0.864E+00   0.217E+02 0.549E+02 -.719E+00   -.247E+01 -.445E+01 0.214E+00   0.696E-04 -.576E-04 0.923E-04
   -.133E+02 0.253E+02 -.434E+02   0.145E+02 -.273E+02 0.470E+02   -.141E+01 0.231E+01 -.405E+01   0.683E-04 0.196E-03 0.283E-04
   -.225E+01 0.484E+01 -.268E+01   0.286E+01 -.542E+01 0.315E+01   0.195E+00 0.108E+01 0.409E-02   -.891E-03 -.657E-04 -.143E-02
 -----------------------------------------------------------------------------------------------
   -.885E+00 0.413E+00 -.503E+00   -.178E-14 -.355E-14 -.711E-14   0.684E+00 0.296E+00 0.101E+01   -.104E-02 -.403E-04 -.175E-02


 POSITION                                       TOTAL-FORCE (eV/Angst)
 -----------------------------------------------------------------------------------
      5.44873      4.05550      3.68382        -0.211018     -0.630076      0.168568
      3.97228      4.63406      4.53478        -0.428281     -0.297445     -0.101921
      5.43283      5.56273      4.55208        -0.241908      0.929987      0.358897
      5.32295      4.00399      5.50907        -0.126301      0.219160     -0.379978
      5.03588      4.54660      4.57262         0.805417      0.486709      0.463209
 -----------------------------------------------------------------------------------
    total drift:                               -0.202092      0.708335      0.508774


--------------------------------------------------------------------------------------------------------



  FREE ENERGIE OF THE ION-ELECTRON SYSTEM (eV)
  ---------------------------------------------------
  free  energy   TOTEN  =       -24.04997167 eV

  energy  without entropy=      -24.06350748  energy(sigma->0) =      -24.05448361

 d Force = 0.7111367E-01[-0.345E-01, 0.177E+00]  d Energy = 0.6439529E-01 0.672E-02
 d Force =-0.1890761E+01[-0.209E+01,-0.169E+01]  d Ewald  =-0.1889654E+01-0.111E-02


--------------------------------------------------------------------------------------------------------


    POTLOK:  cpu time    1.4957: real time    1.4993


--------------------------------------------------------------------------------------------------------


           RANDOM_SEED =         578492921               30                0
   IONSTEP:  cpu time    0.0001: real time    0.0001

  ENERGY OF THE ELECTRON-ION-THERMOSTAT SYSTEM (eV)
  ---------------------------------------------------
% ion-electron   TOTEN  =       -24.049972  see above
  kinetic energy EKIN   =         0.058331
  kin. lattice  EKIN_LAT=         0.000000  (temperature  112.82 K)
  nose potential ES     =         0.038368
  nose kinetic   EPS    =         0.040993
  ---------------------------------------------------
  total energy   ETOTAL =       -23.912280 eV

  maximum distance moved by ions :      0.45E-02


 mean value of Nose-termostat <S>:     2.431 mean value of <T> :   112.816
 mean temperature <T/S>/<1/S>  :   112.816

    WAVPRE:  cpu time    0.4437: real time    0.4516
    FEWALD:  cpu time    0.0004: real time    0.0004
    ORTHCH:  cpu time    0.1778: real time    0.1782
 Prediction of Wavefunctions ALPHA= 0.595 BETA=-0.502
    POTLOK:  cpu time    1.4669: real time    1.4704
    EDDIAG:  cpu time    0.3432: real time    0.3440
     LOOP+:  cpu time   54.5555: real time   54.6969
    4ORBIT:  cpu time    0.0000: real time    0.0000

 total amount of memory used by VASP MPI-rank0   300053. kBytes
=======================================================================

   base      :      30000. kBytes
   nonlr-proj:        148. kBytes
   fftplans  :      86584. kBytes
   grid      :     154542. kBytes
   one-center:         15. kBytes
   wavefun   :      28764. kBytes

  
  
 General timing and accounting informations for this job:
 ========================================================
  
                  Total CPU time used (sec):     1063.031
                            User time (sec):     1042.138
                          System time (sec):       20.893
                         Elapsed time (sec):     1067.823
  
                   Maximum memory used (kb):      465048.
                   Average memory used (kb):           0.
  
                          Minor page faults:      3523698
                          Major page faults:            0
                 Voluntary context switches:          424
