 running on    1 total cores
 distrk:  each k-point on    1 cores,    1 groups
 distr:  one band on    1 cores,    1 groups
 using from now: INCAR     
 vasp.5.4.4.18Apr17-6-g9f103f2a35 (build Jul 12 2018 13:43:46) complex           
 POSCAR found type information on POSCAR  H  C 
 POSCAR found :  2 types and       5 ions
 scaLAPACK will be used

 ----------------------------------------------------------------------------- 
|                                                                             |
|  ADVICE TO THIS USER RUNNING 'VASP/VAMP'   (HEAR YOUR MASTER'S VOICE ...):  |
|                                                                             |
|      You have a (more or less) 'small supercell' and for smaller cells      |
|      it is recommended  to use the reciprocal-space projection scheme!      |
|      The real space optimization is not  efficient for small cells and it   |
|      is also less accurate ...                                              |
|      Therefore set LREAL=.FALSE. in the  INCAR file                         |
|                                                                             |
 ----------------------------------------------------------------------------- 


 ----------------------------------------------------------------------------- 
|                                                                             |
|           W    W    AA    RRRRR   N    N  II  N    N   GGGG   !!!           |
|           W    W   A  A   R    R  NN   N  II  NN   N  G    G  !!!           |
|           W    W  A    A  R    R  N N  N  II  N N  N  G       !!!           |
|           W WW W  AAAAAA  RRRRR   N  N N  II  N  N N  G  GGG   !            |
|           WW  WW  A    A  R   R   N   NN  II  N   NN  G    G                |
|           W    W  A    A  R    R  N    N  II  N    N   GGGG   !!!           |
|                                                                             |
|     The real-space-projection scheme for the treatment of the nonlocal      |
|     pseudopotentials has been switched on -- but on file POTCAR I have      |
|     not found any entries signalling me that you have ever performed a      |
|     real-space optimization of all nonlocal projectors! BE WARNED that      |
|     a calculation using the real-space-projection scheme together with      |
|     nonlocal projectors which were not real-space-optimized (according      |
|     to the plane-wave-cutoff used in this calculation) might give more      |
|     or less inaccurate results                                              |
|     I hope you know what you are doing                                      |
|                                                                             |
 ----------------------------------------------------------------------------- 

 LDA part: xc-table for Pade appr. of Perdew
 generate k-points for:    2    2    2
 POSCAR, INCAR and KPOINTS ok, starting setup
 FFT: planning ...
 WAVECAR not read
 prediction of wavefunctions initialized - no I/O
 entering main loop
       N       E                     dE             d eps       ncg     rms          rms(c)
DAV:   1     0.113372708481E+02    0.11337E+02   -0.18950E+03    96   0.399E+02
DAV:   2    -0.235201932737E+02   -0.34857E+02   -0.34857E+02    64   0.112E+02
DAV:   3    -0.272412619115E+02   -0.37211E+01   -0.37312E+01    64   0.432E+01
DAV:   4    -0.273877810305E+02   -0.14652E+00   -0.14655E+00   128   0.931E+00
DAV:   5    -0.273878249232E+02   -0.43893E-04   -0.43892E-04    88   0.179E-01    0.853E+00
RMM:   6    -0.245911451860E+02    0.27967E+01   -0.51073E+00    64   0.138E+01    0.417E+00
RMM:   7    -0.241158276137E+02    0.47532E+00   -0.11152E+00    64   0.610E+00    0.222E+00
RMM:   8    -0.239846176203E+02    0.13121E+00   -0.14329E-01    64   0.262E+00    0.749E-01
RMM:   9    -0.239660651701E+02    0.18552E-01   -0.17488E-02    64   0.964E-01    0.312E-01
RMM:  10    -0.239636121106E+02    0.24531E-02   -0.52306E-03    64   0.416E-01    0.192E-01
RMM:  11    -0.239599756859E+02    0.36364E-02   -0.83480E-03    64   0.497E-01    0.114E-01
RMM:  12    -0.239581837037E+02    0.17920E-02   -0.91616E-04    64   0.220E-01    0.700E-02
RMM:  13    -0.239626490870E+02   -0.44654E-02   -0.10784E-03    64   0.214E-01    0.828E-02
RMM:  14    -0.239670844835E+02   -0.44354E-02   -0.83665E-04    64   0.173E-01    0.686E-02
RMM:  15    -0.239687421381E+02   -0.16577E-02   -0.13874E-03    64   0.218E-01    0.516E-02
RMM:  16    -0.239704676488E+02   -0.17255E-02   -0.55818E-04    64   0.136E-01    0.210E-02
RMM:  17    -0.239707720264E+02   -0.30438E-03   -0.93931E-05    64   0.665E-02    0.105E-02
RMM:  18    -0.239709644314E+02   -0.19240E-03   -0.22738E-05    64   0.306E-02    0.557E-03
RMM:  19    -0.239710334299E+02   -0.68999E-04   -0.61566E-06    64   0.135E-02    0.200E-03
RMM:  20    -0.239710494424E+02   -0.16012E-04   -0.20255E-06    48   0.854E-03    0.231E-03
RMM:  21    -0.239710544458E+02   -0.50034E-05   -0.88174E-07    48   0.575E-03    0.524E-04
RMM:  22    -0.239710562103E+02   -0.17645E-05   -0.56683E-07    48   0.506E-03    0.118E-03
RMM:  23    -0.239710569376E+02   -0.72731E-06   -0.24985E-07    48   0.321E-03
    1 T=   118. E= -.23909685E+02 F= -.23971057E+02 E0= -.23984208E+02  EK= 0.61221E-01 SP= 0.00E+00 SK= 0.15E-03
 bond charge predicted
       N       E                     dE             d eps       ncg     rms          rms(c)
DAV:   1    -0.240008767788E+02   -0.29821E-01   -0.48632E+00    64   0.204E+01    0.997E-01
RMM:   2    -0.239870512151E+02    0.13826E-01   -0.13798E-01    64   0.316E+00    0.677E-01
RMM:   3    -0.240191838773E+02   -0.32133E-01   -0.17864E-01    64   0.241E+00    0.939E-01
RMM:   4    -0.239936083561E+02    0.25576E-01   -0.14099E-01    64   0.211E+00    0.185E-01
RMM:   5    -0.239954516181E+02   -0.18433E-02   -0.17712E-02    64   0.846E-01    0.194E-01
RMM:   6    -0.239952205406E+02    0.23108E-03   -0.56772E-03    64   0.448E-01    0.659E-02
RMM:   7    -0.239953937115E+02   -0.17317E-03   -0.12945E-03    64   0.215E-01    0.544E-02
RMM:   8    -0.239956731128E+02   -0.27940E-03   -0.33074E-04    64   0.122E-01    0.491E-02
RMM:   9    -0.239958048573E+02   -0.13174E-03   -0.78979E-04    64   0.160E-01    0.171E-02
RMM:  10    -0.239958361186E+02   -0.31261E-04   -0.38255E-05    64   0.473E-02    0.214E-02
RMM:  11    -0.239958485314E+02   -0.12413E-04   -0.11391E-04    64   0.598E-02    0.540E-03
RMM:  12    -0.239958563217E+02   -0.77903E-05   -0.27021E-06    55   0.135E-02    0.573E-03
RMM:  13    -0.239958600469E+02   -0.37252E-05   -0.34769E-06    60   0.108E-02    0.155E-03
RMM:  14    -0.239958638038E+02   -0.37570E-05   -0.23081E-06    52   0.966E-03    0.177E-03
RMM:  15    -0.239958663470E+02   -0.25432E-05   -0.49932E-07    48   0.481E-03    0.420E-04
RMM:  16    -0.239958671926E+02   -0.84557E-06   -0.16608E-07    48   0.289E-03
    2 T=   121. E= -.23931053E+02 F= -.23995867E+02 E0= -.24001157E+02  EK= 0.62555E-01 SP= 0.87E-03 SK= 0.14E-02
 bond charge predicted
 prediction of wavefunctions
       N       E                     dE             d eps       ncg     rms          rms(c)
DAV:   1    -0.239710148167E+02    0.24852E-01   -0.25472E+00    64   0.155E+01    0.424E-01
RMM:   2    -0.239728244961E+02   -0.18097E-02   -0.67852E-02    64   0.199E+00    0.509E-01
RMM:   3    -0.239748850557E+02   -0.20606E-02   -0.71531E-03    64   0.647E-01    0.366E-01
RMM:   4    -0.239762109070E+02   -0.13259E-02   -0.27316E-03    64   0.348E-01    0.367E-01
RMM:   5    -0.239727821587E+02    0.34287E-02   -0.58854E-03    64   0.436E-01    0.186E-01
RMM:   6    -0.239721083525E+02    0.67381E-03   -0.20660E-03    64   0.276E-01    0.100E-01
RMM:   7    -0.239719166580E+02    0.19169E-03   -0.15606E-03    64   0.243E-01    0.185E-02
RMM:   8    -0.239719774880E+02   -0.60830E-04   -0.14752E-04    64   0.849E-02    0.612E-03
RMM:   9    -0.239720103047E+02   -0.32817E-04   -0.22256E-05    64   0.329E-02    0.347E-03
RMM:  10    -0.239720224434E+02   -0.12139E-04   -0.59700E-06    64   0.147E-02    0.519E-03
RMM:  11    -0.239720315896E+02   -0.91462E-05   -0.82394E-07    48   0.649E-03    0.470E-03
RMM:  12    -0.239720369014E+02   -0.53118E-05   -0.34495E-06    60   0.111E-02    0.146E-03
RMM:  13    -0.239720386902E+02   -0.17888E-05   -0.32556E-07    48   0.462E-03    0.714E-04
RMM:  14    -0.239720398683E+02   -0.11780E-05   -0.13206E-06    48   0.758E-03    0.185E-03
RMM:  15    -0.239720401453E+02   -0.27704E-06   -0.15534E-07    48   0.350E-03
    3 T=   107. E= -.23910412E+02 F= -.23972040E+02 E0= -.23975929E+02  EK= 0.55366E-01 SP= 0.26E-02 SK= 0.36E-02
 bond charge predicted
 prediction of wavefunctions
       N       E                     dE             d eps       ncg     rms          rms(c)
DAV:   1    -0.239838503551E+02   -0.11810E-01   -0.76694E-01    64   0.918E+00    0.784E-01
RMM:   2    -0.240213282716E+02   -0.37478E-01   -0.22409E-01    64   0.328E+00    0.115E+00
RMM:   3    -0.240022045022E+02    0.19124E-01   -0.20357E-01    64   0.267E+00    0.749E-01
RMM:   4    -0.239865816969E+02    0.15623E-01   -0.16677E-02    64   0.893E-01    0.441E-01
RMM:   5    -0.239824671100E+02    0.41146E-02   -0.55333E-03    64   0.479E-01    0.315E-01
RMM:   6    -0.239795091729E+02    0.29579E-02   -0.66911E-03    64   0.524E-01    0.124E-01
RMM:   7    -0.239796848233E+02   -0.17565E-03   -0.83311E-04    64   0.195E-01    0.127E-01
RMM:   8    -0.239793249930E+02    0.35983E-03   -0.11802E-03    64   0.214E-01    0.451E-02
RMM:   9    -0.239793516478E+02   -0.26655E-04   -0.58842E-04    64   0.152E-01    0.184E-02
RMM:  10    -0.239793778917E+02   -0.26244E-04   -0.32982E-05    64   0.432E-02    0.560E-03
RMM:  11    -0.239793891729E+02   -0.11281E-04   -0.18609E-05    64   0.275E-02    0.553E-03
RMM:  12    -0.239793966498E+02   -0.74768E-05   -0.12903E-05    64   0.210E-02    0.321E-03
RMM:  13    -0.239794014659E+02   -0.48161E-05   -0.74656E-07    48   0.617E-03    0.192E-03
RMM:  14    -0.239794026047E+02   -0.11389E-05   -0.21365E-07    48   0.322E-03    0.170E-03
RMM:  15    -0.239794030950E+02   -0.49027E-06   -0.87249E-08    44   0.223E-03
    4 T=   144. E= -.23891992E+02 F= -.23979403E+02 E0= -.23983549E+02  EK= 0.74574E-01 SP= 0.51E-02 SK= 0.77E-02
 bond charge predicted
 prediction of wavefunctions
       N       E                     dE             d eps       ncg     rms          rms(c)
DAV:   1    -0.239666355234E+02    0.12767E-01   -0.11486E+00    64   0.108E+01    0.499E-01
RMM:   2    -0.240149709687E+02   -0.48335E-01   -0.22382E-01    64   0.307E+00    0.131E+00
RMM:   3    -0.240465009445E+02   -0.31530E-01   -0.10362E-01    64   0.200E+00    0.179E+00
RMM:   4    -0.239674086954E+02    0.79092E-01   -0.38482E-01    64   0.358E+00    0.419E-01
RMM:   5    -0.239648228275E+02    0.25859E-02   -0.13655E-02    64   0.871E-01    0.154E-01
RMM:   6    -0.239656287673E+02   -0.80594E-03   -0.90366E-03    64   0.588E-01    0.133E-01
RMM:   7    -0.239650433559E+02    0.58541E-03   -0.29081E-03    64   0.324E-01    0.550E-02
RMM:   8    -0.239651428597E+02   -0.99504E-04   -0.15458E-04    64   0.961E-02    0.659E-02
RMM:   9    -0.239652042819E+02   -0.61422E-04   -0.17141E-04    64   0.804E-02    0.431E-02
RMM:  10    -0.239652068050E+02   -0.25230E-05   -0.85766E-05    64   0.551E-02    0.210E-02
RMM:  11    -0.239652381562E+02   -0.31351E-04   -0.86043E-05    64   0.538E-02    0.369E-02
RMM:  12    -0.239652376383E+02    0.51788E-06   -0.16455E-05    64   0.264E-02    0.108E-02
RMM:  13    -0.239652536442E+02   -0.16006E-04   -0.60751E-06    64   0.152E-02    0.484E-03
RMM:  14    -0.239652576585E+02   -0.40142E-05   -0.22258E-06    52   0.101E-02    0.233E-03
RMM:  15    -0.239652592088E+02   -0.15504E-05   -0.54335E-07    48   0.597E-03    0.199E-03
RMM:  16    -0.239652597029E+02   -0.49403E-06   -0.24872E-07    48   0.398E-03
    5 T=   108. E= -.23887158E+02 F= -.23965260E+02 E0= -.23973272E+02  EK= 0.56083E-01 SP= 0.88E-02 SK= 0.13E-01
 bond charge predicted
 prediction of wavefunctions
       N       E                     dE             d eps       ncg     rms          rms(c)
DAV:   1    -0.240308425166E+02   -0.65583E-01   -0.92767E-01    64   0.859E+00    0.512E-01
RMM:   2    -0.240238551626E+02    0.69874E-02   -0.76875E-02    64   0.206E+00    0.359E-01
RMM:   3    -0.240278594106E+02   -0.40042E-02   -0.89467E-03    64   0.683E-01    0.335E-01
RMM:   4    -0.240275747487E+02    0.28466E-03   -0.23803E-03    64   0.311E-01    0.282E-01
RMM:   5    -0.240265491716E+02    0.10256E-02   -0.44756E-03    64   0.404E-01    0.151E-01
RMM:   6    -0.240264124760E+02    0.13670E-03   -0.11703E-03    64   0.217E-01    0.126E-01
RMM:   7    -0.240261965799E+02    0.21590E-03   -0.28871E-04    64   0.112E-01    0.119E-01
RMM:   8    -0.240261610012E+02    0.35579E-04   -0.15158E-05    64   0.312E-02    0.118E-01
RMM:   9    -0.240262088461E+02   -0.47845E-04   -0.12544E-05    64   0.223E-02    0.120E-01
RMM:  10    -0.240260096342E+02    0.19921E-03   -0.79445E-05    64   0.559E-02    0.119E-01
RMM:  11    -0.240262473749E+02   -0.23774E-03   -0.13209E-04    64   0.711E-02    0.118E-01
RMM:  12    -0.240258563076E+02    0.39107E-03   -0.32240E-04    64   0.112E-01    0.120E-01
RMM:  13    -0.240258323332E+02    0.23974E-04   -0.85947E-06    64   0.221E-02    0.119E-01
RMM:  14    -0.240258057761E+02    0.26557E-04   -0.23488E-06    52   0.107E-02    0.119E-01
RMM:  15    -0.240257743668E+02    0.31409E-04   -0.25514E-06    52   0.112E-02    0.119E-01
RMM:  16    -0.240240675699E+02    0.17068E-02   -0.26273E-03    64   0.328E-01    0.191E-01
RMM:  17    -0.240240876193E+02   -0.20049E-04   -0.59251E-05    64   0.672E-02    0.186E-01
RMM:  18    -0.240239209428E+02    0.16668E-03   -0.34768E-05    64   0.400E-02    0.195E-01
RMM:  19    -0.240242303971E+02   -0.30945E-03   -0.10716E-04    64   0.633E-02    0.178E-01
RMM:  20    -0.240252593010E+02   -0.10289E-02   -0.14110E-03    64   0.235E-01    0.116E-01
RMM:  21    -0.240256134633E+02   -0.35416E-03   -0.54088E-04    64   0.142E-01    0.124E-01
RMM:  22    -0.240266356276E+02   -0.10222E-02   -0.24433E-03    64   0.313E-01    0.136E-01
RMM:  23    -0.240272085089E+02   -0.57288E-03   -0.45980E-04    64   0.140E-01    0.159E-01
RMM:  24    -0.240269513587E+02    0.25715E-03   -0.53818E-05    64   0.516E-02    0.146E-01
RMM:  25    -0.240262473671E+02    0.70399E-03   -0.71124E-04    64   0.166E-01    0.116E-01
RMM:  26    -0.240257256868E+02    0.52168E-03   -0.61644E-04    64   0.157E-01    0.110E-01
RMM:  27    -0.240257280585E+02   -0.23717E-05   -0.14541E-05    64   0.331E-02    0.109E-01
RMM:  28    -0.240257482174E+02   -0.20159E-04   -0.27126E-06    56   0.124E-02    0.108E-01
RMM:  29    -0.240257259850E+02    0.22232E-04   -0.23578E-06    52   0.106E-02    0.109E-01
RMM:  30    -0.240258483875E+02   -0.12240E-03   -0.29207E-05    64   0.333E-02    0.107E-01
RMM:  31    -0.240258541652E+02   -0.57776E-05   -0.11737E-06    48   0.836E-03    0.108E-01
RMM:  32    -0.240254454973E+02    0.40867E-03   -0.28990E-04    64   0.107E-01    0.115E-01
RMM:  33    -0.240255016946E+02   -0.56197E-04   -0.62432E-06    64   0.221E-02    0.111E-01
RMM:  34    -0.240257485364E+02   -0.24684E-03   -0.12307E-04    64   0.689E-02    0.105E-01
RMM:  35    -0.240267994110E+02   -0.10509E-02   -0.19567E-03    64   0.275E-01    0.129E-01
RMM:  36    -0.240264942234E+02    0.30519E-03   -0.11885E-04    64   0.781E-02    0.114E-01
RMM:  37    -0.240261767229E+02    0.31750E-03   -0.18785E-04    64   0.847E-02    0.106E-01
RMM:  38    -0.240261359213E+02    0.40802E-04   -0.11396E-05    64   0.223E-02    0.106E-01
RMM:  39    -0.240261470622E+02   -0.11141E-04   -0.38249E-07    48   0.591E-03    0.106E-01
RMM:  40    -0.240261042219E+02    0.42840E-04   -0.36953E-06    60   0.122E-02    0.105E-01
RMM:  41    -0.240260576869E+02    0.46535E-04   -0.53644E-06    64   0.150E-02    0.105E-01
RMM:  42    -0.240261128762E+02   -0.55189E-04   -0.62149E-06    64   0.154E-02    0.105E-01
RMM:  43    -0.240260826684E+02    0.30208E-04   -0.14439E-06    48   0.808E-03    0.104E-01
RMM:  44    -0.240261016221E+02   -0.18954E-04   -0.86050E-07    48   0.621E-03    0.104E-01
RMM:  45    -0.240259111926E+02    0.19043E-03   -0.66305E-05    64   0.509E-02    0.103E-01
RMM:  46    -0.240255001998E+02    0.41099E-03   -0.34286E-04    64   0.114E-01    0.113E-01
RMM:  47    -0.240258236688E+02   -0.32347E-03   -0.17004E-04    64   0.838E-02    0.104E-01
RMM:  48    -0.240268306193E+02   -0.10070E-02   -0.17453E-03    64   0.260E-01    0.130E-01
RMM:  49    -0.240275271483E+02   -0.69653E-03   -0.57716E-04    64   0.153E-01    0.162E-01
RMM:  50    -0.240276533060E+02   -0.12616E-03   -0.43752E-05    64   0.470E-02    0.167E-01
RMM:  51    -0.240276622252E+02   -0.89192E-05   -0.41839E-06    60   0.156E-02    0.167E-01
RMM:  52    -0.240278824935E+02   -0.22027E-03   -0.35450E-05    64   0.378E-02    0.178E-01
RMM:  53    -0.240278839109E+02   -0.14174E-05   -0.79306E-07    48   0.790E-03    0.178E-01
RMM:  54    -0.240279099742E+02   -0.26063E-04   -0.87689E-07    48   0.706E-03    0.179E-01
RMM:  55    -0.240278991901E+02    0.10784E-04   -0.29355E-07    48   0.414E-03    0.179E-01
RMM:  56    -0.240273067447E+02    0.59245E-03   -0.26102E-04    64   0.993E-02    0.152E-01
RMM:  57    -0.240269788987E+02    0.32785E-03   -0.14278E-04    64   0.750E-02    0.137E-01
RMM:  58    -0.240266966244E+02    0.28227E-03   -0.12559E-04    64   0.708E-02    0.125E-01
RMM:  59    -0.240262552123E+02    0.44141E-03   -0.34128E-04    64   0.116E-01    0.111E-01
RMM:  60    -0.240255782368E+02    0.67698E-03   -0.90929E-04    64   0.189E-01
    6 T=   151. E= -.23913641E+02 F= -.24025578E+02 E0= -.24033692E+02  EK= 0.77843E-01 SP= 0.13E-01 SK= 0.21E-01
 bond charge predicted
 prediction of wavefunctions
       N       E                     dE             d eps       ncg     rms          rms(c)
DAV:   1    -0.239613130838E+02    0.64942E-01   -0.10280E+00    64   0.961E+00    0.747E-01
RMM:   2    -0.239496716654E+02    0.11641E-01   -0.70189E-02    64   0.213E+00    0.781E-01
RMM:   3    -0.419446247179E+02   -0.17995E+02   -0.56224E+01    64   0.465E+01    0.212E+01
RMM:   4    -0.363046958785E+02    0.56399E+01   -0.14597E+00    64   0.891E+00    0.176E+01
RMM:   5    -0.341204497994E+02    0.21842E+01   -0.41306E-01    64   0.405E+00    0.160E+01
RMM:   6    -0.255995208253E+02    0.85209E+01   -0.12390E+01    64   0.213E+01    0.656E+00
RMM:   7    -0.342964346461E+02   -0.86969E+01   -0.96417E+00    64   0.198E+01    0.160E+01
RMM:   8    -0.248429688798E+02    0.94535E+01   -0.13959E+01    64   0.229E+01    0.495E+00
RMM:   9    -0.272165198865E+02   -0.23736E+01   -0.12878E+00    64   0.759E+00    0.886E+00
RMM:  10    -0.249456047942E+02    0.22709E+01   -0.16941E+00    64   0.812E+00    0.500E+00
RMM:  11    -0.247161348350E+02    0.22947E+00   -0.15423E-01    64   0.256E+00    0.437E+00
RMM:  12    -0.240119173487E+02    0.70422E+00   -0.13491E+00    64   0.731E+00    0.147E+00
RMM:  13    -0.240137155956E+02   -0.17982E-02   -0.40483E-02    64   0.154E+00    0.140E+00
RMM:  14    -0.239579904669E+02    0.55725E-01   -0.15413E-01    64   0.251E+00    0.765E-01
RMM:  15    -0.241844788440E+02   -0.22649E+00   -0.52671E-01    64   0.454E+00    0.248E+00
RMM:  16    -0.243758525960E+02   -0.19137E+00   -0.13679E-01    64   0.233E+00    0.328E+00
RMM:  17    -0.242287230391E+02    0.14713E+00   -0.38851E-02    64   0.122E+00    0.272E+00
RMM:  18    -0.241116846437E+02    0.11704E+00   -0.55875E-02    64   0.146E+00    0.213E+00
RMM:  19    -0.240190977293E+02    0.92587E-01   -0.75417E-02    64   0.173E+00    0.147E+00
RMM:  20    -0.239918121189E+02    0.27286E-01   -0.20213E-02    64   0.923E-01    0.120E+00
RMM:  21    -0.239579897700E+02    0.33822E-01   -0.45068E-02    64   0.135E+00    0.818E-01
RMM:  22    -0.239865080666E+02   -0.28518E-01   -0.24205E-01    64   0.309E+00    0.844E-01
RMM:  23    -0.246486875621E+02   -0.66218E+00   -0.14120E+00    64   0.749E+00    0.394E+00
RMM:  24    -0.249278144435E+02   -0.27913E+00   -0.19420E-01    64   0.294E+00    0.477E+00
RMM:  25    -0.247662468064E+02    0.16157E+00   -0.12649E-02    64   0.843E-01    0.439E+00
RMM:  26    -0.240860375351E+02    0.68021E+00   -0.87775E-01    64   0.580E+00    0.185E+00
RMM:  27    -0.244011908792E+02   -0.31515E+00   -0.17841E-01    64   0.272E+00    0.325E+00
RMM:  28    -0.240562155436E+02    0.34498E+00   -0.31579E-01    64   0.351E+00    0.161E+00
RMM:  29    -0.240426500051E+02    0.13566E-01   -0.14011E-02    64   0.833E-01    0.148E+00
RMM:  30    -0.240016057052E+02    0.41044E-01   -0.24824E-02    64   0.101E+00    0.111E+00
RMM:  31    -0.240654229062E+02   -0.63817E-01   -0.30634E-02    64   0.110E+00    0.165E+00
RMM:  32    -0.240304112429E+02    0.35012E-01   -0.64640E-03    64   0.508E-01    0.139E+00
RMM:  33    -0.240018681627E+02    0.28543E-01   -0.10769E-02    64   0.646E-01    0.112E+00
RMM:  34    -0.239859869897E+02    0.15881E-01   -0.62642E-03    64   0.501E-01    0.946E-01
RMM:  35    -0.239667512475E+02    0.19236E-01   -0.12189E-02    64   0.692E-01    0.715E-01
RMM:  36    -0.239465997708E+02    0.20151E-01   -0.21420E-02    64   0.917E-01    0.581E-01
RMM:  37    -0.239419848287E+02    0.46149E-02   -0.42662E-03    64   0.430E-01    0.453E-01
RMM:  38    -0.239544575563E+02   -0.12473E-01   -0.75226E-03    64   0.542E-01    0.602E-01
RMM:  39    -0.239422616838E+02    0.12196E-01   -0.90870E-03    64   0.599E-01    0.474E-01
RMM:  40    -0.239422746679E+02   -0.12984E-04   -0.25940E-04    64   0.121E-01    0.478E-01
RMM:  41    -0.239430460956E+02   -0.77143E-03   -0.28113E-04    64   0.108E-01    0.508E-01
RMM:  42    -0.239386053444E+02    0.44408E-02   -0.47577E-03    64   0.417E-01    0.209E-01
RMM:  43    -0.239387383781E+02   -0.13303E-03   -0.15127E-04    64   0.101E-01    0.202E-01
RMM:  44    -0.239401378281E+02   -0.13995E-02   -0.92699E-04    64   0.182E-01    0.350E-01
RMM:  45    -0.239385796228E+02    0.15582E-02   -0.19810E-03    64   0.277E-01    0.165E-01
RMM:  46    -0.239385832068E+02   -0.35839E-05   -0.11425E-04    64   0.790E-02    0.138E-01
RMM:  47    -0.239387851618E+02   -0.20196E-03   -0.75785E-04    64   0.171E-01    0.187E-01
RMM:  48    -0.239383974614E+02    0.38770E-03   -0.10273E-04    64   0.660E-02    0.899E-02
RMM:  49    -0.239383609343E+02    0.36527E-04   -0.83906E-05    64   0.568E-02    0.262E-02
RMM:  50    -0.239384088188E+02   -0.47884E-04   -0.25293E-05    64   0.341E-02    0.304E-02
RMM:  51    -0.239384216253E+02   -0.12807E-04   -0.47290E-06    64   0.162E-02    0.369E-02
RMM:  52    -0.239384344034E+02   -0.12778E-04   -0.10779E-05    64   0.215E-02    0.514E-02
RMM:  53    -0.239384245374E+02    0.98660E-05   -0.76575E-07    48   0.713E-03    0.488E-02
RMM:  54    -0.239384212663E+02    0.32711E-05   -0.22790E-06    56   0.913E-03    0.459E-02
RMM:  55    -0.239384049918E+02    0.16275E-04   -0.86105E-06    64   0.178E-02    0.189E-02
RMM:  56    -0.239384112219E+02   -0.62302E-05   -0.18613E-06    52   0.987E-03    0.854E-03
RMM:  57    -0.239384150050E+02   -0.37831E-05   -0.78593E-07    48   0.687E-03    0.320E-03
RMM:  58    -0.239384170955E+02   -0.20905E-05   -0.25834E-07    48   0.414E-03    0.206E-03
RMM:  59    -0.239384183153E+02   -0.12198E-05   -0.16209E-07    48   0.310E-03    0.139E-03
RMM:  60    -0.239384188455E+02   -0.53021E-06   -0.45402E-08    40   0.195E-03
    7 T=    59. E= -.23862304E+02 F= -.23938419E+02 E0= -.23946272E+02  EK= 0.30716E-01 SP= 0.19E-01 SK= 0.26E-01
 bond charge predicted
 prediction of wavefunctions
       N       E                     dE             d eps       ncg     rms          rms(c)
DAV:   1    -0.240519542414E+02   -0.11354E+00   -0.18557E+00    64   0.123E+01    0.767E-01
RMM:   2    -0.241177141914E+02   -0.65760E-01   -0.24964E-01    64   0.340E+00    0.130E+00
RMM:   3    -0.240575688788E+02    0.60145E-01   -0.10218E-01    64   0.203E+00    0.595E-01
RMM:   4    -0.240601370201E+02   -0.25681E-02   -0.38707E-03    64   0.455E-01    0.621E-01
RMM:   5    -0.240514109988E+02    0.87260E-02   -0.93339E-03    64   0.626E-01    0.400E-01
RMM:   6    -0.240509130368E+02    0.49796E-03   -0.16375E-03    64   0.264E-01    0.360E-01
RMM:   7    -0.240518701749E+02   -0.95714E-03   -0.21676E-03    64   0.300E-01    0.389E-01
RMM:   8    -0.240512794960E+02    0.59068E-03   -0.20304E-04    64   0.994E-02    0.378E-01
RMM:   9    -0.240492459449E+02    0.20336E-02   -0.10130E-03    64   0.193E-01    0.306E-01
RMM:  10    -0.240481325209E+02    0.11134E-02   -0.56874E-04    64   0.149E-01    0.249E-01
RMM:  11    -0.240471831048E+02    0.94942E-03   -0.10647E-03    64   0.206E-01    0.174E-01
RMM:  12    -0.240469016822E+02    0.28142E-03   -0.29171E-04    64   0.112E-01    0.145E-01
RMM:  13    -0.240467490110E+02    0.15267E-03   -0.14266E-03    64   0.236E-01    0.110E-01
RMM:  14    -0.240466957193E+02    0.53292E-04   -0.18748E-04    64   0.914E-02    0.101E-01
RMM:  15    -0.240469238692E+02   -0.22815E-03   -0.31888E-04    64   0.112E-01    0.116E-01
RMM:  16    -0.240467386824E+02    0.18519E-03   -0.59125E-05    64   0.508E-02    0.102E-01
RMM:  17    -0.240467288718E+02    0.98106E-05   -0.88206E-06    64   0.206E-02    0.102E-01
RMM:  18    -0.240465808545E+02    0.14802E-03   -0.54690E-05    64   0.461E-02    0.891E-02
RMM:  19    -0.240465405436E+02    0.40311E-04   -0.79700E-06    64   0.187E-02    0.850E-02
RMM:  20    -0.240464916731E+02    0.48870E-04   -0.92778E-06    64   0.195E-02    0.797E-02
RMM:  21    -0.240464415884E+02    0.50085E-04   -0.10894E-05    64   0.213E-02    0.742E-02
RMM:  22    -0.240463661375E+02    0.75451E-04   -0.33032E-05    64   0.369E-02    0.660E-02
RMM:  23    -0.240462564771E+02    0.10966E-03   -0.89414E-05    64   0.599E-02    0.523E-02
RMM:  24    -0.240461756301E+02    0.80847E-04   -0.89691E-05    64   0.605E-02    0.388E-02
RMM:  25    -0.240461278751E+02    0.47755E-04   -0.65137E-05    64   0.519E-02    0.277E-02
RMM:  26    -0.240460966400E+02    0.31235E-04   -0.60979E-05    64   0.501E-02    0.176E-02
RMM:  27    -0.240460820839E+02    0.14556E-04   -0.41995E-05    64   0.417E-02    0.934E-03
RMM:  28    -0.240460804829E+02    0.16010E-05   -0.87271E-06    64   0.200E-02    0.694E-03
RMM:  29    -0.240460780875E+02    0.23954E-05   -0.90398E-06    64   0.197E-02    0.378E-03
RMM:  30    -0.240460768681E+02    0.12194E-05   -0.55233E-06    64   0.157E-02    0.154E-03
RMM:  31    -0.240460777338E+02   -0.86569E-06   -0.36792E-07    48   0.505E-03
    8 T=   123. E= -.23925892E+02 F= -.24046078E+02 E0= -.24053377E+02  EK= 0.63386E-01 SP= 0.25E-01 SK= 0.32E-01
 bond charge predicted
 prediction of wavefunctions
       N       E                     dE             d eps       ncg     rms          rms(c)
DAV:   1    -0.239863123577E+02    0.59765E-01   -0.45513E-01    64   0.691E+00    0.360E-01
RMM:   2    -0.240453958960E+02   -0.59084E-01   -0.17261E-01    64   0.284E+00    0.132E+00
RMM:   3    -0.244082880452E+02   -0.36289E+00   -0.14249E+00    64   0.759E+00    0.319E+00
RMM:   4    -0.240675108762E+02    0.34078E+00   -0.92862E-01    64   0.637E+00    0.155E+00
RMM:   5    -0.239993889888E+02    0.68122E-01   -0.10599E-01    64   0.223E+00    0.601E-01
RMM:   6    -0.240104293561E+02   -0.11040E-01   -0.79036E-03    64   0.605E-01    0.770E-01
RMM:   7    -0.239889886534E+02    0.21441E-01   -0.34858E-02    64   0.116E+00    0.337E-01
RMM:   8    -0.239866930943E+02    0.22956E-02   -0.12844E-02    64   0.722E-01    0.222E-01
RMM:   9    -0.239854340184E+02    0.12591E-02   -0.45457E-03    64   0.467E-01    0.457E-02
RMM:  10    -0.239855276886E+02   -0.93670E-04   -0.32254E-04    64   0.128E-01    0.478E-02
RMM:  11    -0.239856986429E+02   -0.17095E-03   -0.26286E-04    64   0.106E-01    0.826E-02
RMM:  12    -0.239855351983E+02    0.16344E-03   -0.28560E-04    64   0.114E-01    0.222E-02
RMM:  13    -0.239855480827E+02   -0.12884E-04   -0.68617E-05    64   0.546E-02    0.829E-03
RMM:  14    -0.239855645846E+02   -0.16502E-04   -0.20119E-05    64   0.313E-02    0.925E-03
RMM:  15    -0.239855712812E+02   -0.66966E-05   -0.80849E-06    64   0.196E-02    0.131E-02
RMM:  16    -0.239855742120E+02   -0.29309E-05   -0.27342E-06    56   0.106E-02    0.864E-03
RMM:  17    -0.239855755509E+02   -0.13388E-05   -0.36488E-06    63   0.130E-02    0.270E-03
RMM:  18    -0.239855763827E+02   -0.83188E-06   -0.61186E-07    48   0.589E-03
    9 T=    47. E= -.23893475E+02 F= -.23985576E+02 E0= -.23989725E+02  EK= 0.24451E-01 SP= 0.32E-01 SK= 0.36E-01
 bond charge predicted
 prediction of wavefunctions
       N       E                     dE             d eps       ncg     rms          rms(c)
DAV:   1    -0.240501035712E+02   -0.64528E-01   -0.74754E-01    64   0.950E+00    0.583E-01
RMM:   2    -0.249473950308E+02   -0.89729E+00   -0.25883E+00    64   0.106E+01    0.528E+00
RMM:   3    -0.240510009700E+02    0.89639E+00   -0.21248E+00    64   0.968E+00    0.391E-01
RMM:   4    -0.240534023919E+02   -0.24014E-02   -0.80401E-02    64   0.194E+00    0.269E-01
RMM:   5    -0.240585969873E+02   -0.51946E-02   -0.12553E-02    64   0.827E-01    0.506E-01
RMM:   6    -0.240509048102E+02    0.76922E-02   -0.47543E-02    64   0.141E+00    0.177E-01
RMM:   7    -0.240503233538E+02    0.58146E-03   -0.83254E-04    64   0.226E-01    0.109E-01
RMM:   8    -0.240501426966E+02    0.18066E-03   -0.19763E-04    64   0.860E-02    0.908E-02
RMM:   9    -0.240499491986E+02    0.19350E-03   -0.54622E-04    64   0.157E-01    0.267E-02
RMM:  10    -0.240499395805E+02    0.96181E-05   -0.24789E-04    64   0.102E-01    0.115E-02
RMM:  11    -0.240499528325E+02   -0.13252E-04   -0.87857E-06    64   0.242E-02    0.283E-03
RMM:  12    -0.240499637116E+02   -0.10879E-04   -0.98460E-06    64   0.205E-02    0.726E-03
RMM:  13    -0.240499690073E+02   -0.52957E-05   -0.89573E-06    64   0.201E-02    0.308E-03
RMM:  14    -0.240499709775E+02   -0.19702E-05   -0.26511E-07    48   0.397E-03    0.195E-03
RMM:  15    -0.240499716715E+02   -0.69404E-06   -0.69170E-07    48   0.510E-03
   10 T=   113. E= -.23912280E+02 F= -.24049972E+02 E0= -.24054484E+02  EK= 0.58331E-01 SP= 0.38E-01 SK= 0.41E-01
 bond charge predicted
 prediction of wavefunctions
 wavefunctions rotated
