<?xml version="1.0" encoding="ISO-8859-1"?>
<modeling>
 <generator>
  <i name="program" type="string">vasp </i>
  <i name="version" type="string">5.4.4.18Apr17-6-g9f103f2a35  </i>
  <i name="subversion" type="string">(build Jul 12 2018 13:43:46) complex            parallel </i>
  <i name="platform" type="string">LinuxGNU </i>
  <i name="date" type="string">2019 06 22 </i>
  <i name="time" type="string">02:17:32 </i>
 </generator>
 <incar>
  <i type="int" name="ISTART">     0</i>
  <i type="string" name="PREC">a</i>
  <i type="string" name="ALGO">fast</i>
  <i type="int" name="MAXMIX">    50</i>
  <i type="int" name="ICHARG">     2</i>
  <i type="int" name="IBRION">     0</i>
  <i name="EDIFF">      0.00000100</i>
  <i type="int" name="NSW">    10</i>
  <i type="int" name="ISIF">     2</i>
  <i type="int" name="ISYM">     0</i>
  <i type="int" name="NBLOCK">     1</i>
  <i type="int" name="KBLOCK">   100</i>
  <i name="ENCUT">    400.00000000</i>
  <i name="POTIM">      2.00000000</i>
  <i name="TEBEG">     50.00000000</i>
  <i name="TEEND">     50.00000000</i>
  <i name="SMASS">      0.00000000</i>
  <i type="logical" name="LREAL"> T  </i>
  <i type="int" name="ISMEAR">     1</i>
  <i name="SIGMA">      0.20000000</i>
  <i name="KSPACING">      0.50000000</i>
  <i type="logical" name="KGAMMA"> F  </i>
  <i name="PSTRESS">      0.00000000</i>
  <i type="logical" name="LWAVE"> F  </i>
  <i type="logical" name="LCHARG"> F  </i>
  <v type="int" name="KPOINT_BSE">    -1     0     0     0</v>
 </incar>
 <structure name="primitive_cell" >
  <crystal>
   <varray name="basis" >
    <v>      10.29744236       0.00000000       0.00000000 </v>
    <v>      -0.27065360       9.73419935       0.00000000 </v>
    <v>      -0.04623165       0.00822627      10.26832355 </v>
   </varray>
   <i name="volume">   1029.26961106 </i>
   <varray name="rec_basis" >
    <v>       0.09711149       0.00270013       0.00043507 </v>
    <v>       0.00000000       0.10273059      -0.00008230 </v>
    <v>       0.00000000      -0.00000000       0.09738688 </v>
   </varray>
  </crystal>
  <varray name="positions" >
   <v>      -0.46164985       0.40732743       0.35999682 </v>
   <v>      -0.49645460       0.46701985       0.44528386 </v>
   <v>      -0.44798881      -0.43464536       0.44283255 </v>
   <v>      -0.47121127       0.41707781      -0.46121867 </v>
   <v>       0.39464327       0.48035892       0.43894712 </v>
  </varray>
 </structure>
 <varray name="primitive_index" >
  <v type="int" >        1 </v>
  <v type="int" >        5 </v>
  <v type="int" >        3 </v>
  <v type="int" >        4 </v>
  <v type="int" >        2 </v>
 </varray>
 <kpoints>
  <generation param="Monkhorst-Pack">
   <v type="int" name="divisions">       2        2        2 </v>
   <v name="usershift">      0.00000000       0.00000000       0.00000000 </v>
   <v name="genvec1">      0.50000000       0.00000000       0.00000000 </v>
   <v name="genvec2">      0.00000000       0.50000000       0.00000000 </v>
   <v name="genvec3">      0.00000000       0.00000000       0.50000000 </v>
   <v name="shift">      0.50000000       0.50000000       0.50000000 </v>
  </generation>
  <varray name="kpointlist" >
   <v>       0.25000000       0.25000000       0.25000000 </v>
   <v>      -0.25000000       0.25000000       0.25000000 </v>
   <v>       0.25000000      -0.25000000       0.25000000 </v>
   <v>      -0.25000000      -0.25000000       0.25000000 </v>
  </varray>
  <varray name="weights" >
   <v>       0.25000000 </v>
   <v>       0.25000000 </v>
   <v>       0.25000000 </v>
   <v>       0.25000000 </v>
  </varray>
 </kpoints>
 <parameters>
  <separator name="general" >
   <i type="string" name="SYSTEM">unknown system</i>
   <i type="logical" name="LCOMPAT"> F  </i>
  </separator>
  <separator name="electronic" >
   <i type="string" name="PREC">a</i>
   <i name="ENMAX">    400.00000000</i>
   <i name="ENAUG">    644.87300000</i>
   <i name="EDIFF">      0.00000100</i>
   <i type="int" name="IALGO">    68</i>
   <i type="int" name="IWAVPR">    12</i>
   <i type="int" name="NBANDS">     8</i>
   <i name="NELECT">      8.00000000</i>
   <i type="int" name="TURBO">     0</i>
   <i type="int" name="IRESTART">     0</i>
   <i type="int" name="NREBOOT">     0</i>
   <i type="int" name="NMIN">     0</i>
   <i name="EREF">      0.00000000</i>
   <separator name="electronic smearing" >
    <i type="int" name="ISMEAR">     1</i>
    <i name="SIGMA">      0.20000000</i>
    <i name="KSPACING">      0.50000000</i>
    <i type="logical" name="KGAMMA"> F  </i>
   </separator>
   <separator name="electronic projectors" >
    <i type="logical" name="LREAL"> T  </i>
    <v name="ROPT">      0.00000000      0.00000000</v>
    <i type="int" name="LMAXPAW">  -100</i>
    <i type="int" name="LMAXMIX">     2</i>
    <i type="logical" name="NLSPLINE"> F  </i>
   </separator>
   <separator name="electronic startup" >
    <i type="int" name="ISTART">     0</i>
    <i type="int" name="ICHARG">     2</i>
    <i type="int" name="INIWAV">     1</i>
   </separator>
   <separator name="electronic spin" >
    <i type="int" name="ISPIN">     1</i>
    <i type="logical" name="LNONCOLLINEAR"> F  </i>
    <v name="MAGMOM">      1.00000000      1.00000000      1.00000000      1.00000000      1.00000000</v>
    <i name="NUPDOWN">     -1.00000000</i>
    <i type="logical" name="LSORBIT"> F  </i>
    <v name="SAXIS">      0.00000000      0.00000000      1.00000000</v>
    <i type="logical" name="LSPIRAL"> F  </i>
    <v name="QSPIRAL">      0.00000000      0.00000000      0.00000000</v>
    <i type="logical" name="LZEROZ"> F  </i>
   </separator>
   <separator name="electronic exchange-correlation" >
    <i type="logical" name="LASPH"> F  </i>
    <i type="logical" name="LMETAGGA"> F  </i>
   </separator>
   <separator name="electronic convergence" >
    <i type="int" name="NELM">    60</i>
    <i type="int" name="NELMDL">    -5</i>
    <i type="int" name="NELMIN">     2</i>
    <i name="ENINI">    400.00000000</i>
    <separator name="electronic convergence detail" >
     <i type="logical" name="LDIAG"> T  </i>
     <i type="logical" name="LSUBROT"> F  </i>
     <i name="WEIMIN">      0.00100000</i>
     <i name="EBREAK">      0.00000003</i>
     <i name="DEPER">      0.30000000</i>
     <i type="int" name="NRMM">     4</i>
     <i name="TIME">      0.40000000</i>
    </separator>
   </separator>
   <separator name="electronic mixer" >
    <i name="AMIX">      0.40000000</i>
    <i name="BMIX">      1.00000000</i>
    <i name="AMIN">      0.10000000</i>
    <i name="AMIX_MAG">      1.60000000</i>
    <i name="BMIX_MAG">      1.00000000</i>
    <separator name="electronic mixer details" >
     <i type="int" name="IMIX">     4</i>
     <i type="logical" name="MIXFIRST"> F  </i>
     <i type="int" name="MAXMIX">    50</i>
     <i name="WC">    100.00000000</i>
     <i type="int" name="INIMIX">     1</i>
     <i type="int" name="MIXPRE">     1</i>
     <i type="int" name="MREMOVE">     5</i>
    </separator>
   </separator>
   <separator name="electronic dipolcorrection" >
    <i type="logical" name="LDIPOL"> F  </i>
    <i type="logical" name="LMONO"> F  </i>
    <i type="int" name="IDIPOL">     0</i>
    <i name="EPSILON">      1.00000000</i>
    <v name="DIPOL">   -100.00000000   -100.00000000   -100.00000000</v>
    <i name="EFIELD">      0.00000000</i>
   </separator>
  </separator>
  <separator name="grids" >
   <i type="int" name="NGX">    70</i>
   <i type="int" name="NGY">    64</i>
   <i type="int" name="NGZ">    70</i>
   <i type="int" name="NGXF">   140</i>
   <i type="int" name="NGYF">   128</i>
   <i type="int" name="NGZF">   140</i>
   <i type="logical" name="ADDGRID"> F  </i>
  </separator>
  <separator name="ionic" >
   <i type="int" name="NSW">    10</i>
   <i type="int" name="IBRION">     0</i>
   <i type="int" name="MDALGO">     0</i>
   <i type="int" name="ISIF">     2</i>
   <i name="PSTRESS">      0.00000000</i>
   <i name="EDIFFG">      0.00001000</i>
   <i type="int" name="NFREE">     0</i>
   <i name="POTIM">      2.00000000</i>
   <i name="SMASS">      0.00152538</i>
   <i name="SCALEE">      1.00000000</i>
  </separator>
  <separator name="ionic md" >
   <i name="TEBEG">     50.00000000</i>
   <i name="TEEND">     50.00000000</i>
   <i type="int" name="NBLOCK">     1</i>
   <i type="int" name="KBLOCK">     1</i>
   <i type="int" name="NPACO">   256</i>
   <i name="APACO">     16.00000000</i>
  </separator>
  <separator name="symmetry" >
   <i type="int" name="ISYM">     0</i>
   <i name="SYMPREC">      0.00001000</i>
  </separator>
  <separator name="dos" >
   <i type="int" name="LORBIT">     0</i>
   <v name="RWIGS">     -1.00000000     -1.00000000</v>
   <i type="int" name="NEDOS">   301</i>
   <i name="EMIN">     10.00000000</i>
   <i name="EMAX">    -10.00000000</i>
   <i name="EFERMI">      0.00000000</i>
  </separator>
  <separator name="writing" >
   <i type="int" name="NWRITE">     2</i>
   <i type="logical" name="LWAVE"> F  </i>
   <i type="logical" name="LDOWNSAMPLE"> F  </i>
   <i type="logical" name="LCHARG"> F  </i>
   <i type="logical" name="LPARD"> F  </i>
   <i type="logical" name="LVTOT"> F  </i>
   <i type="logical" name="LVHAR"> F  </i>
   <i type="logical" name="LELF"> F  </i>
   <i type="logical" name="LOPTICS"> F  </i>
   <v name="STM">      0.00000000      0.00000000      0.00000000      0.00000000      0.00000000      0.00000000      0.00000000</v>
  </separator>
  <separator name="performance" >
   <i type="int" name="NPAR">     1</i>
   <i type="int" name="NSIM">     4</i>
   <i type="int" name="NBLK">    -1</i>
   <i type="logical" name="LPLANE"> T  </i>
   <i type="logical" name="LSCALAPACK"> T  </i>
   <i type="logical" name="LSCAAWARE"> F  </i>
   <i type="logical" name="LSCALU"> F  </i>
   <i type="logical" name="LASYNC"> F  </i>
   <i type="logical" name="LORBITALREAL"> F  </i>
  </separator>
  <separator name="miscellaneous" >
   <i type="int" name="IDIOT">     3</i>
   <i type="int" name="ISPECIAL">     0</i>
   <i type="logical" name="LMUSIC"> F  </i>
   <v name="POMASS">      1.00000000     12.01100000</v>
   <v name="DARWINR">      0.00000000      0.00000000</v>
   <v name="DARWINV">      1.00000000      1.00000000</v>
   <i type="logical" name="LCORR"> T  </i>
  </separator>
  <i type="logical" name="GGA_COMPAT"> T  </i>
  <i type="logical" name="LBERRY"> F  </i>
  <i type="int" name="ICORELEVEL">     0</i>
  <i type="logical" name="LDAU"> F  </i>
  <i type="int" name="I_CONSTRAINED_M">     0</i>
  <separator name="electronic exchange-correlation" >
   <i type="string" name="GGA">--</i>
   <i type="int" name="VOSKOWN">     0</i>
   <i type="logical" name="LHFCALC"> F  </i>
   <i type="string" name="PRECFOCK"></i>
   <i type="logical" name="LSYMGRAD"> F  </i>
   <i type="logical" name="LHFONE"> F  </i>
   <i type="logical" name="LRHFCALC"> F  </i>
   <i type="logical" name="LTHOMAS"> F  </i>
   <i type="logical" name="LMODELHF"> F  </i>
   <i name="ENCUT4O">     -1.00000000</i>
   <i type="int" name="EXXOEP">     0</i>
   <i type="int" name="FOURORBIT">     0</i>
   <i name="AEXX">      0.00000000</i>
   <i name="HFALPHA">      0.00000000</i>
   <i name="MCALPHA">      0.00000000</i>
   <i name="ALDAX">      1.00000000</i>
   <i name="AGGAX">      1.00000000</i>
   <i name="ALDAC">      1.00000000</i>
   <i name="AGGAC">      1.00000000</i>
   <i type="int" name="NKREDX">     1</i>
   <i type="int" name="NKREDY">     1</i>
   <i type="int" name="NKREDZ">     1</i>
   <i type="logical" name="SHIFTRED"> F  </i>
   <i type="logical" name="ODDONLY"> F  </i>
   <i type="logical" name="EVENONLY"> F  </i>
   <i type="int" name="LMAXFOCK">     0</i>
   <i type="int" name="NMAXFOCKAE">     0</i>
   <i type="logical" name="LFOCKAEDFT"> F  </i>
   <i name="HFSCREEN">      0.00000000</i>
   <i name="HFSCREENC">      0.00000000</i>
   <i type="int" name="NBANDSGWLOW">     0</i>
  </separator>
  <separator name="vdW DFT" >
   <i type="logical" name="LUSE_VDW"> F  </i>
   <i name="Zab_VDW">     -0.84910000</i>
   <i name="PARAM1">      0.12340000</i>
   <i name="PARAM2">      1.00000000</i>
   <i name="PARAM3">      0.00000000</i>
  </separator>
  <separator name="model GW" >
   <i type="int" name="MODEL_GW">     0</i>
   <i name="MODEL_EPS0">    123.51235333</i>
   <i name="MODEL_ALPHA">      1.00000000</i>
  </separator>
  <separator name="linear response parameters" >
   <i type="logical" name="LEPSILON"> F  </i>
   <i type="logical" name="LRPA"> F  </i>
   <i type="logical" name="LNABLA"> F  </i>
   <i type="logical" name="LVEL"> F  </i>
   <i type="int" name="KINTER">     0</i>
   <i name="CSHIFT">      0.10000000</i>
   <i name="OMEGAMAX">     -1.00000000</i>
   <i name="DEG_THRESHOLD">      0.00200000</i>
   <i name="RTIME">     -0.10000000</i>
   <i name="WPLASMAI">      0.00000000</i>
   <v name="DFIELD">      0.00000000      0.00000000      0.00000000</v>
   <v name="WPLASMA">      0.00000000      0.00000000      0.00000000      0.00000000      0.00000000      0.00000000      0.00000000      0.00000000      0.00000000</v>
  </separator>
  <separator name="orbital magnetization" >
   <i type="logical" name="NUCIND"> F  </i>
   <v name="MAGPOS">      0.00000000      0.00000000      0.00000000</v>
   <i type="logical" name="LNICSALL"> T  </i>
   <i type="logical" name="ORBITALMAG"> F  </i>
   <i type="logical" name="LMAGBLOCH"> F  </i>
   <i type="logical" name="LCHIMAG"> F  </i>
   <i type="logical" name="LGAUGE"> T  </i>
   <i type="int" name="MAGATOM">     0</i>
   <v name="MAGDIPOL">      0.00000000      0.00000000      0.00000000</v>
   <v name="AVECCONST">      0.00000000      0.00000000      0.00000000</v>
  </separator>
  <separator name="response functions" >
   <i type="logical" name="LADDER"> F  </i>
   <i type="logical" name="LRPAFORCE"> F  </i>
   <i type="logical" name="LFXC"> F  </i>
   <i type="logical" name="LHARTREE"> T  </i>
   <i type="int" name="IBSE">     0</i>
   <v type="int" name="KPOINT">    -1     0     0     0</v>
   <i type="logical" name="LTCTE"> F  </i>
   <i type="logical" name="LTETE"> F  </i>
   <i type="logical" name="LTRIPLET"> F  </i>
   <i type="logical" name="LFXCEPS"> F  </i>
   <i type="logical" name="LFXHEG"> F  </i>
   <i type="int" name="NATURALO">     2</i>
   <i type="logical" name="L2ORDER"> F  </i>
   <i type="logical" name="LMP2LT"> F  </i>
   <i type="logical" name="LUSEW"> F  </i>
   <i name="ENCUTGW">     -2.00000000</i>
   <i name="ENCUTGWSOFT">     -2.00000000</i>
   <i name="ENCUTLF">     -1.00000000</i>
   <i type="int" name="LMAXMP2">    -1</i>
   <i name="SCISSOR">      0.00000000</i>
   <i type="int" name="NOMEGA">     0</i>
   <i type="int" name="NOMEGAR">     0</i>
   <i type="int" name="NBANDSGW">    -1</i>
   <i type="int" name="NBANDSO">    -1</i>
   <i type="int" name="NBANDSV">    -1</i>
   <i type="int" name="NELM">     1</i>
   <i type="int" name="NELMHF">     1</i>
   <i type="int" name="DIM">     3</i>
   <i type="int" name="ANTIRES">     0</i>
   <i name="OMEGAMAX">    -30.00000000</i>
   <i name="OMEGAMIN">    -30.00000000</i>
   <i name="OMEGATL">   -200.00000000</i>
   <i type="int" name="OMEGAGRID">   140</i>
   <i name="CSHIFT">     -0.10000000</i>
   <i type="logical" name="SELFENERGY"> F  </i>
   <i type="logical" name="LSPECTRAL"> F  </i>
   <i type="logical" name="LSPECTRALGW"> F  </i>
   <i type="logical" name="LSINGLES"> F  </i>
   <i type="logical" name="LFERMIGW"> F  </i>
   <i type="logical" name="ODDONLYGW"> F  </i>
   <i type="logical" name="EVENONLYGW"> F  </i>
   <i type="int" name="NKREDLFX">     1</i>
   <i type="int" name="NKREDLFY">     1</i>
   <i type="int" name="NKREDLFZ">     1</i>
   <i type="int" name="MAXMEM">  2800</i>
   <i type="int" name="TELESCOPE">     0</i>
   <i type="int" name="TAUPAR">     1</i>
   <i type="int" name="OMEGAPAR">    -1</i>
   <i name="LAMBDA">      1.00000000</i>
  </separator>
  <separator name="External order field" >
   <i name="OFIELD_KAPPA">      0.00000000</i>
   <v name="OFIELD_K">      0.00000000      0.00000000      0.00000000</v>
   <i name="OFIELD_Q6_NEAR">      0.00000000</i>
   <i name="OFIELD_Q6_FAR">      0.00000000</i>
   <i name="OFIELD_A">      0.00000000</i>
  </separator>
 </parameters>
 <atominfo>
  <atoms>       5 </atoms>
  <types>       2 </types>
  <array name="atoms" >
   <dimension dim="1">ion</dimension>
   <field type="string">element</field>
   <field type="int">atomtype</field>
   <set>
    <rc><c>H </c><c>   1</c></rc>
    <rc><c>H </c><c>   1</c></rc>
    <rc><c>H </c><c>   1</c></rc>
    <rc><c>H </c><c>   1</c></rc>
    <rc><c>C </c><c>   2</c></rc>
   </set>
  </array>
  <array name="atomtypes" >
   <dimension dim="1">type</dimension>
   <field type="int">atomspertype</field>
   <field type="string">element</field>
   <field>mass</field>
   <field>valence</field>
   <field type="string">pseudopotential</field>
   <set>
    <rc><c>   4</c><c>H </c><c>      1.00000000</c><c>      1.00000000</c><c>  PAW_PBE H 15Jun2001                   </c></rc>
    <rc><c>   1</c><c>C </c><c>     12.01100000</c><c>      4.00000000</c><c>  PAW_PBE C 08Apr2002                   </c></rc>
   </set>
  </array>
 </atominfo>
 <structure name="initialpos" >
  <crystal>
   <varray name="basis" >
    <v>      10.29744236       0.00000000       0.00000000 </v>
    <v>      -0.27065360       9.73419935       0.00000000 </v>
    <v>      -0.04623165       0.00822627      10.26832355 </v>
   </varray>
   <i name="volume">   1029.26961106 </i>
   <varray name="rec_basis" >
    <v>       0.09711149       0.00270013       0.00043507 </v>
    <v>       0.00000000       0.10273059      -0.00008230 </v>
    <v>       0.00000000      -0.00000000       0.09738688 </v>
   </varray>
  </crystal>
  <varray name="positions" >
   <v>       0.53835015       0.40732743       0.35999682 </v>
   <v>       0.39464327       0.48035892       0.43894712 </v>
   <v>       0.55201119       0.56535464       0.44283255 </v>
   <v>       0.52878873       0.41707781       0.53878133 </v>
   <v>       0.50354540       0.46701985       0.44528386 </v>
  </varray>
  <varray name="velocities" >
   <v>      -0.00044850       0.00086102       0.00129105 </v>
   <v>      -0.00083857       0.00046112       0.00062974 </v>
   <v>       0.00162329       0.00240282      -0.00095038 </v>
   <v>       0.00212135      -0.00017627       0.00056913 </v>
   <v>      -0.00020461      -0.00029545      -0.00012818 </v>
  </varray>
 </structure>
 <calculation>
  <scstep>
   <time name="dav">    2.60    2.61</time>
   <time name="total">    4.17    4.18</time>
   <energy>
    <i name="alphaZ">      0.23536184 </i>
    <i name="ewald">    127.81204451 </i>
    <i name="hartreedc">   -244.06552799 </i>
    <i name="XCdc">     21.95491245 </i>
    <i name="pawpsdc">    117.05815612 </i>
    <i name="pawaedc">   -117.66307307 </i>
    <i name="eentropy">      0.00289895 </i>
    <i name="bandstr">    -91.03925650 </i>
    <i name="atom">    197.04175453 </i>
    <i name="e_fr_energy">     11.33727085 </i>
    <i name="e_wo_entrp">     11.33437190 </i>
    <i name="e_0_energy">     11.33630453 </i>
   </energy>
  </scstep>
  <scstep>
   <time name="dav">    2.02    2.02</time>
   <time name="total">    2.02    2.02</time>
   <energy>
    <i name="e_fr_energy">    -23.52019327 </i>
    <i name="e_wo_entrp">    -23.52336424 </i>
    <i name="e_0_energy">    -23.52125026 </i>
   </energy>
  </scstep>
  <scstep>
   <time name="dav">    2.05    2.05</time>
   <time name="total">    2.05    2.05</time>
   <energy>
    <i name="e_fr_energy">    -27.24126191 </i>
    <i name="e_wo_entrp">    -27.26172689 </i>
    <i name="e_0_energy">    -27.24808357 </i>
   </energy>
  </scstep>
  <scstep>
   <time name="dav">    3.65    3.66</time>
   <time name="total">    3.65    3.66</time>
   <energy>
    <i name="e_fr_energy">    -27.38778103 </i>
    <i name="e_wo_entrp">    -27.40827847 </i>
    <i name="e_0_energy">    -27.39461351 </i>
   </energy>
  </scstep>
  <scstep>
   <time name="dav">    2.64    2.64</time>
   <time name="total">    2.87    2.87</time>
   <energy>
    <i name="e_fr_energy">    -27.38782492 </i>
    <i name="e_wo_entrp">    -27.40832243 </i>
    <i name="e_0_energy">    -27.39465743 </i>
   </energy>
  </scstep>
  <scstep>
   <time name="diag">    0.46    0.46</time>
   <time name="diis">    1.36    1.36</time>
   <time name="orth">    0.01    0.01</time>
   <time name="total">    3.77    3.78</time>
   <energy>
    <i name="e_fr_energy">    -24.59114519 </i>
    <i name="e_wo_entrp">    -24.62703494 </i>
    <i name="e_0_energy">    -24.60310844 </i>
   </energy>
  </scstep>
  <scstep>
   <time name="diag">    0.43    0.43</time>
   <time name="diis">    1.41    1.41</time>
   <time name="orth">    0.01    0.01</time>
   <time name="total">    3.79    3.80</time>
   <energy>
    <i name="e_fr_energy">    -24.11582761 </i>
    <i name="e_wo_entrp">    -24.15634134 </i>
    <i name="e_0_energy">    -24.12933219 </i>
   </energy>
  </scstep>
  <scstep>
   <time name="diag">    0.43    0.43</time>
   <time name="diis">    1.46    1.46</time>
   <time name="orth">    0.01    0.01</time>
   <time name="total">    3.83    3.84</time>
   <energy>
    <i name="e_fr_energy">    -23.98461762 </i>
    <i name="e_wo_entrp">    -24.02430469 </i>
    <i name="e_0_energy">    -23.99784664 </i>
   </energy>
  </scstep>
  <scstep>
   <time name="diag">    0.42    0.42</time>
   <time name="diis">    1.52    1.52</time>
   <time name="orth">    0.01    0.01</time>
   <time name="total">    3.89    3.90</time>
   <energy>
    <i name="e_fr_energy">    -23.96606517 </i>
    <i name="e_wo_entrp">    -24.00610680 </i>
    <i name="e_0_energy">    -23.97941238 </i>
   </energy>
  </scstep>
  <scstep>
   <time name="diag">    0.41    0.41</time>
   <time name="diis">    1.52    1.52</time>
   <time name="orth">    0.01    0.01</time>
   <time name="total">    3.85    3.86</time>
   <energy>
    <i name="e_fr_energy">    -23.96361211 </i>
    <i name="e_wo_entrp">    -24.00293401 </i>
    <i name="e_0_energy">    -23.97671941 </i>
   </energy>
  </scstep>
  <scstep>
   <time name="diag">    0.42    0.42</time>
   <time name="diis">    1.52    1.53</time>
   <time name="orth">    0.01    0.01</time>
   <time name="total">    3.85    3.86</time>
   <energy>
    <i name="e_fr_energy">    -23.95997569 </i>
    <i name="e_wo_entrp">    -23.99955035 </i>
    <i name="e_0_energy">    -23.97316724 </i>
   </energy>
  </scstep>
  <scstep>
   <time name="diag">    0.44    0.44</time>
   <time name="diis">    1.49    1.49</time>
   <time name="orth">    0.01    0.01</time>
   <time name="total">    3.78    3.79</time>
   <energy>
    <i name="e_fr_energy">    -23.95818370 </i>
    <i name="e_wo_entrp">    -23.99775180 </i>
    <i name="e_0_energy">    -23.97137307 </i>
   </energy>
  </scstep>
  <scstep>
   <time name="diag">    0.42    0.42</time>
   <time name="diis">    1.49    1.50</time>
   <time name="orth">    0.01    0.01</time>
   <time name="total">    3.73    3.74</time>
   <energy>
    <i name="e_fr_energy">    -23.96264909 </i>
    <i name="e_wo_entrp">    -24.00199311 </i>
    <i name="e_0_energy">    -23.97576376 </i>
   </energy>
  </scstep>
  <scstep>
   <time name="diag">    0.42    0.42</time>
   <time name="diis">    1.49    1.50</time>
   <time name="orth">    0.01    0.01</time>
   <time name="total">    3.69    3.70</time>
   <energy>
    <i name="e_fr_energy">    -23.96708448 </i>
    <i name="e_wo_entrp">    -24.00642439 </i>
    <i name="e_0_energy">    -23.98019779 </i>
   </energy>
  </scstep>
  <scstep>
   <time name="diag">    0.45    0.45</time>
   <time name="diis">    1.46    1.47</time>
   <time name="orth">    0.01    0.01</time>
   <time name="total">    3.70    3.70</time>
   <energy>
    <i name="e_fr_energy">    -23.96874214 </i>
    <i name="e_wo_entrp">    -24.00828836 </i>
    <i name="e_0_energy">    -23.98192421 </i>
   </energy>
  </scstep>
  <scstep>
   <time name="diag">    0.45    0.45</time>
   <time name="diis">    1.50    1.50</time>
   <time name="orth">    0.01    0.01</time>
   <time name="total">    3.67    3.68</time>
   <energy>
    <i name="e_fr_energy">    -23.97046765 </i>
    <i name="e_wo_entrp">    -24.00995259 </i>
    <i name="e_0_energy">    -23.98362930 </i>
   </energy>
  </scstep>
  <scstep>
   <time name="diag">    0.46    0.46</time>
   <time name="diis">    1.48    1.49</time>
   <time name="orth">    0.01    0.01</time>
   <time name="total">    3.64    3.65</time>
   <energy>
    <i name="e_fr_energy">    -23.97077203 </i>
    <i name="e_wo_entrp">    -24.01021957 </i>
    <i name="e_0_energy">    -23.98392121 </i>
   </energy>
  </scstep>
  <scstep>
   <time name="diag">    0.46    0.46</time>
   <time name="diis">    1.54    1.54</time>
   <time name="orth">    0.01    0.01</time>
   <time name="total">    3.73    3.74</time>
   <energy>
    <i name="e_fr_energy">    -23.97096443 </i>
    <i name="e_wo_entrp">    -24.01042880 </i>
    <i name="e_0_energy">    -23.98411922 </i>
   </energy>
  </scstep>
  <scstep>
   <time name="diag">    0.45    0.45</time>
   <time name="diis">    1.56    1.56</time>
   <time name="orth">    0.01    0.01</time>
   <time name="total">    3.74    3.75</time>
   <energy>
    <i name="e_fr_energy">    -23.97103343 </i>
    <i name="e_wo_entrp">    -24.01048357 </i>
    <i name="e_0_energy">    -23.98418348 </i>
   </energy>
  </scstep>
  <scstep>
   <time name="diag">    0.43    0.44</time>
   <time name="diis">    1.22    1.22</time>
   <time name="orth">    0.01    0.01</time>
   <time name="total">    3.44    3.44</time>
   <energy>
    <i name="e_fr_energy">    -23.97104944 </i>
    <i name="e_wo_entrp">    -24.01050602 </i>
    <i name="e_0_energy">    -23.98420163 </i>
   </energy>
  </scstep>
  <scstep>
   <time name="diag">    0.45    0.45</time>
   <time name="diis">    1.17    1.17</time>
   <time name="orth">    0.01    0.01</time>
   <time name="total">    3.43    3.44</time>
   <energy>
    <i name="e_fr_energy">    -23.97105445 </i>
    <i name="e_wo_entrp">    -24.01051054 </i>
    <i name="e_0_energy">    -23.98420648 </i>
   </energy>
  </scstep>
  <scstep>
   <time name="diag">    0.44    0.44</time>
   <time name="diis">    1.13    1.14</time>
   <time name="orth">    0.01    0.01</time>
   <time name="total">    3.37    3.38</time>
   <energy>
    <i name="e_fr_energy">    -23.97105621 </i>
    <i name="e_wo_entrp">    -24.01050997 </i>
    <i name="e_0_energy">    -23.98420746 </i>
   </energy>
  </scstep>
  <scstep>
   <time name="diag">    0.43    0.43</time>
   <time name="diis">    1.10    1.10</time>
   <time name="orth">    0.01    0.01</time>
   <time name="total">    3.11    3.12</time>
   <energy>
    <i name="alphaZ">      0.23536184 </i>
    <i name="ewald">    127.81204451 </i>
    <i name="hartreedc">   -283.81391368 </i>
    <i name="XCdc">     24.63877381 </i>
    <i name="pawpsdc">    425.32234618 </i>
    <i name="pawaedc">   -426.10253529 </i>
    <i name="eentropy">      0.03945398 </i>
    <i name="bandstr">    -89.14434282 </i>
    <i name="atom">    197.04175453 </i>
    <i name="e_fr_energy">    -23.97105694 </i>
    <i name="e_wo_entrp">    -24.01051092 </i>
    <i name="e_0_energy">    -23.98420827 </i>
   </energy>
  </scstep>
  <structure>
   <crystal>
    <varray name="basis" >
     <v>      10.29744236       0.00000000       0.00000000 </v>
     <v>      -0.27065360       9.73419935       0.00000000 </v>
     <v>      -0.04623165       0.00822627      10.26832355 </v>
    </varray>
    <i name="volume">   1029.26961106 </i>
    <varray name="rec_basis" >
     <v>       0.09711149       0.00270013       0.00043507 </v>
     <v>       0.00000000       0.10273059      -0.00008230 </v>
     <v>       0.00000000      -0.00000000       0.09738688 </v>
    </varray>
   </crystal>
   <varray name="positions" >
    <v>       0.53835015       0.40732743       0.35999682 </v>
    <v>       0.39464327       0.48035892       0.43894712 </v>
    <v>       0.55201119       0.56535464       0.44283255 </v>
    <v>       0.52878873       0.41707781       0.53878133 </v>
    <v>       0.50354540       0.46701985       0.44528386 </v>
   </varray>
  </structure>
  <varray name="forces" >
   <v>      -0.63992734       0.52328435       0.36522155 </v>
   <v>       0.84218406      -0.19745100       0.37638771 </v>
   <v>       0.70187049       1.06615106      -0.00674116 </v>
   <v>      -0.61513470      -0.24730609      -0.10041565 </v>
   <v>      -1.44044063      -0.63190985      -0.24814067 </v>
  </varray>
  <varray name="stress" >
   <v>      -2.42876730       1.36286613      -0.09784697 </v>
   <v>       1.36286612      -0.16827962      -0.66560800 </v>
   <v>      -0.09784696      -0.66560799      -2.27687132 </v>
  </varray>
  <energy>
   <i name="e_fr_energy">    -23.97105694 </i>
   <i name="e_wo_entrp">    -23.98420827 </i>
   <i name="e_0_energy">      0.03945398 </i>
   <i name="kinetic">      0.06122143 </i>
   <i name="lattice kinetic">      0.00000000 </i>
   <i name="nosepot">      0.00000000 </i>
   <i name="nosekinetic">      0.00015052 </i>
   <i name="total">    -23.90968499 </i>
  </energy>
  <dos>
   <i name="efermi">     -9.05751465 </i>
   <total>
    <array>
     <dimension dim="1">gridpoints</dimension>
     <dimension dim="2">spin</dimension>
     <field>energy</field>
     <field>total</field>
     <field>integrated</field>
     <set>
      <set comment="spin 1">
       <r>   -18.8313     0.0000     0.0000 </r>
       <r>   -18.7594     0.0000     0.0000 </r>
       <r>   -18.6876     0.0000     0.0000 </r>
       <r>   -18.6158     0.0000     0.0000 </r>
       <r>   -18.5440     0.0000     0.0000 </r>
       <r>   -18.4722    -0.0000    -0.0000 </r>
       <r>   -18.4004    -0.0000    -0.0000 </r>
       <r>   -18.3286    -0.0000    -0.0000 </r>
       <r>   -18.2567    -0.0000    -0.0000 </r>
       <r>   -18.1849    -0.0000    -0.0000 </r>
       <r>   -18.1131    -0.0000    -0.0000 </r>
       <r>   -18.0413    -0.0000    -0.0000 </r>
       <r>   -17.9695    -0.0000    -0.0000 </r>
       <r>   -17.8977    -0.0000    -0.0000 </r>
       <r>   -17.8258    -0.0000    -0.0000 </r>
       <r>   -17.7540    -0.0000    -0.0000 </r>
       <r>   -17.6822    -0.0000    -0.0000 </r>
       <r>   -17.6104    -0.0000    -0.0000 </r>
       <r>   -17.5386    -0.0001    -0.0000 </r>
       <r>   -17.4668    -0.0008    -0.0001 </r>
       <r>   -17.3950    -0.0060    -0.0005 </r>
       <r>   -17.3231    -0.0317    -0.0028 </r>
       <r>   -17.2513    -0.1202    -0.0114 </r>
       <r>   -17.1795    -0.3086    -0.0336 </r>
       <r>   -17.1077    -0.4349    -0.0648 </r>
       <r>   -17.0359     0.1400    -0.0547 </r>
       <r>   -16.9641     2.2460     0.1066 </r>
       <r>   -16.8922     5.6087     0.5093 </r>
       <r>   -16.8204     8.1032     1.0913 </r>
       <r>   -16.7486     7.6048     1.6374 </r>
       <r>   -16.6768     4.5638     1.9652 </r>
       <r>   -16.6050     1.4302     2.0679 </r>
       <r>   -16.5332    -0.1630     2.0562 </r>
       <r>   -16.4614    -0.4310     2.0252 </r>
       <r>   -16.3895    -0.2438     2.0077 </r>
       <r>   -16.3177    -0.0835     2.0017 </r>
       <r>   -16.2459    -0.0198     2.0003 </r>
       <r>   -16.1741    -0.0034     2.0000 </r>
       <r>   -16.1023    -0.0004     2.0000 </r>
       <r>   -16.0305    -0.0000     2.0000 </r>
       <r>   -15.9587    -0.0000     2.0000 </r>
       <r>   -15.8868    -0.0000     2.0000 </r>
       <r>   -15.8150    -0.0000     2.0000 </r>
       <r>   -15.7432    -0.0000     2.0000 </r>
       <r>   -15.6714    -0.0000     2.0000 </r>
       <r>   -15.5996    -0.0000     2.0000 </r>
       <r>   -15.5278     0.0000     2.0000 </r>
       <r>   -15.4559     0.0000     2.0000 </r>
       <r>   -15.3841     0.0000     2.0000 </r>
       <r>   -15.3123     0.0000     2.0000 </r>
       <r>   -15.2405     0.0000     2.0000 </r>
       <r>   -15.1687     0.0000     2.0000 </r>
       <r>   -15.0969     0.0000     2.0000 </r>
       <r>   -15.0251     0.0000     2.0000 </r>
       <r>   -14.9532     0.0000     2.0000 </r>
       <r>   -14.8814     0.0000     2.0000 </r>
       <r>   -14.8096     0.0000     2.0000 </r>
       <r>   -14.7378     0.0000     2.0000 </r>
       <r>   -14.6660     0.0000     2.0000 </r>
       <r>   -14.5942     0.0000     2.0000 </r>
       <r>   -14.5224     0.0000     2.0000 </r>
       <r>   -14.4505     0.0000     2.0000 </r>
       <r>   -14.3787     0.0000     2.0000 </r>
       <r>   -14.3069     0.0000     2.0000 </r>
       <r>   -14.2351     0.0000     2.0000 </r>
       <r>   -14.1633     0.0000     2.0000 </r>
       <r>   -14.0915     0.0000     2.0000 </r>
       <r>   -14.0196     0.0000     2.0000 </r>
       <r>   -13.9478     0.0000     2.0000 </r>
       <r>   -13.8760     0.0000     2.0000 </r>
       <r>   -13.8042     0.0000     2.0000 </r>
       <r>   -13.7324     0.0000     2.0000 </r>
       <r>   -13.6606     0.0000     2.0000 </r>
       <r>   -13.5888     0.0000     2.0000 </r>
       <r>   -13.5169     0.0000     2.0000 </r>
       <r>   -13.4451     0.0000     2.0000 </r>
       <r>   -13.3733     0.0000     2.0000 </r>
       <r>   -13.3015     0.0000     2.0000 </r>
       <r>   -13.2297     0.0000     2.0000 </r>
       <r>   -13.1579     0.0000     2.0000 </r>
       <r>   -13.0861     0.0000     2.0000 </r>
       <r>   -13.0142     0.0000     2.0000 </r>
       <r>   -12.9424     0.0000     2.0000 </r>
       <r>   -12.8706     0.0000     2.0000 </r>
       <r>   -12.7988     0.0000     2.0000 </r>
       <r>   -12.7270     0.0000     2.0000 </r>
       <r>   -12.6552     0.0000     2.0000 </r>
       <r>   -12.5833     0.0000     2.0000 </r>
       <r>   -12.5115     0.0000     2.0000 </r>
       <r>   -12.4397     0.0000     2.0000 </r>
       <r>   -12.3679     0.0000     2.0000 </r>
       <r>   -12.2961     0.0000     2.0000 </r>
       <r>   -12.2243     0.0000     2.0000 </r>
       <r>   -12.1525     0.0000     2.0000 </r>
       <r>   -12.0806     0.0000     2.0000 </r>
       <r>   -12.0088     0.0000     2.0000 </r>
       <r>   -11.9370     0.0000     2.0000 </r>
       <r>   -11.8652     0.0000     2.0000 </r>
       <r>   -11.7934     0.0000     2.0000 </r>
       <r>   -11.7216     0.0000     2.0000 </r>
       <r>   -11.6498     0.0000     2.0000 </r>
       <r>   -11.5779     0.0000     2.0000 </r>
       <r>   -11.5061     0.0000     2.0000 </r>
       <r>   -11.4343     0.0000     2.0000 </r>
       <r>   -11.3625     0.0000     2.0000 </r>
       <r>   -11.2907     0.0000     2.0000 </r>
       <r>   -11.2189     0.0000     2.0000 </r>
       <r>   -11.1470     0.0000     2.0000 </r>
       <r>   -11.0752     0.0000     2.0000 </r>
       <r>   -11.0034     0.0000     2.0000 </r>
       <r>   -10.9316    -0.0000     2.0000 </r>
       <r>   -10.8598    -0.0000     2.0000 </r>
       <r>   -10.7880    -0.0000     2.0000 </r>
       <r>   -10.7162    -0.0000     2.0000 </r>
       <r>   -10.6443    -0.0000     2.0000 </r>
       <r>   -10.5725    -0.0000     2.0000 </r>
       <r>   -10.5007    -0.0000     2.0000 </r>
       <r>   -10.4289    -0.0000     2.0000 </r>
       <r>   -10.3571    -0.0000     2.0000 </r>
       <r>   -10.2853    -0.0000     2.0000 </r>
       <r>   -10.2134    -0.0000     2.0000 </r>
       <r>   -10.1416    -0.0000     2.0000 </r>
       <r>   -10.0698    -0.0000     2.0000 </r>
       <r>    -9.9980    -0.0001     2.0000 </r>
       <r>    -9.9262    -0.0012     1.9999 </r>
       <r>    -9.8544    -0.0091     1.9993 </r>
       <r>    -9.7826    -0.0504     1.9956 </r>
       <r>    -9.7107    -0.2059     1.9808 </r>
       <r>    -9.6389    -0.5905     1.9384 </r>
       <r>    -9.5671    -1.0542     1.8627 </r>
       <r>    -9.4953    -0.5215     1.8253 </r>
       <r>    -9.4235     3.0748     2.0461 </r>
       <r>    -9.3517    10.7153     2.8156 </r>
       <r>    -9.2799    19.3702     4.2067 </r>
       <r>    -9.2080    23.0953     5.8653 </r>
       <r>    -9.1362    18.9293     7.2247 </r>
       <r>    -9.0644    10.2568     7.9613 </r>
       <r>    -8.9926     2.8852     8.1685 </r>
       <r>    -8.9208    -0.5107     8.1318 </r>
       <r>    -8.8490    -1.0057     8.0596 </r>
       <r>    -8.7771    -0.5675     8.0188 </r>
       <r>    -8.7053    -0.2011     8.0044 </r>
       <r>    -8.6335    -0.0504     8.0008 </r>
       <r>    -8.5617    -0.0093     8.0001 </r>
       <r>    -8.4899    -0.0013     8.0000 </r>
       <r>    -8.4181    -0.0001     8.0000 </r>
       <r>    -8.3463    -0.0000     8.0000 </r>
       <r>    -8.2744    -0.0000     8.0000 </r>
       <r>    -8.2026    -0.0000     8.0000 </r>
       <r>    -8.1308    -0.0000     8.0000 </r>
       <r>    -8.0590    -0.0000     8.0000 </r>
       <r>    -7.9872    -0.0000     8.0000 </r>
       <r>    -7.9154    -0.0000     8.0000 </r>
       <r>    -7.8436     0.0000     8.0000 </r>
       <r>    -7.7717     0.0000     8.0000 </r>
       <r>    -7.6999     0.0000     8.0000 </r>
       <r>    -7.6281     0.0000     8.0000 </r>
       <r>    -7.5563     0.0000     8.0000 </r>
       <r>    -7.4845     0.0000     8.0000 </r>
       <r>    -7.4127     0.0000     8.0000 </r>
       <r>    -7.3408     0.0000     8.0000 </r>
       <r>    -7.2690     0.0000     8.0000 </r>
       <r>    -7.1972     0.0000     8.0000 </r>
       <r>    -7.1254     0.0000     8.0000 </r>
       <r>    -7.0536     0.0000     8.0000 </r>
       <r>    -6.9818     0.0000     8.0000 </r>
       <r>    -6.9100     0.0000     8.0000 </r>
       <r>    -6.8381     0.0000     8.0000 </r>
       <r>    -6.7663     0.0000     8.0000 </r>
       <r>    -6.6945     0.0000     8.0000 </r>
       <r>    -6.6227     0.0000     8.0000 </r>
       <r>    -6.5509     0.0000     8.0000 </r>
       <r>    -6.4791     0.0000     8.0000 </r>
       <r>    -6.4073     0.0000     8.0000 </r>
       <r>    -6.3354     0.0000     8.0000 </r>
       <r>    -6.2636     0.0000     8.0000 </r>
       <r>    -6.1918     0.0000     8.0000 </r>
       <r>    -6.1200     0.0000     8.0000 </r>
       <r>    -6.0482     0.0000     8.0000 </r>
       <r>    -5.9764     0.0000     8.0000 </r>
       <r>    -5.9045     0.0000     8.0000 </r>
       <r>    -5.8327     0.0000     8.0000 </r>
       <r>    -5.7609     0.0000     8.0000 </r>
       <r>    -5.6891     0.0000     8.0000 </r>
       <r>    -5.6173     0.0000     8.0000 </r>
       <r>    -5.5455     0.0000     8.0000 </r>
       <r>    -5.4737     0.0000     8.0000 </r>
       <r>    -5.4018     0.0000     8.0000 </r>
       <r>    -5.3300     0.0000     8.0000 </r>
       <r>    -5.2582     0.0000     8.0000 </r>
       <r>    -5.1864     0.0000     8.0000 </r>
       <r>    -5.1146     0.0000     8.0000 </r>
       <r>    -5.0428     0.0000     8.0000 </r>
       <r>    -4.9710     0.0000     8.0000 </r>
       <r>    -4.8991     0.0000     8.0000 </r>
       <r>    -4.8273     0.0000     8.0000 </r>
       <r>    -4.7555     0.0000     8.0000 </r>
       <r>    -4.6837     0.0000     8.0000 </r>
       <r>    -4.6119     0.0000     8.0000 </r>
       <r>    -4.5401     0.0000     8.0000 </r>
       <r>    -4.4682     0.0000     8.0000 </r>
       <r>    -4.3964     0.0000     8.0000 </r>
       <r>    -4.3246     0.0000     8.0000 </r>
       <r>    -4.2528     0.0000     8.0000 </r>
       <r>    -4.1810     0.0000     8.0000 </r>
       <r>    -4.1092     0.0000     8.0000 </r>
       <r>    -4.0374     0.0000     8.0000 </r>
       <r>    -3.9655     0.0000     8.0000 </r>
       <r>    -3.8937     0.0000     8.0000 </r>
       <r>    -3.8219     0.0000     8.0000 </r>
       <r>    -3.7501     0.0000     8.0000 </r>
       <r>    -3.6783     0.0000     8.0000 </r>
       <r>    -3.6065     0.0000     8.0000 </r>
       <r>    -3.5346     0.0000     8.0000 </r>
       <r>    -3.4628     0.0000     8.0000 </r>
       <r>    -3.3910     0.0000     8.0000 </r>
       <r>    -3.3192     0.0000     8.0000 </r>
       <r>    -3.2474     0.0000     8.0000 </r>
       <r>    -3.1756     0.0000     8.0000 </r>
       <r>    -3.1038     0.0000     8.0000 </r>
       <r>    -3.0319     0.0000     8.0000 </r>
       <r>    -2.9601     0.0000     8.0000 </r>
       <r>    -2.8883     0.0000     8.0000 </r>
       <r>    -2.8165     0.0000     8.0000 </r>
       <r>    -2.7447     0.0000     8.0000 </r>
       <r>    -2.6729     0.0000     8.0000 </r>
       <r>    -2.6011     0.0000     8.0000 </r>
       <r>    -2.5292     0.0000     8.0000 </r>
       <r>    -2.4574     0.0000     8.0000 </r>
       <r>    -2.3856     0.0000     8.0000 </r>
       <r>    -2.3138     0.0000     8.0000 </r>
       <r>    -2.2420     0.0000     8.0000 </r>
       <r>    -2.1702     0.0000     8.0000 </r>
       <r>    -2.0983     0.0000     8.0000 </r>
       <r>    -2.0265     0.0000     8.0000 </r>
       <r>    -1.9547    -0.0000     8.0000 </r>
       <r>    -1.8829    -0.0000     8.0000 </r>
       <r>    -1.8111    -0.0000     8.0000 </r>
       <r>    -1.7393    -0.0000     8.0000 </r>
       <r>    -1.6675    -0.0000     8.0000 </r>
       <r>    -1.5956    -0.0000     8.0000 </r>
       <r>    -1.5238    -0.0000     8.0000 </r>
       <r>    -1.4520    -0.0000     8.0000 </r>
       <r>    -1.3802    -0.0000     8.0000 </r>
       <r>    -1.3084    -0.0000     8.0000 </r>
       <r>    -1.2366    -0.0000     8.0000 </r>
       <r>    -1.1648    -0.0000     8.0000 </r>
       <r>    -1.0929    -0.0000     8.0000 </r>
       <r>    -1.0211    -0.0002     8.0000 </r>
       <r>    -0.9493    -0.0015     7.9999 </r>
       <r>    -0.8775    -0.0099     7.9992 </r>
       <r>    -0.8057    -0.0480     7.9957 </r>
       <r>    -0.7339    -0.1643     7.9839 </r>
       <r>    -0.6620    -0.3682     7.9575 </r>
       <r>    -0.5902    -0.3827     7.9300 </r>
       <r>    -0.5184     0.5615     7.9703 </r>
       <r>    -0.4466     3.1371     8.1956 </r>
       <r>    -0.3748     6.5256     8.6642 </r>
       <r>    -0.3030     8.3043     9.2606 </r>
       <r>    -0.2312     6.9052     9.7565 </r>
       <r>    -0.1593     3.5750    10.0133 </r>
       <r>    -0.0875     0.8008    10.0708 </r>
       <r>    -0.0157    -0.3425    10.0462 </r>
       <r>     0.0561    -0.4345    10.0150 </r>
       <r>     0.1279    -0.3503     9.9898 </r>
       <r>     0.1997    -0.5012     9.9538 </r>
       <r>     0.2715    -0.7757     9.8981 </r>
       <r>     0.3434    -0.3986     9.8695 </r>
       <r>     0.4152     2.0234    10.0148 </r>
       <r>     0.4870     7.4161    10.5474 </r>
       <r>     0.5588    14.5780    11.5943 </r>
       <r>     0.6306    19.9687    13.0284 </r>
       <r>     0.7024    20.0810    14.4705 </r>
       <r>     0.7743    14.6412    15.5219 </r>
       <r>     0.8461     7.1321    16.0341 </r>
       <r>     0.9179     1.5898    16.1483 </r>
       <r>     0.9897    -0.6583    16.1010 </r>
       <r>     1.0615    -0.8153    16.0425 </r>
       <r>     1.1333    -0.4154    16.0127 </r>
       <r>     1.2051    -0.1374    16.0028 </r>
       <r>     1.2770    -0.0324    16.0005 </r>
       <r>     1.3488    -0.0056    16.0001 </r>
       <r>     1.4206    -0.0007    16.0000 </r>
       <r>     1.4924    -0.0001    16.0000 </r>
       <r>     1.5642    -0.0000    16.0000 </r>
       <r>     1.6360    -0.0000    16.0000 </r>
       <r>     1.7078    -0.0000    16.0000 </r>
       <r>     1.7797    -0.0000    16.0000 </r>
       <r>     1.8515    -0.0000    16.0000 </r>
       <r>     1.9233    -0.0000    16.0000 </r>
       <r>     1.9951    -0.0000    16.0000 </r>
       <r>     2.0669     0.0000    16.0000 </r>
       <r>     2.1387     0.0000    16.0000 </r>
       <r>     2.2106     0.0000    16.0000 </r>
       <r>     2.2824     0.0000    16.0000 </r>
       <r>     2.3542     0.0000    16.0000 </r>
       <r>     2.4260     0.0000    16.0000 </r>
       <r>     2.4978     0.0000    16.0000 </r>
       <r>     2.5696     0.0000    16.0000 </r>
       <r>     2.6414     0.0000    16.0000 </r>
       <r>     2.7133     0.0000    16.0000 </r>
      </set>
     </set>
    </array>
   </total>
  </dos>
  <time name="totalsc">   88.10   88.31</time>
 </calculation>
 <calculation>
  <scstep>
   <time name="dav">    1.94    1.95</time>
   <time name="total">    3.79    3.80</time>
   <energy>
    <i name="alphaZ">      0.23536184 </i>
    <i name="ewald">    127.13563382 </i>
    <i name="hartreedc">   -283.37483865 </i>
    <i name="XCdc">     24.61551436 </i>
    <i name="pawpsdc">    425.32322891 </i>
    <i name="pawaedc">   -426.10342266 </i>
    <i name="eentropy">      0.01180498 </i>
    <i name="bandstr">    -88.88591391 </i>
    <i name="atom">    197.04175453 </i>
    <i name="e_fr_energy">    -24.00087678 </i>
    <i name="e_wo_entrp">    -24.01268175 </i>
    <i name="e_0_energy">    -24.00481177 </i>
   </energy>
  </scstep>
  <scstep>
   <time name="diag">    0.44    0.44</time>
   <time name="diis">    1.45    1.45</time>
   <time name="orth">    0.01    0.01</time>
   <time name="total">    3.54    3.55</time>
   <energy>
    <i name="e_fr_energy">    -23.98705122 </i>
    <i name="e_wo_entrp">    -23.99924394 </i>
    <i name="e_0_energy">    -23.99111546 </i>
   </energy>
  </scstep>
  <scstep>
   <time name="diag">    0.42    0.43</time>
   <time name="diis">    1.49    1.50</time>
   <time name="orth">    0.01    0.01</time>
   <time name="total">    3.55    3.56</time>
   <energy>
    <i name="e_fr_energy">    -24.01918388 </i>
    <i name="e_wo_entrp">    -24.03203145 </i>
    <i name="e_0_energy">    -24.02346640 </i>
   </energy>
  </scstep>
  <scstep>
   <time name="diag">    0.43    0.43</time>
   <time name="diis">    1.46    1.46</time>
   <time name="orth">    0.01    0.01</time>
   <time name="total">    3.63    3.64</time>
   <energy>
    <i name="e_fr_energy">    -23.99360836 </i>
    <i name="e_wo_entrp">    -24.00628266 </i>
    <i name="e_0_energy">    -23.99783313 </i>
   </energy>
  </scstep>
  <scstep>
   <time name="diag">    0.44    0.45</time>
   <time name="diis">    1.43    1.44</time>
   <time name="orth">    0.01    0.01</time>
   <time name="total">    3.64    3.65</time>
   <energy>
    <i name="e_fr_energy">    -23.99545162 </i>
    <i name="e_wo_entrp">    -24.00843999 </i>
    <i name="e_0_energy">    -23.99978107 </i>
   </energy>
  </scstep>
  <scstep>
   <time name="diag">    0.44    0.44</time>
   <time name="diis">    1.42    1.42</time>
   <time name="orth">    0.01    0.01</time>
   <time name="total">    3.64    3.65</time>
   <energy>
    <i name="e_fr_energy">    -23.99522054 </i>
    <i name="e_wo_entrp">    -24.00929562 </i>
    <i name="e_0_energy">    -23.99991223 </i>
   </energy>
  </scstep>
  <scstep>
   <time name="diag">    0.43    0.43</time>
   <time name="diis">    1.42    1.42</time>
   <time name="orth">    0.01    0.01</time>
   <time name="total">    3.66    3.66</time>
   <energy>
    <i name="e_fr_energy">    -23.99539371 </i>
    <i name="e_wo_entrp">    -24.01017352 </i>
    <i name="e_0_energy">    -24.00032031 </i>
   </energy>
  </scstep>
  <scstep>
   <time name="diag">    0.42    0.42</time>
   <time name="diis">    1.46    1.46</time>
   <time name="orth">    0.01    0.01</time>
   <time name="total">    3.71    3.72</time>
   <energy>
    <i name="e_fr_energy">    -23.99567311 </i>
    <i name="e_wo_entrp">    -24.01141310 </i>
    <i name="e_0_energy">    -24.00091977 </i>
   </energy>
  </scstep>
  <scstep>
   <time name="diag">    0.43    0.43</time>
   <time name="diis">    1.47    1.48</time>
   <time name="orth">    0.01    0.01</time>
   <time name="total">    3.72    3.73</time>
   <energy>
    <i name="e_fr_energy">    -23.99580486 </i>
    <i name="e_wo_entrp">    -24.01161135 </i>
    <i name="e_0_energy">    -24.00107369 </i>
   </energy>
  </scstep>
  <scstep>
   <time name="diag">    0.43    0.44</time>
   <time name="diis">    1.49    1.50</time>
   <time name="orth">    0.01    0.01</time>
   <time name="total">    3.68    3.69</time>
   <energy>
    <i name="e_fr_energy">    -23.99583612 </i>
    <i name="e_wo_entrp">    -24.01166105 </i>
    <i name="e_0_energy">    -24.00111110 </i>
   </energy>
  </scstep>
  <scstep>
   <time name="diag">    0.46    0.46</time>
   <time name="diis">    1.46    1.47</time>
   <time name="orth">    0.01    0.01</time>
   <time name="total">    3.73    3.74</time>
   <energy>
    <i name="e_fr_energy">    -23.99584853 </i>
    <i name="e_wo_entrp">    -24.01164315 </i>
    <i name="e_0_energy">    -24.00111341 </i>
   </energy>
  </scstep>
  <scstep>
   <time name="diag">    0.45    0.46</time>
   <time name="diis">    1.33    1.33</time>
   <time name="orth">    0.01    0.01</time>
   <time name="total">    3.55    3.56</time>
   <energy>
    <i name="e_fr_energy">    -23.99585632 </i>
    <i name="e_wo_entrp">    -24.01165057 </i>
    <i name="e_0_energy">    -24.00112107 </i>
   </energy>
  </scstep>
  <scstep>
   <time name="diag">    0.46    0.47</time>
   <time name="diis">    1.42    1.43</time>
   <time name="orth">    0.01    0.01</time>
   <time name="total">    3.71    3.72</time>
   <energy>
    <i name="e_fr_energy">    -23.99586005 </i>
    <i name="e_wo_entrp">    -24.01169660 </i>
    <i name="e_0_energy">    -24.00113890 </i>
   </energy>
  </scstep>
  <scstep>
   <time name="diag">    0.44    0.45</time>
   <time name="diis">    1.28    1.29</time>
   <time name="orth">    0.01    0.01</time>
   <time name="total">    3.57    3.58</time>
   <energy>
    <i name="e_fr_energy">    -23.99586380 </i>
    <i name="e_wo_entrp">    -24.01171976 </i>
    <i name="e_0_energy">    -24.00114912 </i>
   </energy>
  </scstep>
  <scstep>
   <time name="diag">    0.43    0.44</time>
   <time name="diis">    1.17    1.17</time>
   <time name="orth">    0.01    0.01</time>
   <time name="total">    3.45    3.46</time>
   <energy>
    <i name="e_fr_energy">    -23.99586635 </i>
    <i name="e_wo_entrp">    -24.01173230 </i>
    <i name="e_0_energy">    -24.00115500 </i>
   </energy>
  </scstep>
  <scstep>
   <time name="diag">    0.43    0.44</time>
   <time name="diis">    1.19    1.19</time>
   <time name="orth">    0.01    0.01</time>
   <time name="total">    3.21    3.22</time>
   <energy>
    <i name="alphaZ">      0.23536184 </i>
    <i name="ewald">    127.13563382 </i>
    <i name="hartreedc">   -283.18709774 </i>
    <i name="XCdc">     24.60611228 </i>
    <i name="pawpsdc">    421.77082768 </i>
    <i name="pawaedc">   -422.55026855 </i>
    <i name="eentropy">      0.01587071 </i>
    <i name="bandstr">    -89.06406178 </i>
    <i name="atom">    197.04175453 </i>
    <i name="e_fr_energy">    -23.99586719 </i>
    <i name="e_wo_entrp">    -24.01173791 </i>
    <i name="e_0_energy">    -24.00115743 </i>
   </energy>
  </scstep>
  <structure>
   <crystal>
    <varray name="basis" >
     <v>      10.29744236       0.00000000       0.00000000 </v>
     <v>      -0.27065360       9.73419935       0.00000000 </v>
     <v>      -0.04623165       0.00822627      10.26832355 </v>
    </varray>
    <i name="volume">   1029.26961106 </i>
    <varray name="rec_basis" >
     <v>       0.09711149       0.00270013       0.00043507 </v>
     <v>       0.00000000       0.10273059      -0.00008230 </v>
     <v>       0.00000000      -0.00000000       0.09738688 </v>
    </varray>
   </crystal>
   <varray name="positions" >
    <v>       0.53584223       0.41011962       0.36255358 </v>
    <v>       0.39720538       0.47990904       0.44088995 </v>
    <v>       0.55661544       0.57182008       0.44177466 </v>
    <v>       0.52883375       0.41580060       0.53887954 </v>
    <v>       0.50315380       0.46639288       0.44498913 </v>
   </varray>
  </structure>
  <varray name="forces" >
   <v>       0.16297181      -0.60353471      -0.96143037 </v>
   <v>       0.04201311      -0.20415189      -0.29474676 </v>
   <v>      -0.72904274      -1.13366361       0.23279002 </v>
   <v>      -0.23464018       0.22495601      -0.57783710 </v>
   <v>       0.32369979       2.46922681       1.49535705 </v>
  </varray>
  <varray name="stress" >
   <v>      -3.07932350      -1.42368132      -0.06173326 </v>
   <v>      -1.42368132      -1.86402426       1.03606484 </v>
   <v>      -0.06173327       1.03606484      -1.00719791 </v>
  </varray>
  <energy>
   <i name="e_fr_energy">    -23.99586719 </i>
   <i name="e_wo_entrp">    -24.00115743 </i>
   <i name="e_0_energy">      0.01587071 </i>
   <i name="kinetic">      0.06255505 </i>
   <i name="lattice kinetic">      0.00000000 </i>
   <i name="nosepot">      0.00086907 </i>
   <i name="nosekinetic">      0.00139023 </i>
   <i name="total">    -23.93105284 </i>
  </energy>
  <dos>
   <i name="efermi">     -8.82931607 </i>
   <total>
    <array>
     <dimension dim="1">gridpoints</dimension>
     <dimension dim="2">spin</dimension>
     <field>energy</field>
     <field>total</field>
     <field>integrated</field>
     <set>
      <set comment="spin 1">
       <r>   -18.8107     0.0000     0.0000 </r>
       <r>   -18.7390     0.0000     0.0000 </r>
       <r>   -18.6672     0.0000     0.0000 </r>
       <r>   -18.5955     0.0000     0.0000 </r>
       <r>   -18.5238     0.0000     0.0000 </r>
       <r>   -18.4520    -0.0000    -0.0000 </r>
       <r>   -18.3803    -0.0000    -0.0000 </r>
       <r>   -18.3086    -0.0000    -0.0000 </r>
       <r>   -18.2369    -0.0000    -0.0000 </r>
       <r>   -18.1651    -0.0000    -0.0000 </r>
       <r>   -18.0934    -0.0000    -0.0000 </r>
       <r>   -18.0217    -0.0000    -0.0000 </r>
       <r>   -17.9499    -0.0000    -0.0000 </r>
       <r>   -17.8782    -0.0000    -0.0000 </r>
       <r>   -17.8065    -0.0000    -0.0000 </r>
       <r>   -17.7347    -0.0000    -0.0000 </r>
       <r>   -17.6630    -0.0000    -0.0000 </r>
       <r>   -17.5913    -0.0000    -0.0000 </r>
       <r>   -17.5195    -0.0001    -0.0000 </r>
       <r>   -17.4478    -0.0008    -0.0001 </r>
       <r>   -17.3761    -0.0057    -0.0005 </r>
       <r>   -17.3044    -0.0305    -0.0027 </r>
       <r>   -17.2326    -0.1167    -0.0110 </r>
       <r>   -17.1609    -0.3028    -0.0328 </r>
       <r>   -17.0892    -0.4368    -0.0641 </r>
       <r>   -17.0174     0.1046    -0.0566 </r>
       <r>   -16.9457     2.1575     0.0982 </r>
       <r>   -16.8740     5.5020     0.4928 </r>
       <r>   -16.8022     8.0630     1.0712 </r>
       <r>   -16.7305     7.6743     1.6217 </r>
       <r>   -16.6588     4.6866     1.9578 </r>
       <r>   -16.5871     1.5201     2.0669 </r>
       <r>   -16.5153    -0.1328     2.0574 </r>
       <r>   -16.4436    -0.4340     2.0262 </r>
       <r>   -16.3719    -0.2522     2.0081 </r>
       <r>   -16.3001    -0.0879     2.0018 </r>
       <r>   -16.2284    -0.0212     2.0003 </r>
       <r>   -16.1567    -0.0037     2.0000 </r>
       <r>   -16.0849    -0.0005     2.0000 </r>
       <r>   -16.0132    -0.0000     2.0000 </r>
       <r>   -15.9415    -0.0000     2.0000 </r>
       <r>   -15.8698    -0.0000     2.0000 </r>
       <r>   -15.7980    -0.0000     2.0000 </r>
       <r>   -15.7263    -0.0000     2.0000 </r>
       <r>   -15.6546    -0.0000     2.0000 </r>
       <r>   -15.5828    -0.0000     2.0000 </r>
       <r>   -15.5111     0.0000     2.0000 </r>
       <r>   -15.4394     0.0000     2.0000 </r>
       <r>   -15.3676     0.0000     2.0000 </r>
       <r>   -15.2959     0.0000     2.0000 </r>
       <r>   -15.2242     0.0000     2.0000 </r>
       <r>   -15.1525     0.0000     2.0000 </r>
       <r>   -15.0807     0.0000     2.0000 </r>
       <r>   -15.0090     0.0000     2.0000 </r>
       <r>   -14.9373     0.0000     2.0000 </r>
       <r>   -14.8655     0.0000     2.0000 </r>
       <r>   -14.7938     0.0000     2.0000 </r>
       <r>   -14.7221     0.0000     2.0000 </r>
       <r>   -14.6503     0.0000     2.0000 </r>
       <r>   -14.5786     0.0000     2.0000 </r>
       <r>   -14.5069     0.0000     2.0000 </r>
       <r>   -14.4352     0.0000     2.0000 </r>
       <r>   -14.3634     0.0000     2.0000 </r>
       <r>   -14.2917     0.0000     2.0000 </r>
       <r>   -14.2200     0.0000     2.0000 </r>
       <r>   -14.1482     0.0000     2.0000 </r>
       <r>   -14.0765     0.0000     2.0000 </r>
       <r>   -14.0048     0.0000     2.0000 </r>
       <r>   -13.9330     0.0000     2.0000 </r>
       <r>   -13.8613     0.0000     2.0000 </r>
       <r>   -13.7896     0.0000     2.0000 </r>
       <r>   -13.7178     0.0000     2.0000 </r>
       <r>   -13.6461     0.0000     2.0000 </r>
       <r>   -13.5744     0.0000     2.0000 </r>
       <r>   -13.5027     0.0000     2.0000 </r>
       <r>   -13.4309     0.0000     2.0000 </r>
       <r>   -13.3592     0.0000     2.0000 </r>
       <r>   -13.2875     0.0000     2.0000 </r>
       <r>   -13.2157     0.0000     2.0000 </r>
       <r>   -13.1440     0.0000     2.0000 </r>
       <r>   -13.0723     0.0000     2.0000 </r>
       <r>   -13.0005     0.0000     2.0000 </r>
       <r>   -12.9288     0.0000     2.0000 </r>
       <r>   -12.8571     0.0000     2.0000 </r>
       <r>   -12.7854     0.0000     2.0000 </r>
       <r>   -12.7136     0.0000     2.0000 </r>
       <r>   -12.6419     0.0000     2.0000 </r>
       <r>   -12.5702     0.0000     2.0000 </r>
       <r>   -12.4984     0.0000     2.0000 </r>
       <r>   -12.4267     0.0000     2.0000 </r>
       <r>   -12.3550     0.0000     2.0000 </r>
       <r>   -12.2832     0.0000     2.0000 </r>
       <r>   -12.2115     0.0000     2.0000 </r>
       <r>   -12.1398     0.0000     2.0000 </r>
       <r>   -12.0681     0.0000     2.0000 </r>
       <r>   -11.9963     0.0000     2.0000 </r>
       <r>   -11.9246     0.0000     2.0000 </r>
       <r>   -11.8529     0.0000     2.0000 </r>
       <r>   -11.7811     0.0000     2.0000 </r>
       <r>   -11.7094     0.0000     2.0000 </r>
       <r>   -11.6377     0.0000     2.0000 </r>
       <r>   -11.5659     0.0000     2.0000 </r>
       <r>   -11.4942     0.0000     2.0000 </r>
       <r>   -11.4225     0.0000     2.0000 </r>
       <r>   -11.3508     0.0000     2.0000 </r>
       <r>   -11.2790     0.0000     2.0000 </r>
       <r>   -11.2073     0.0000     2.0000 </r>
       <r>   -11.1356    -0.0000     2.0000 </r>
       <r>   -11.0638    -0.0000     2.0000 </r>
       <r>   -10.9921    -0.0000     2.0000 </r>
       <r>   -10.9204    -0.0000     2.0000 </r>
       <r>   -10.8486    -0.0000     2.0000 </r>
       <r>   -10.7769    -0.0000     2.0000 </r>
       <r>   -10.7052    -0.0000     2.0000 </r>
       <r>   -10.6335    -0.0000     2.0000 </r>
       <r>   -10.5617    -0.0000     2.0000 </r>
       <r>   -10.4900    -0.0000     2.0000 </r>
       <r>   -10.4183    -0.0000     2.0000 </r>
       <r>   -10.3465    -0.0000     2.0000 </r>
       <r>   -10.2748    -0.0000     2.0000 </r>
       <r>   -10.2031    -0.0001     2.0000 </r>
       <r>   -10.1313    -0.0008     1.9999 </r>
       <r>   -10.0596    -0.0056     1.9995 </r>
       <r>    -9.9879    -0.0299     1.9974 </r>
       <r>    -9.9161    -0.1152     1.9891 </r>
       <r>    -9.8444    -0.3017     1.9675 </r>
       <r>    -9.7727    -0.4488     1.9353 </r>
       <r>    -9.7010     0.0356     1.9379 </r>
       <r>    -9.6292     1.9412     2.0771 </r>
       <r>    -9.5575     5.0689     2.4407 </r>
       <r>    -9.4858     7.6571     2.9899 </r>
       <r>    -9.4140     8.2736     3.5834 </r>
       <r>    -9.3423     7.8033     4.1431 </r>
       <r>    -9.2706     7.8483     4.7061 </r>
       <r>    -9.1988     8.2858     5.3004 </r>
       <r>    -9.1271     8.4117     5.9038 </r>
       <r>    -9.0554     8.5680     6.5184 </r>
       <r>    -8.9837     8.6399     7.1381 </r>
       <r>    -8.9119     7.3102     7.6625 </r>
       <r>    -8.8402     4.3336     7.9733 </r>
       <r>    -8.7685     1.3663     8.0714 </r>
       <r>    -8.6967    -0.1780     8.0586 </r>
       <r>    -8.6250    -0.4459     8.0266 </r>
       <r>    -8.5533    -0.2558     8.0082 </r>
       <r>    -8.4815    -0.0891     8.0019 </r>
       <r>    -8.4098    -0.0215     8.0003 </r>
       <r>    -8.3381    -0.0038     8.0000 </r>
       <r>    -8.2664    -0.0005     8.0000 </r>
       <r>    -8.1946    -0.0000     8.0000 </r>
       <r>    -8.1229    -0.0000     8.0000 </r>
       <r>    -8.0512    -0.0000     8.0000 </r>
       <r>    -7.9794    -0.0000     8.0000 </r>
       <r>    -7.9077    -0.0000     8.0000 </r>
       <r>    -7.8360    -0.0000     8.0000 </r>
       <r>    -7.7642    -0.0000     8.0000 </r>
       <r>    -7.6925     0.0000     8.0000 </r>
       <r>    -7.6208     0.0000     8.0000 </r>
       <r>    -7.5491     0.0000     8.0000 </r>
       <r>    -7.4773     0.0000     8.0000 </r>
       <r>    -7.4056     0.0000     8.0000 </r>
       <r>    -7.3339     0.0000     8.0000 </r>
       <r>    -7.2621     0.0000     8.0000 </r>
       <r>    -7.1904     0.0000     8.0000 </r>
       <r>    -7.1187     0.0000     8.0000 </r>
       <r>    -7.0469     0.0000     8.0000 </r>
       <r>    -6.9752     0.0000     8.0000 </r>
       <r>    -6.9035     0.0000     8.0000 </r>
       <r>    -6.8318     0.0000     8.0000 </r>
       <r>    -6.7600     0.0000     8.0000 </r>
       <r>    -6.6883     0.0000     8.0000 </r>
       <r>    -6.6166     0.0000     8.0000 </r>
       <r>    -6.5448     0.0000     8.0000 </r>
       <r>    -6.4731     0.0000     8.0000 </r>
       <r>    -6.4014     0.0000     8.0000 </r>
       <r>    -6.3296     0.0000     8.0000 </r>
       <r>    -6.2579     0.0000     8.0000 </r>
       <r>    -6.1862     0.0000     8.0000 </r>
       <r>    -6.1144     0.0000     8.0000 </r>
       <r>    -6.0427     0.0000     8.0000 </r>
       <r>    -5.9710     0.0000     8.0000 </r>
       <r>    -5.8993     0.0000     8.0000 </r>
       <r>    -5.8275     0.0000     8.0000 </r>
       <r>    -5.7558     0.0000     8.0000 </r>
       <r>    -5.6841     0.0000     8.0000 </r>
       <r>    -5.6123     0.0000     8.0000 </r>
       <r>    -5.5406     0.0000     8.0000 </r>
       <r>    -5.4689     0.0000     8.0000 </r>
       <r>    -5.3971     0.0000     8.0000 </r>
       <r>    -5.3254     0.0000     8.0000 </r>
       <r>    -5.2537     0.0000     8.0000 </r>
       <r>    -5.1820     0.0000     8.0000 </r>
       <r>    -5.1102     0.0000     8.0000 </r>
       <r>    -5.0385     0.0000     8.0000 </r>
       <r>    -4.9668     0.0000     8.0000 </r>
       <r>    -4.8950     0.0000     8.0000 </r>
       <r>    -4.8233     0.0000     8.0000 </r>
       <r>    -4.7516     0.0000     8.0000 </r>
       <r>    -4.6798     0.0000     8.0000 </r>
       <r>    -4.6081     0.0000     8.0000 </r>
       <r>    -4.5364     0.0000     8.0000 </r>
       <r>    -4.4647     0.0000     8.0000 </r>
       <r>    -4.3929     0.0000     8.0000 </r>
       <r>    -4.3212     0.0000     8.0000 </r>
       <r>    -4.2495     0.0000     8.0000 </r>
       <r>    -4.1777     0.0000     8.0000 </r>
       <r>    -4.1060     0.0000     8.0000 </r>
       <r>    -4.0343     0.0000     8.0000 </r>
       <r>    -3.9625     0.0000     8.0000 </r>
       <r>    -3.8908     0.0000     8.0000 </r>
       <r>    -3.8191     0.0000     8.0000 </r>
       <r>    -3.7474     0.0000     8.0000 </r>
       <r>    -3.6756     0.0000     8.0000 </r>
       <r>    -3.6039     0.0000     8.0000 </r>
       <r>    -3.5322     0.0000     8.0000 </r>
       <r>    -3.4604     0.0000     8.0000 </r>
       <r>    -3.3887     0.0000     8.0000 </r>
       <r>    -3.3170     0.0000     8.0000 </r>
       <r>    -3.2452     0.0000     8.0000 </r>
       <r>    -3.1735     0.0000     8.0000 </r>
       <r>    -3.1018     0.0000     8.0000 </r>
       <r>    -3.0301     0.0000     8.0000 </r>
       <r>    -2.9583     0.0000     8.0000 </r>
       <r>    -2.8866     0.0000     8.0000 </r>
       <r>    -2.8149     0.0000     8.0000 </r>
       <r>    -2.7431     0.0000     8.0000 </r>
       <r>    -2.6714     0.0000     8.0000 </r>
       <r>    -2.5997     0.0000     8.0000 </r>
       <r>    -2.5279     0.0000     8.0000 </r>
       <r>    -2.4562     0.0000     8.0000 </r>
       <r>    -2.3845     0.0000     8.0000 </r>
       <r>    -2.3127     0.0000     8.0000 </r>
       <r>    -2.2410     0.0000     8.0000 </r>
       <r>    -2.1693     0.0000     8.0000 </r>
       <r>    -2.0976     0.0000     8.0000 </r>
       <r>    -2.0258     0.0000     8.0000 </r>
       <r>    -1.9541    -0.0000     8.0000 </r>
       <r>    -1.8824    -0.0000     8.0000 </r>
       <r>    -1.8106    -0.0000     8.0000 </r>
       <r>    -1.7389    -0.0000     8.0000 </r>
       <r>    -1.6672    -0.0000     8.0000 </r>
       <r>    -1.5954    -0.0000     8.0000 </r>
       <r>    -1.5237    -0.0000     8.0000 </r>
       <r>    -1.4520    -0.0000     8.0000 </r>
       <r>    -1.3803    -0.0000     8.0000 </r>
       <r>    -1.3085    -0.0000     8.0000 </r>
       <r>    -1.2368    -0.0000     8.0000 </r>
       <r>    -1.1651    -0.0000     8.0000 </r>
       <r>    -1.0933    -0.0000     8.0000 </r>
       <r>    -1.0216    -0.0002     8.0000 </r>
       <r>    -0.9499    -0.0017     7.9999 </r>
       <r>    -0.8781    -0.0108     7.9991 </r>
       <r>    -0.8064    -0.0510     7.9954 </r>
       <r>    -0.7347    -0.1718     7.9831 </r>
       <r>    -0.6630    -0.3762     7.9561 </r>
       <r>    -0.5912    -0.3692     7.9296 </r>
       <r>    -0.5195     0.6313     7.9749 </r>
       <r>    -0.4478     3.2637     8.2090 </r>
       <r>    -0.3760     6.6355     8.6850 </r>
       <r>    -0.3043     8.3089     9.2810 </r>
       <r>    -0.2326     6.8072     9.7693 </r>
       <r>    -0.1608     3.4620    10.0176 </r>
       <r>    -0.0891     0.7393    10.0706 </r>
       <r>    -0.0174    -0.3554    10.0451 </r>
       <r>     0.0543    -0.4301    10.0143 </r>
       <r>     0.1261    -0.3457     9.9895 </r>
       <r>     0.1978    -0.4937     9.9541 </r>
       <r>     0.2695    -0.7524     9.9001 </r>
       <r>     0.3413    -0.3662     9.8738 </r>
       <r>     0.4130     1.9958    10.0170 </r>
       <r>     0.4847     7.2336    10.5359 </r>
       <r>     0.5565    14.2812    11.5603 </r>
       <r>     0.6282    19.7925    12.9800 </r>
       <r>     0.6999    20.2051    14.4293 </r>
       <r>     0.7716    14.9533    15.5019 </r>
       <r>     0.8434     7.3827    16.0315 </r>
       <r>     0.9151     1.6776    16.1518 </r>
       <r>     0.9868    -0.6675    16.1039 </r>
       <r>     1.0586    -0.8400    16.0437 </r>
       <r>     1.1303    -0.4281    16.0130 </r>
       <r>     1.2020    -0.1411    16.0028 </r>
       <r>     1.2738    -0.0331    16.0005 </r>
       <r>     1.3455    -0.0057    16.0001 </r>
       <r>     1.4172    -0.0007    16.0000 </r>
       <r>     1.4890    -0.0001    16.0000 </r>
       <r>     1.5607    -0.0000    16.0000 </r>
       <r>     1.6324    -0.0000    16.0000 </r>
       <r>     1.7041    -0.0000    16.0000 </r>
       <r>     1.7759    -0.0000    16.0000 </r>
       <r>     1.8476    -0.0000    16.0000 </r>
       <r>     1.9193    -0.0000    16.0000 </r>
       <r>     1.9911    -0.0000    16.0000 </r>
       <r>     2.0628     0.0000    16.0000 </r>
       <r>     2.1345     0.0000    16.0000 </r>
       <r>     2.2063     0.0000    16.0000 </r>
       <r>     2.2780     0.0000    16.0000 </r>
       <r>     2.3497     0.0000    16.0000 </r>
       <r>     2.4214     0.0000    16.0000 </r>
       <r>     2.4932     0.0000    16.0000 </r>
       <r>     2.5649     0.0000    16.0000 </r>
       <r>     2.6366     0.0000    16.0000 </r>
       <r>     2.7084     0.0000    16.0000 </r>
      </set>
     </set>
    </array>
   </total>
  </dos>
  <time name="totalsc">   65.19   65.36</time>
 </calculation>
 <calculation>
  <scstep>
   <time name="dav">    2.02    2.03</time>
   <time name="total">    3.82    3.83</time>
   <energy>
    <i name="alphaZ">      0.23536184 </i>
    <i name="ewald">    128.59999486 </i>
    <i name="hartreedc">   -283.92827641 </i>
    <i name="XCdc">     24.64639702 </i>
    <i name="pawpsdc">    420.97984724 </i>
    <i name="pawaedc">   -421.75927492 </i>
    <i name="eentropy">      0.01168095 </i>
    <i name="bandstr">    -89.79849994 </i>
    <i name="atom">    197.04175453 </i>
    <i name="e_fr_energy">    -23.97101482 </i>
    <i name="e_wo_entrp">    -23.98269576 </i>
    <i name="e_0_energy">    -23.97490847 </i>
   </energy>
  </scstep>
  <scstep>
   <time name="diag">    0.45    0.45</time>
   <time name="diis">    1.48    1.49</time>
   <time name="orth">    0.01    0.01</time>
   <time name="total">    3.68    3.69</time>
   <energy>
    <i name="e_fr_energy">    -23.97282450 </i>
    <i name="e_wo_entrp">    -23.98460931 </i>
    <i name="e_0_energy">    -23.97675277 </i>
   </energy>
  </scstep>
  <scstep>
   <time name="diag">    0.44    0.44</time>
   <time name="diis">    1.46    1.46</time>
   <time name="orth">    0.01    0.01</time>
   <time name="total">    3.70    3.71</time>
   <energy>
    <i name="e_fr_energy">    -23.97488506 </i>
    <i name="e_wo_entrp">    -23.98729693 </i>
    <i name="e_0_energy">    -23.97902235 </i>
   </energy>
  </scstep>
  <scstep>
   <time name="diag">    0.43    0.43</time>
   <time name="diis">    1.47    1.48</time>
   <time name="orth">    0.01    0.01</time>
   <time name="total">    3.68    3.69</time>
   <energy>
    <i name="e_fr_energy">    -23.97621091 </i>
    <i name="e_wo_entrp">    -23.98839759 </i>
    <i name="e_0_energy">    -23.98027313 </i>
   </energy>
  </scstep>
  <scstep>
   <time name="diag">    0.42    0.42</time>
   <time name="diis">    1.48    1.48</time>
   <time name="orth">    0.01    0.01</time>
   <time name="total">    3.68    3.69</time>
   <energy>
    <i name="e_fr_energy">    -23.97278216 </i>
    <i name="e_wo_entrp">    -23.98461613 </i>
    <i name="e_0_energy">    -23.97672682 </i>
   </energy>
  </scstep>
  <scstep>
   <time name="diag">    0.43    0.43</time>
   <time name="diis">    1.46    1.47</time>
   <time name="orth">    0.01    0.01</time>
   <time name="total">    3.75    3.76</time>
   <energy>
    <i name="e_fr_energy">    -23.97210835 </i>
    <i name="e_wo_entrp">    -23.98384872 </i>
    <i name="e_0_energy">    -23.97602181 </i>
   </energy>
  </scstep>
  <scstep>
   <time name="diag">    0.43    0.43</time>
   <time name="diis">    1.44    1.45</time>
   <time name="orth">    0.01    0.01</time>
   <time name="total">    3.72    3.73</time>
   <energy>
    <i name="e_fr_energy">    -23.97191666 </i>
    <i name="e_wo_entrp">    -23.98359048 </i>
    <i name="e_0_energy">    -23.97580793 </i>
   </energy>
  </scstep>
  <scstep>
   <time name="diag">    0.44    0.44</time>
   <time name="diis">    1.45    1.45</time>
   <time name="orth">    0.01    0.01</time>
   <time name="total">    3.79    3.80</time>
   <energy>
    <i name="e_fr_energy">    -23.97197749 </i>
    <i name="e_wo_entrp">    -23.98364561 </i>
    <i name="e_0_energy">    -23.97586686 </i>
   </energy>
  </scstep>
  <scstep>
   <time name="diag">    0.45    0.46</time>
   <time name="diis">    1.43    1.44</time>
   <time name="orth">    0.01    0.01</time>
   <time name="total">    3.80    3.81</time>
   <energy>
    <i name="e_fr_energy">    -23.97201030 </i>
    <i name="e_wo_entrp">    -23.98367894 </i>
    <i name="e_0_energy">    -23.97589985 </i>
   </energy>
  </scstep>
  <scstep>
   <time name="diag">    0.41    0.41</time>
   <time name="diis">    1.46    1.46</time>
   <time name="orth">    0.01    0.01</time>
   <time name="total">    3.80    3.81</time>
   <energy>
    <i name="e_fr_energy">    -23.97202244 </i>
    <i name="e_wo_entrp">    -23.98369272 </i>
    <i name="e_0_energy">    -23.97591253 </i>
   </energy>
  </scstep>
  <scstep>
   <time name="diag">    0.44    0.45</time>
   <time name="diis">    1.19    1.20</time>
   <time name="orth">    0.01    0.01</time>
   <time name="total">    3.55    3.56</time>
   <energy>
    <i name="e_fr_energy">    -23.97203159 </i>
    <i name="e_wo_entrp">    -23.98370110 </i>
    <i name="e_0_energy">    -23.97592143 </i>
   </energy>
  </scstep>
  <scstep>
   <time name="diag">    0.46    0.46</time>
   <time name="diis">    1.40    1.40</time>
   <time name="orth">    0.01    0.01</time>
   <time name="total">    3.77    3.78</time>
   <energy>
    <i name="e_fr_energy">    -23.97203690 </i>
    <i name="e_wo_entrp">    -23.98370366 </i>
    <i name="e_0_energy">    -23.97592582 </i>
   </energy>
  </scstep>
  <scstep>
   <time name="diag">    0.45    0.45</time>
   <time name="diis">    1.18    1.18</time>
   <time name="orth">    0.01    0.01</time>
   <time name="total">    3.55    3.56</time>
   <energy>
    <i name="e_fr_energy">    -23.97203869 </i>
    <i name="e_wo_entrp">    -23.98370576 </i>
    <i name="e_0_energy">    -23.97592771 </i>
   </energy>
  </scstep>
  <scstep>
   <time name="diag">    0.47    0.47</time>
   <time name="diis">    1.15    1.16</time>
   <time name="orth">    0.01    0.01</time>
   <time name="total">    3.64    3.65</time>
   <energy>
    <i name="e_fr_energy">    -23.97203987 </i>
    <i name="e_wo_entrp">    -23.98370638 </i>
    <i name="e_0_energy">    -23.97592871 </i>
   </energy>
  </scstep>
  <scstep>
   <time name="diag">    0.46    0.46</time>
   <time name="diis">    1.14    1.15</time>
   <time name="orth">    0.01    0.01</time>
   <time name="total">    3.27    3.28</time>
   <energy>
    <i name="alphaZ">      0.23536184 </i>
    <i name="ewald">    128.59999486 </i>
    <i name="hartreedc">   -284.41694806 </i>
    <i name="XCdc">     24.67344125 </i>
    <i name="pawpsdc">    428.56028700 </i>
    <i name="pawaedc">   -429.34602123 </i>
    <i name="eentropy">      0.01166692 </i>
    <i name="bandstr">    -89.33157727 </i>
    <i name="atom">    197.04175453 </i>
    <i name="e_fr_energy">    -23.97204015 </i>
    <i name="e_wo_entrp">    -23.98370707 </i>
    <i name="e_0_energy">    -23.97592912 </i>
   </energy>
  </scstep>
  <structure>
   <crystal>
    <varray name="basis" >
     <v>      10.29744236       0.00000000       0.00000000 </v>
     <v>      -0.27065360       9.73419935       0.00000000 </v>
     <v>      -0.04623165       0.00822627      10.26832355 </v>
    </varray>
    <i name="volume">   1029.26961106 </i>
    <varray name="rec_basis" >
     <v>       0.09711149       0.00270013       0.00043507 </v>
     <v>       0.00000000       0.10273059      -0.00008230 </v>
     <v>       0.00000000      -0.00000000       0.09738688 </v>
    </varray>
   </crystal>
   <varray name="positions" >
    <v>       0.53401890       0.41029729       0.36150222 </v>
    <v>       0.39992771       0.47848833       0.44171417 </v>
    <v>       0.55838797       0.57349870       0.44163204 </v>
    <v>       0.52811876       0.41525417       0.53685556 </v>
    <v>       0.50299090       0.46640211       0.44518843 </v>
   </varray>
  </structure>
  <varray name="forces" >
   <v>       0.42178620      -0.72298410      -1.07879861 </v>
   <v>      -0.03602177      -0.30794918       0.17368387 </v>
   <v>      -1.27353425      -2.19662868       0.52057723 </v>
   <v>      -0.06233095       0.03138935      -0.21452335 </v>
   <v>       1.59360727       2.85967977       0.71979626 </v>
  </varray>
  <varray name="stress" >
   <v>      -2.46197224      -2.45095026       0.10093472 </v>
   <v>      -2.45095026      -2.58902958       1.02868968 </v>
   <v>       0.10093473       1.02868968      -0.77410534 </v>
  </varray>
  <energy>
   <i name="e_fr_energy">    -23.97204015 </i>
   <i name="e_wo_entrp">    -23.97592912 </i>
   <i name="e_0_energy">      0.01166692 </i>
   <i name="kinetic">      0.05536561 </i>
   <i name="lattice kinetic">      0.00000000 </i>
   <i name="nosepot">      0.00264011 </i>
   <i name="nosekinetic">      0.00362285 </i>
   <i name="total">    -23.91041158 </i>
  </energy>
  <dos>
   <i name="efermi">     -8.74895525 </i>
   <total>
    <array>
     <dimension dim="1">gridpoints</dimension>
     <dimension dim="2">spin</dimension>
     <field>energy</field>
     <field>total</field>
     <field>integrated</field>
     <set>
      <set comment="spin 1">
       <r>   -18.8697     0.0000     0.0000 </r>
       <r>   -18.7977     0.0000     0.0000 </r>
       <r>   -18.7258     0.0000     0.0000 </r>
       <r>   -18.6539     0.0000     0.0000 </r>
       <r>   -18.5819     0.0000     0.0000 </r>
       <r>   -18.5100    -0.0000    -0.0000 </r>
       <r>   -18.4381    -0.0000    -0.0000 </r>
       <r>   -18.3662    -0.0000    -0.0000 </r>
       <r>   -18.2942    -0.0000    -0.0000 </r>
       <r>   -18.2223    -0.0000    -0.0000 </r>
       <r>   -18.1504    -0.0000    -0.0000 </r>
       <r>   -18.0784    -0.0000    -0.0000 </r>
       <r>   -18.0065    -0.0000    -0.0000 </r>
       <r>   -17.9346    -0.0000    -0.0000 </r>
       <r>   -17.8627    -0.0000    -0.0000 </r>
       <r>   -17.7907    -0.0000    -0.0000 </r>
       <r>   -17.7188    -0.0000    -0.0000 </r>
       <r>   -17.6469    -0.0000    -0.0000 </r>
       <r>   -17.5750    -0.0001    -0.0000 </r>
       <r>   -17.5030    -0.0009    -0.0001 </r>
       <r>   -17.4311    -0.0063    -0.0005 </r>
       <r>   -17.3592    -0.0332    -0.0029 </r>
       <r>   -17.2872    -0.1250    -0.0119 </r>
       <r>   -17.2153    -0.3162    -0.0346 </r>
       <r>   -17.1434    -0.4317    -0.0657 </r>
       <r>   -17.0715     0.1889    -0.0521 </r>
       <r>   -16.9995     2.3647     0.1180 </r>
       <r>   -16.9276     5.7481     0.5314 </r>
       <r>   -16.8557     8.1508     1.1177 </r>
       <r>   -16.7838     7.5083     1.6577 </r>
       <r>   -16.7118     4.4019     1.9744 </r>
       <r>   -16.6399     1.3150     2.0689 </r>
       <r>   -16.5680    -0.1999     2.0546 </r>
       <r>   -16.4960    -0.4260     2.0239 </r>
       <r>   -16.4241    -0.2330     2.0072 </r>
       <r>   -16.3522    -0.0780     2.0016 </r>
       <r>   -16.2803    -0.0181     2.0003 </r>
       <r>   -16.2083    -0.0031     2.0000 </r>
       <r>   -16.1364    -0.0004     2.0000 </r>
       <r>   -16.0645    -0.0000     2.0000 </r>
       <r>   -15.9926    -0.0000     2.0000 </r>
       <r>   -15.9206    -0.0000     2.0000 </r>
       <r>   -15.8487    -0.0000     2.0000 </r>
       <r>   -15.7768    -0.0000     2.0000 </r>
       <r>   -15.7048    -0.0000     2.0000 </r>
       <r>   -15.6329    -0.0000     2.0000 </r>
       <r>   -15.5610     0.0000     2.0000 </r>
       <r>   -15.4891     0.0000     2.0000 </r>
       <r>   -15.4171     0.0000     2.0000 </r>
       <r>   -15.3452     0.0000     2.0000 </r>
       <r>   -15.2733     0.0000     2.0000 </r>
       <r>   -15.2013     0.0000     2.0000 </r>
       <r>   -15.1294     0.0000     2.0000 </r>
       <r>   -15.0575     0.0000     2.0000 </r>
       <r>   -14.9856     0.0000     2.0000 </r>
       <r>   -14.9136     0.0000     2.0000 </r>
       <r>   -14.8417     0.0000     2.0000 </r>
       <r>   -14.7698     0.0000     2.0000 </r>
       <r>   -14.6979     0.0000     2.0000 </r>
       <r>   -14.6259     0.0000     2.0000 </r>
       <r>   -14.5540     0.0000     2.0000 </r>
       <r>   -14.4821     0.0000     2.0000 </r>
       <r>   -14.4101     0.0000     2.0000 </r>
       <r>   -14.3382     0.0000     2.0000 </r>
       <r>   -14.2663     0.0000     2.0000 </r>
       <r>   -14.1944     0.0000     2.0000 </r>
       <r>   -14.1224     0.0000     2.0000 </r>
       <r>   -14.0505     0.0000     2.0000 </r>
[...]
       <r>     0.2623    -0.7210     9.9133 </r>
       <r>     0.3345    -0.6037     9.8697 </r>
       <r>     0.4067     1.1864     9.9554 </r>
       <r>     0.4789     5.8494    10.3776 </r>
       <r>     0.5510    12.8562    11.3056 </r>
       <r>     0.6232    19.1314    12.6865 </r>
       <r>     0.6954    20.7275    14.1826 </r>
       <r>     0.7676    16.2713    15.3571 </r>
       <r>     0.8398     8.6487    15.9814 </r>
       <r>     0.9120     2.3572    16.1515 </r>
       <r>     0.9841    -0.5082    16.1148 </r>
       <r>     1.0563    -0.8884    16.0507 </r>
       <r>     1.1285    -0.4867    16.0156 </r>
       <r>     1.2007    -0.1673    16.0035 </r>
       <r>     1.2729    -0.0404    16.0006 </r>
       <r>     1.3450    -0.0071    16.0001 </r>
       <r>     1.4172    -0.0009    16.0000 </r>
       <r>     1.4894    -0.0001    16.0000 </r>
       <r>     1.5616    -0.0000    16.0000 </r>
       <r>     1.6338    -0.0000    16.0000 </r>
       <r>     1.7059    -0.0000    16.0000 </r>
       <r>     1.7781    -0.0000    16.0000 </r>
       <r>     1.8503    -0.0000    16.0000 </r>
       <r>     1.9225    -0.0000    16.0000 </r>
       <r>     1.9947    -0.0000    16.0000 </r>
       <r>     2.0669     0.0000    16.0000 </r>
       <r>     2.1390     0.0000    16.0000 </r>
       <r>     2.2112     0.0000    16.0000 </r>
       <r>     2.2834     0.0000    16.0000 </r>
       <r>     2.3556     0.0000    16.0000 </r>
       <r>     2.4278     0.0000    16.0000 </r>
       <r>     2.4999     0.0000    16.0000 </r>
       <r>     2.5721     0.0000    16.0000 </r>
       <r>     2.6443     0.0000    16.0000 </r>
       <r>     2.7165     0.0000    16.0000 </r>
      </set>
     </set>
    </array>
   </total>
  </dos>
  <time name="totalsc">   54.56   54.70</time>
  <eigenvalues>
   <array>
    <dimension dim="1">band</dimension>
    <dimension dim="2">kpoint</dimension>
    <dimension dim="3">spin</dimension>
    <field>eigene</field>
    <field>occ</field>
    <set>
     <set comment="spin 1">
      <set comment="kpoint 1">
       <r>  -16.9142    1.0000 </r>
       <r>   -9.5183    1.0000 </r>
       <r>   -9.2483    1.0107 </r>
       <r>   -9.0265    0.9893 </r>
       <r>   -0.3113    0.0000 </r>
       <r>    0.5435    0.0000 </r>
       <r>    0.6571    0.0000 </r>
       <r>    0.6916    0.0000 </r>
      </set>
      <set comment="kpoint 2">
       <r>  -16.9142    1.0000 </r>
       <r>   -9.5182    1.0000 </r>
       <r>   -9.2482    1.0107 </r>
       <r>   -9.0265    0.9893 </r>
       <r>   -0.3184    0.0000 </r>
       <r>    0.5584    0.0000 </r>
       <r>    0.6660    0.0000 </r>
       <r>    0.7137    0.0000 </r>
      </set>
      <set comment="kpoint 3">
       <r>  -16.9142    1.0000 </r>
       <r>   -9.5182    1.0000 </r>
       <r>   -9.2482    1.0107 </r>
       <r>   -9.0265    0.9892 </r>
       <r>   -0.3158    0.0000 </r>
       <r>    0.5459    0.0000 </r>
       <r>    0.6646    0.0000 </r>
       <r>    0.7101    0.0000 </r>
      </set>
      <set comment="kpoint 4">
       <r>  -16.9142    1.0000 </r>
       <r>   -9.5182    1.0000 </r>
       <r>   -9.2483    1.0107 </r>
       <r>   -9.0266    0.9893 </r>
       <r>   -0.3111    0.0000 </r>
       <r>    0.5392    0.0000 </r>
       <r>    0.6671    0.0000 </r>
       <r>    0.6884    0.0000 </r>
      </set>
     </set>
    </set>
   </array>
  </eigenvalues>
  <separator name="orbital magnetization" >
   <v name="MAGDIPOLOUT">      0.00000000      0.00000000      0.00000000</v>
  </separator>
  <dos>
   <i name="efermi">     -8.86712834 </i>
   <total>
    <array>
     <dimension dim="1">gridpoints</dimension>
     <dimension dim="2">spin</dimension>
     <field>energy</field>
     <field>total</field>
     <field>integrated</field>
     <set>
      <set comment="spin 1">
       <r>   -18.9142     0.0000     0.0000 </r>
       <r>   -18.8421     0.0000     0.0000 </r>
       <r>   -18.7700     0.0000     0.0000 </r>
       <r>   -18.6979     0.0000     0.0000 </r>
       <r>   -18.6258     0.0000     0.0000 </r>
       <r>   -18.5537    -0.0000    -0.0000 </r>
       <r>   -18.4816    -0.0000    -0.0000 </r>
       <r>   -18.4096    -0.0000    -0.0000 </r>
       <r>   -18.3375    -0.0000    -0.0000 </r>
       <r>   -18.2654    -0.0000    -0.0000 </r>
       <r>   -18.1933    -0.0000    -0.0000 </r>
       <r>   -18.1212    -0.0000    -0.0000 </r>
       <r>   -18.0491    -0.0000    -0.0000 </r>
       <r>   -17.9770    -0.0000    -0.0000 </r>
       <r>   -17.9049    -0.0000    -0.0000 </r>
       <r>   -17.8328    -0.0000    -0.0000 </r>
       <r>   -17.7607    -0.0000    -0.0000 </r>
       <r>   -17.6886    -0.0000    -0.0000 </r>
       <r>   -17.6165    -0.0001    -0.0000 </r>
       <r>   -17.5444    -0.0010    -0.0001 </r>
       <r>   -17.4723    -0.0069    -0.0006 </r>
       <r>   -17.4003    -0.0357    -0.0031 </r>
       <r>   -17.3282    -0.1322    -0.0127 </r>
       <r>   -17.2561    -0.3274    -0.0363 </r>
       <r>   -17.1840    -0.4251    -0.0669 </r>
       <r>   -17.1119     0.2655    -0.0478 </r>
       <r>   -17.0398     2.5439     0.1356 </r>
       <r>   -16.9677     5.9508     0.5646 </r>
       <r>   -16.8956     8.2100     1.1565 </r>
       <r>   -16.8235     7.3564     1.6869 </r>
       <r>   -16.7514     4.1635     1.9870 </r>
       <r>   -16.6793     1.1522     2.0701 </r>
       <r>   -16.6072    -0.2486     2.0522 </r>
       <r>   -16.5351    -0.4169     2.0221 </r>
       <r>   -16.4630    -0.2173     2.0064 </r>
       <r>   -16.3910    -0.0704     2.0014 </r>
       <r>   -16.3189    -0.0159     2.0002 </r>
       <r>   -16.2468    -0.0026     2.0000 </r>
       <r>   -16.1747    -0.0003     2.0000 </r>
       <r>   -16.1026    -0.0000     2.0000 </r>
       <r>   -16.0305    -0.0000     2.0000 </r>
       <r>   -15.9584    -0.0000     2.0000 </r>
       <r>   -15.8863    -0.0000     2.0000 </r>
       <r>   -15.8142    -0.0000     2.0000 </r>
       <r>   -15.7421    -0.0000     2.0000 </r>
       <r>   -15.6700    -0.0000     2.0000 </r>
       <r>   -15.5979     0.0000     2.0000 </r>
       <r>   -15.5258     0.0000     2.0000 </r>
       <r>   -15.4537     0.0000     2.0000 </r>
       <r>   -15.3817     0.0000     2.0000 </r>
       <r>   -15.3096     0.0000     2.0000 </r>
       <r>   -15.2375     0.0000     2.0000 </r>
       <r>   -15.1654     0.0000     2.0000 </r>
       <r>   -15.0933     0.0000     2.0000 </r>
       <r>   -15.0212     0.0000     2.0000 </r>
       <r>   -14.9491     0.0000     2.0000 </r>
       <r>   -14.8770     0.0000     2.0000 </r>
       <r>   -14.8049     0.0000     2.0000 </r>
       <r>   -14.7328     0.0000     2.0000 </r>
       <r>   -14.6607     0.0000     2.0000 </r>
       <r>   -14.5886     0.0000     2.0000 </r>
       <r>   -14.5165     0.0000     2.0000 </r>
       <r>   -14.4444     0.0000     2.0000 </r>
       <r>   -14.3724     0.0000     2.0000 </r>
       <r>   -14.3003     0.0000     2.0000 </r>
       <r>   -14.2282     0.0000     2.0000 </r>
       <r>   -14.1561     0.0000     2.0000 </r>
       <r>   -14.0840     0.0000     2.0000 </r>
       <r>   -14.0119     0.0000     2.0000 </r>
       <r>   -13.9398     0.0000     2.0000 </r>
       <r>   -13.8677     0.0000     2.0000 </r>
       <r>   -13.7956     0.0000     2.0000 </r>
       <r>   -13.7235     0.0000     2.0000 </r>
       <r>   -13.6514     0.0000     2.0000 </r>
       <r>   -13.5793     0.0000     2.0000 </r>
       <r>   -13.5072     0.0000     2.0000 </r>
       <r>   -13.4351     0.0000     2.0000 </r>
       <r>   -13.3631     0.0000     2.0000 </r>
       <r>   -13.2910     0.0000     2.0000 </r>
       <r>   -13.2189     0.0000     2.0000 </r>
       <r>   -13.1468     0.0000     2.0000 </r>
       <r>   -13.0747     0.0000     2.0000 </r>
       <r>   -13.0026     0.0000     2.0000 </r>
       <r>   -12.9305     0.0000     2.0000 </r>
       <r>   -12.8584     0.0000     2.0000 </r>
       <r>   -12.7863     0.0000     2.0000 </r>
       <r>   -12.7142     0.0000     2.0000 </r>
       <r>   -12.6421     0.0000     2.0000 </r>
       <r>   -12.5700     0.0000     2.0000 </r>
       <r>   -12.4979     0.0000     2.0000 </r>
       <r>   -12.4258     0.0000     2.0000 </r>
       <r>   -12.3538     0.0000     2.0000 </r>
       <r>   -12.2817     0.0000     2.0000 </r>
       <r>   -12.2096     0.0000     2.0000 </r>
       <r>   -12.1375     0.0000     2.0000 </r>
       <r>   -12.0654     0.0000     2.0000 </r>
       <r>   -11.9933     0.0000     2.0000 </r>
       <r>   -11.9212     0.0000     2.0000 </r>
       <r>   -11.8491     0.0000     2.0000 </r>
       <r>   -11.7770     0.0000     2.0000 </r>
       <r>   -11.7049     0.0000     2.0000 </r>
       <r>   -11.6328     0.0000     2.0000 </r>
       <r>   -11.5607     0.0000     2.0000 </r>
       <r>   -11.4886     0.0000     2.0000 </r>
       <r>   -11.4165     0.0000     2.0000 </r>
       <r>   -11.3445     0.0000     2.0000 </r>
       <r>   -11.2724     0.0000     2.0000 </r>
       <r>   -11.2003     0.0000     2.0000 </r>
       <r>   -11.1282    -0.0000     2.0000 </r>
       <r>   -11.0561    -0.0000     2.0000 </r>
       <r>   -10.9840    -0.0000     2.0000 </r>
       <r>   -10.9119    -0.0000     2.0000 </r>
       <r>   -10.8398    -0.0000     2.0000 </r>
       <r>   -10.7677    -0.0000     2.0000 </r>
       <r>   -10.6956    -0.0000     2.0000 </r>
       <r>   -10.6235    -0.0000     2.0000 </r>
       <r>   -10.5514    -0.0000     2.0000 </r>
       <r>   -10.4793    -0.0000     2.0000 </r>
       <r>   -10.4072    -0.0000     2.0000 </r>
       <r>   -10.3352    -0.0000     2.0000 </r>
       <r>   -10.2631    -0.0000     2.0000 </r>
       <r>   -10.1910    -0.0003     2.0000 </r>
       <r>   -10.1189    -0.0023     1.9998 </r>
       <r>   -10.0468    -0.0140     1.9988 </r>
       <r>    -9.9747    -0.0638     1.9942 </r>
       <r>    -9.9026    -0.2033     1.9796 </r>
       <r>    -9.8305    -0.4100     1.9500 </r>
       <r>    -9.7584    -0.3130     1.9274 </r>
       <r>    -9.6863     0.9006     1.9924 </r>
       <r>    -9.6142     3.6473     2.2553 </r>
       <r>    -9.5421     6.7189     2.7397 </r>
       <r>    -9.4700     8.0691     3.3214 </r>
       <r>    -9.3979     7.5433     3.8652 </r>
       <r>    -9.3259     7.1482     4.3806 </r>
       <r>    -9.2538     7.9457     4.9534 </r>
       <r>    -9.1817     8.9922     5.6017 </r>
       <r>    -9.1096     9.5299     6.2887 </r>
       <r>    -9.0375     9.4583     6.9706 </r>
       <r>    -8.9654     8.1015     7.5546 </r>
       <r>    -8.8933     5.1498     7.9259 </r>
       <r>    -8.8212     1.9355     8.0654 </r>
       <r>    -8.7491     0.0194     8.0668 </r>
       <r>    -8.6770    -0.4629     8.0335 </r>
       <r>    -8.6049    -0.3094     8.0112 </r>
       <r>    -8.5328    -0.1178     8.0027 </r>
       <r>    -8.4607    -0.0305     8.0005 </r>
       <r>    -8.3886    -0.0057     8.0001 </r>
       <r>    -8.3166    -0.0008     8.0000 </r>
       <r>    -8.2445    -0.0001     8.0000 </r>
       <r>    -8.1724    -0.0000     8.0000 </r>
       <r>    -8.1003    -0.0000     8.0000 </r>
       <r>    -8.0282    -0.0000     8.0000 </r>
       <r>    -7.9561    -0.0000     8.0000 </r>
       <r>    -7.8840    -0.0000     8.0000 </r>
       <r>    -7.8119    -0.0000     8.0000 </r>
       <r>    -7.7398    -0.0000     8.0000 </r>
       <r>    -7.6677     0.0000     8.0000 </r>
       <r>    -7.5956     0.0000     8.0000 </r>
       <r>    -7.5235     0.0000     8.0000 </r>
       <r>    -7.4514     0.0000     8.0000 </r>
       <r>    -7.3793     0.0000     8.0000 </r>
       <r>    -7.3073     0.0000     8.0000 </r>
       <r>    -7.2352     0.0000     8.0000 </r>
       <r>    -7.1631     0.0000     8.0000 </r>
       <r>    -7.0910     0.0000     8.0000 </r>
       <r>    -7.0189     0.0000     8.0000 </r>
       <r>    -6.9468     0.0000     8.0000 </r>
       <r>    -6.8747     0.0000     8.0000 </r>
       <r>    -6.8026     0.0000     8.0000 </r>
       <r>    -6.7305     0.0000     8.0000 </r>
       <r>    -6.6584     0.0000     8.0000 </r>
       <r>    -6.5863     0.0000     8.0000 </r>
       <r>    -6.5142     0.0000     8.0000 </r>
       <r>    -6.4421     0.0000     8.0000 </r>
       <r>    -6.3700     0.0000     8.0000 </r>
       <r>    -6.2980     0.0000     8.0000 </r>
       <r>    -6.2259     0.0000     8.0000 </r>
       <r>    -6.1538     0.0000     8.0000 </r>
       <r>    -6.0817     0.0000     8.0000 </r>
       <r>    -6.0096     0.0000     8.0000 </r>
       <r>    -5.9375     0.0000     8.0000 </r>
       <r>    -5.8654     0.0000     8.0000 </r>
       <r>    -5.7933     0.0000     8.0000 </r>
       <r>    -5.7212     0.0000     8.0000 </r>
       <r>    -5.6491     0.0000     8.0000 </r>
       <r>    -5.5770     0.0000     8.0000 </r>
       <r>    -5.5049     0.0000     8.0000 </r>
       <r>    -5.4328     0.0000     8.0000 </r>
       <r>    -5.3607     0.0000     8.0000 </r>
       <r>    -5.2887     0.0000     8.0000 </r>
       <r>    -5.2166     0.0000     8.0000 </r>
       <r>    -5.1445     0.0000     8.0000 </r>
       <r>    -5.0724     0.0000     8.0000 </r>
       <r>    -5.0003     0.0000     8.0000 </r>
       <r>    -4.9282     0.0000     8.0000 </r>
       <r>    -4.8561     0.0000     8.0000 </r>
       <r>    -4.7840     0.0000     8.0000 </r>
       <r>    -4.7119     0.0000     8.0000 </r>
       <r>    -4.6398     0.0000     8.0000 </r>
       <r>    -4.5677     0.0000     8.0000 </r>
       <r>    -4.4956     0.0000     8.0000 </r>
       <r>    -4.4235     0.0000     8.0000 </r>
       <r>    -4.3514     0.0000     8.0000 </r>
       <r>    -4.2794     0.0000     8.0000 </r>
       <r>    -4.2073     0.0000     8.0000 </r>
       <r>    -4.1352     0.0000     8.0000 </r>
       <r>    -4.0631     0.0000     8.0000 </r>
       <r>    -3.9910     0.0000     8.0000 </r>
       <r>    -3.9189     0.0000     8.0000 </r>
       <r>    -3.8468     0.0000     8.0000 </r>
       <r>    -3.7747     0.0000     8.0000 </r>
       <r>    -3.7026     0.0000     8.0000 </r>
       <r>    -3.6305     0.0000     8.0000 </r>
       <r>    -3.5584     0.0000     8.0000 </r>
       <r>    -3.4863     0.0000     8.0000 </r>
       <r>    -3.4142     0.0000     8.0000 </r>
       <r>    -3.3421     0.0000     8.0000 </r>
       <r>    -3.2701     0.0000     8.0000 </r>
       <r>    -3.1980     0.0000     8.0000 </r>
       <r>    -3.1259     0.0000     8.0000 </r>
       <r>    -3.0538     0.0000     8.0000 </r>
       <r>    -2.9817     0.0000     8.0000 </r>
       <r>    -2.9096     0.0000     8.0000 </r>
       <r>    -2.8375     0.0000     8.0000 </r>
       <r>    -2.7654     0.0000     8.0000 </r>
       <r>    -2.6933     0.0000     8.0000 </r>
       <r>    -2.6212     0.0000     8.0000 </r>
       <r>    -2.5491     0.0000     8.0000 </r>
       <r>    -2.4770     0.0000     8.0000 </r>
       <r>    -2.4049     0.0000     8.0000 </r>
       <r>    -2.3328     0.0000     8.0000 </r>
       <r>    -2.2608     0.0000     8.0000 </r>
       <r>    -2.1887     0.0000     8.0000 </r>
       <r>    -2.1166     0.0000     8.0000 </r>
       <r>    -2.0445     0.0000     8.0000 </r>
       <r>    -1.9724    -0.0000     8.0000 </r>
       <r>    -1.9003    -0.0000     8.0000 </r>
       <r>    -1.8282    -0.0000     8.0000 </r>
       <r>    -1.7561    -0.0000     8.0000 </r>
       <r>    -1.6840    -0.0000     8.0000 </r>
       <r>    -1.6119    -0.0000     8.0000 </r>
       <r>    -1.5398    -0.0000     8.0000 </r>
       <r>    -1.4677    -0.0000     8.0000 </r>
       <r>    -1.3956    -0.0000     8.0000 </r>
       <r>    -1.3235    -0.0000     8.0000 </r>
       <r>    -1.2515    -0.0000     8.0000 </r>
       <r>    -1.1794    -0.0000     8.0000 </r>
       <r>    -1.1073    -0.0000     8.0000 </r>
       <r>    -1.0352    -0.0001     8.0000 </r>
       <r>    -0.9631    -0.0006     8.0000 </r>
       <r>    -0.8910    -0.0043     7.9996 </r>
       <r>    -0.8189    -0.0241     7.9979 </r>
       <r>    -0.7468    -0.0976     7.9909 </r>
       <r>    -0.6747    -0.2711     7.9713 </r>
       <r>    -0.6026    -0.4379     7.9398 </r>
       <r>    -0.5305    -0.0412     7.9368 </r>
       <r>    -0.4584     1.7927     8.0660 </r>
       <r>    -0.3863     5.0663     8.4313 </r>
       <r>    -0.3142     7.8793     8.9993 </r>
       <r>    -0.2422     7.8831     9.5676 </r>
       <r>    -0.1701     5.0741     9.9334 </r>
       <r>    -0.0980     1.7981    10.0631 </r>
       <r>    -0.0259    -0.0440    10.0599 </r>
       <r>     0.0462    -0.4665    10.0263 </r>
       <r>     0.1183    -0.3900     9.9981 </r>
       <r>     0.1904    -0.4496     9.9657 </r>
       <r>     0.2625    -0.7106     9.9145 </r>
       <r>     0.3346    -0.5982     9.8714 </r>
       <r>     0.4067     1.1431     9.9538 </r>
       <r>     0.4788     5.7108    10.3655 </r>
       <r>     0.5509    12.6717    11.2790 </r>
       <r>     0.6230    19.0636    12.6534 </r>
       <r>     0.6951    20.8723    14.1581 </r>
       <r>     0.7671    16.5146    15.3487 </r>
       <r>     0.8392     8.8077    15.9837 </r>
       <r>     0.9113     2.3863    16.1557 </r>
       <r>     0.9834    -0.5364    16.1171 </r>
       <r>     1.0555    -0.9120    16.0513 </r>
       <r>     1.1276    -0.4948    16.0156 </r>
       <r>     1.1997    -0.1685    16.0035 </r>
       <r>     1.2718    -0.0403    16.0006 </r>
       <r>     1.3439    -0.0070    16.0001 </r>
       <r>     1.4160    -0.0009    16.0000 </r>
       <r>     1.4881    -0.0001    16.0000 </r>
       <r>     1.5602    -0.0000    16.0000 </r>
       <r>     1.6323    -0.0000    16.0000 </r>
       <r>     1.7044    -0.0000    16.0000 </r>
       <r>     1.7764    -0.0000    16.0000 </r>
       <r>     1.8485    -0.0000    16.0000 </r>
       <r>     1.9206    -0.0000    16.0000 </r>
       <r>     1.9927    -0.0000    16.0000 </r>
       <r>     2.0648     0.0000    16.0000 </r>
       <r>     2.1369     0.0000    16.0000 </r>
       <r>     2.2090     0.0000    16.0000 </r>
       <r>     2.2811     0.0000    16.0000 </r>
       <r>     2.3532     0.0000    16.0000 </r>
       <r>     2.4253     0.0000    16.0000 </r>
       <r>     2.4974     0.0000    16.0000 </r>
       <r>     2.5695     0.0000    16.0000 </r>
       <r>     2.6416     0.0000    16.0000 </r>
       <r>     2.7137     0.0000    16.0000 </r>
      </set>
     </set>
    </array>
   </total>
  </dos>
 </calculation>
 <structure name="finalpos" >
  <crystal>
   <varray name="basis" >
    <v>      10.29744236       0.00000000       0.00000000 </v>
    <v>      -0.27065360       9.73419935       0.00000000 </v>
    <v>      -0.04623165       0.00822627      10.26832355 </v>
   </varray>
   <i name="volume">   1029.26961106 </i>
   <varray name="rec_basis" >
    <v>       0.09711149       0.00270013       0.00043507 </v>
    <v>       0.00000000       0.10273059      -0.00008230 </v>
    <v>       0.00000000      -0.00000000       0.09738688 </v>
   </varray>
  </crystal>
  <varray name="positions" >
   <v>       0.53981048       0.41728798       0.36176979 </v>
   <v>       0.40108438       0.47345190       0.43952313 </v>
   <v>       0.54295951       0.57526389       0.44365185 </v>
   <v>       0.53060225       0.41009653       0.53774657 </v>
   <v>       0.50349017       0.46652185       0.44510623 </v>
  </varray>
  <varray name="velocities" >
   <v>      -0.00187643       0.00096726       0.00301367 </v>
   <v>       0.00084479      -0.00223482      -0.00210542 </v>
   <v>      -0.00163100       0.00417615       0.00033850 </v>
   <v>       0.00047457      -0.00078261       0.00123572 </v>
   <v>       0.00018217      -0.00017700      -0.00020668 </v>
  </varray>
 </structure>
</modeling>
