unknown system                          
           1
    10.297442    0.000000    0.000000
    -0.270654    9.734199    0.000000
    -0.046232    0.008226   10.268324
   H    C 
   4   1
Direct configuration=     1
   0.53835015  0.40732743  0.35999682
   0.39464327  0.48035892  0.43894712
   0.55201119  0.56535464  0.44283255
   0.52878873  0.41707781  0.53878133
   0.50354540  0.46701985  0.44528386
Direct configuration=     2
   0.53584223  0.41011962  0.36255358
   0.39720538  0.47990904  0.44088995
   0.55661544  0.57182008  0.44177466
   0.52883375  0.41580060  0.53887954
   0.50315380  0.46639288  0.44498913
Direct configuration=     3
   0.53401890  0.41029729  0.36150222
   0.39992771  0.47848833  0.44171417
   0.55838797  0.57349870  0.44163204
   0.52811876  0.41525417  0.53685556
   0.50299090  0.46640211  0.44518843
Direct configuration=     4
   0.53358137  0.40774462  0.35649376
   0.40223277  0.47601051  0.44311656
   0.55505116  0.56665716  0.44338423
   0.52705818  0.41493423  0.53409637
   0.50320153  0.46741718  0.44557250
Direct configuration=     5
   0.53372132  0.40712154  0.35608097
   0.39906560  0.47486792  0.44431867
   0.55142404  0.56532901  0.44473931
   0.52865956  0.41188436  0.53466359
   0.50362223  0.46792869  0.44534674
Direct configuration=     6
   0.53390993  0.41002084  0.36037525
   0.39667187  0.47471224  0.44338139
   0.54983880  0.57076152  0.44550044
   0.53085911  0.40913650  0.53685021
   0.50375467  0.46747674  0.44482183
Direct configuration=     7
   0.53578850  0.41269908  0.36435966
   0.39605970  0.47540725  0.44382859
   0.54876867  0.57454388  0.44583331
   0.53097027  0.41113929  0.53589744
   0.50372908  0.46671424  0.44450447
Direct configuration=     8
   0.54059532  0.41163339  0.35888673
   0.39613989  0.47667337  0.44395900
   0.54768108  0.57228951  0.44566738
   0.53011844  0.41290736  0.53392263
   0.50348367  0.46673804  0.44512751
Direct configuration=     9
   0.54297296  0.41233298  0.35584204
   0.39755207  0.47680150  0.44351028
   0.54564797  0.57005831  0.44424589
   0.52913580  0.41252651  0.53342533
   0.50341922  0.46688660  0.44557811
Direct configuration=    10
   0.54168691  0.41632072  0.35875612
   0.40023959  0.47568672  0.44162854
   0.54459051  0.57108774  0.44331335
   0.53012767  0.41087914  0.53651085
   0.50330800  0.46669885  0.44531291
