ITEM: TIMESTEP
1030
ITEM: NUMBER OF ATOMS
16
ITEM: BOX BOUNDS xy xz yz pp pp pp
4.6253771762737816e-02 8.5821858630718708e+00 2.8696222785635177e+00
3.9914332794308116e-02 4.8208987336622267e+00 1.6956195627109297e-01
7.3263675927790928e-02 8.7798391240721720e+00 3.7608566456521449e-02
ITEM: ATOMS id type x y z 
1 1 0.130617 0.0480568 4.37616 
2 1 5.74619 3.23227 6.66358 
3 1 1.57478 0.83522 6.6225 
4 2 4.38354 2.44671 4.40673 
5 2 2.90802 3.23649 2.23649 
6 2 5.73565 0.110381 8.71891 
7 2 4.22651 0.799517 2.28865 
8 2 7.08702 2.43761 4.45729 
9 2 2.81194 0.0379645 4.50457 
10 2 6.97812 2.42486 0.025002 
11 2 2.97419 3.29721 6.52287 
12 2 2.78667 0.0420584 0.130395 
13 2 1.47347 0.815813 2.28289 
14 2 5.6626 3.15408 2.25718 
15 2 4.21404 2.42967 0.0691542 
16 2 4.33452 0.855711 6.57423 
