ITEM: TIMESTEP
1050
ITEM: NUMBER OF ATOMS
16
ITEM: BOX BOUNDS xy xz yz pp pp pp
4.5874646668579100e-02 8.5829842291569918e+00 2.8700181292901559e+00
3.9587169741387651e-02 4.8212310846377759e+00 1.6958534653541504e-01
7.2663160618962053e-02 8.7804396393809991e+00 3.7613754379151820e-02
ITEM: ATOMS id type x y z 
1 1 0.13657 0.0433952 4.36889 
2 1 5.73882 3.27196 6.65355 
3 1 1.59111 0.852676 6.60995 
4 2 4.38402 2.40802 4.40753 
5 2 2.8745 3.23636 2.23331 
6 2 5.741 0.0589967 8.71198 
7 2 4.22923 0.791033 2.27299 
8 2 7.07104 2.43105 4.46215 
9 2 2.80291 0.00569638 4.51748 
10 2 7.01981 2.41764 0.0501828 
11 2 2.97947 3.30062 6.50616 
12 2 2.77211 0.0489006 0.126648 
13 2 1.47444 0.84597 2.28495 
14 2 5.67109 3.19798 2.21504 
15 2 4.21405 2.39631 0.122426 
16 2 4.33048 0.89612 6.59172 
