ITEM: TIMESTEP
1060
ITEM: NUMBER OF ATOMS
16
ITEM: BOX BOUNDS xy xz yz pp pp pp
3.9742847663146286e-02 8.5958966436663857e+00 2.8764204411636887e+00
3.4295781454479535e-02 4.8266063800553800e+00 1.6996365016584170e-01
6.2950695709231397e-02 8.7901521042907298e+00 3.7697661509846277e-02
ITEM: ATOMS id type x y z 
1 1 0.132401 0.0419098 4.38372 
2 1 5.74192 3.28134 6.65427 
3 1 1.58499 0.872653 6.60939 
4 2 4.37358 2.38303 4.42114 
5 2 2.86944 3.23144 2.24583 
6 2 5.75125 0.0397531 8.71769 
7 2 4.23309 0.792757 2.26951 
8 2 7.06848 2.41948 4.47845 
9 2 2.81161 -0.00582839 4.52248 
10 2 7.03291 2.40758 0.0282377 
11 2 2.99424 3.29199 6.51134 
12 2 2.76769 0.0425794 0.0745796 
13 2 1.46884 0.856001 2.28812 
14 2 5.67693 3.22471 2.20051 
15 2 4.23313 2.3773 0.110747 
16 2 4.33094 0.918958 6.59964 
