ITEM: TIMESTEP
1070
ITEM: NUMBER OF ATOMS
16
ITEM: BOX BOUNDS xy xz yz pp pp pp
4.4138088601005876e-02 8.5866410935728439e+00 2.8718312980396941e+00
3.8088620455908551e-02 4.8227533968686194e+00 1.6969248413415688e-01
6.9912538936799606e-02 8.7831902610631634e+00 3.7637517324513405e-02
ITEM: ATOMS id type x y z 
1 1 0.13797 0.0505834 4.40881 
2 1 5.73561 3.27804 6.64888 
3 1 1.5733 0.903008 6.6025 
4 2 4.35092 2.36242 4.43527 
5 2 2.87523 3.22096 2.27743 
6 2 5.75104 0.0376033 8.70793 
7 2 4.23205 0.806033 2.27947 
8 2 7.04699 2.40548 4.50031 
9 2 2.82679 -0.00240856 4.52344 
10 2 7.01675 2.39637 0.00809536 
11 2 3.01131 3.28008 6.51615 
12 2 2.76581 0.0408861 0.0197418 
13 2 1.4657 0.867224 2.30113 
14 2 5.66615 3.24774 2.20596 
15 2 4.25648 2.36144 0.0982746 
16 2 4.32983 0.940475 6.59647 
