ITEM: TIMESTEP
1110
ITEM: NUMBER OF ATOMS
16
ITEM: BOX BOUNDS xy xz yz pp pp pp
3.5374784714817142e-02 8.6050949620297228e+00 2.8809812073032282e+00
3.0526395487849189e-02 4.8304355383055375e+00 1.7023313944130908e-01
5.6031901066494250e-02 8.7970708989334661e+00 3.7757433793373867e-02
ITEM: ATOMS id type x y z 
1 1 0.142585 0.0395157 4.49466 
2 1 5.74124 3.23773 6.58386 
3 1 1.48641 0.899965 6.59141 
4 2 4.28627 2.41357 4.4481 
5 2 2.93203 3.2045 2.34931 
6 2 5.76865 0.0176645 8.79661 
7 2 4.2509 0.830243 2.27095 
8 2 6.99874 2.38953 4.54652 
9 2 2.88306 0.0143544 4.52087 
10 2 6.98077 2.39352 -0.0540589 
11 2 3.05276 3.29844 6.60586 
12 2 2.78092 0.0138174 -0.15371 
13 2 1.43429 0.862753 2.28598 
14 2 5.65893 3.31049 2.24608 
15 2 4.32246 2.37791 0.00602807 
16 2 4.37916 0.851766 6.56362 
