ITEM: TIMESTEP
1150
ITEM: NUMBER OF ATOMS
16
ITEM: BOX BOUNDS xy xz yz pp pp pp
3.9199551704350188e-02 8.5970407226903518e+00 2.8769877053817057e+00
3.3826948430081938e-02 4.8270826475056321e+00 1.6999716901299020e-01
6.2090141909162178e-02 8.7910126580908052e+00 3.7705095935694218e-02
ITEM: ATOMS id type x y z 
1 1 0.147742 0.0532461 4.36334 
2 1 5.72518 3.18867 6.56723 
3 1 1.53241 0.769198 6.63017 
4 2 4.30402 2.51467 4.44968 
5 2 2.90459 3.21015 2.27229 
6 2 5.73849 0.0560232 8.88624 
7 2 4.23287 0.843496 2.25744 
8 2 7.04063 2.40456 4.46097 
9 2 2.86268 0.112316 4.46705 
10 2 6.99302 2.40332 0.0508492 
11 2 3.00969 3.21568 6.64342 
12 2 2.79475 0.0560695 -8.86074e-05 
13 2 1.47507 0.877348 2.25712 
14 2 5.71594 3.27023 2.23004 
15 2 4.25037 2.41797 0.0343236 
16 2 4.34677 0.777418 6.5425 
