ITEM: TIMESTEP
1350
ITEM: NUMBER OF ATOMS
16
ITEM: BOX BOUNDS xy xz yz pp pp pp
4.0523763629216170e-02 8.5942521816346122e+00 2.8756050740002541e+00
3.4969666817036504e-02 4.8259218086905697e+00 1.6991547126357182e-01
6.4187627792496649e-02 8.7889151722074637e+00 3.7686975507586873e-02
ITEM: ATOMS id type x y z 
1 1 0.121329 0.0526219 4.42215 
2 1 5.75894 3.23201 6.6525 
3 1 1.52028 0.794116 6.59443 
4 2 4.36088 2.50365 4.47055 
5 2 2.92459 3.163 2.28568 
6 2 5.74173 0.097871 8.68849 
7 2 4.27179 0.77645 2.32621 
8 2 7.06791 2.43654 4.53016 
9 2 2.82239 0.0985567 4.52742 
10 2 6.98667 2.43048 -0.0455819 
11 2 2.97631 3.21288 6.52248 
12 2 2.78692 0.113452 0.0435483 
13 2 1.43751 0.826747 2.29622 
14 2 5.65321 3.20898 2.25957 
15 2 4.25999 2.40302 0.00392985 
16 2 4.37487 0.826977 6.5407 
