ITEM: TIMESTEP
1360
ITEM: NUMBER OF ATOMS
16
ITEM: BOX BOUNDS xy xz yz pp pp pp
3.9733657200480721e-02 8.5959159970508274e+00 2.8764300370764353e+00
3.4287850616160132e-02 4.8266144366553867e+00 1.6996421717486948e-01
6.2936138473093095e-02 8.7901666615268681e+00 3.7697787271527561e-02
ITEM: ATOMS id type x y z 
1 1 0.108562 0.0553822 4.41588 
2 1 5.7789 3.2268 6.64489 
3 1 1.51673 0.812594 6.59549 
4 2 4.37153 2.50118 4.4584 
5 2 2.92554 3.18152 2.27399 
6 2 5.74963 0.109141 8.68876 
7 2 4.27084 0.784369 2.31319 
8 2 7.04774 2.44991 4.5053 
9 2 2.83454 0.0935166 4.5213 
10 2 6.97184 2.4127 -0.0270815 
11 2 2.96932 3.19092 6.5304 
12 2 2.80679 0.105911 0.0784631 
13 2 1.43688 0.811871 2.29572 
14 2 5.65021 3.20695 2.24495 
15 2 4.26634 2.41748 0.0376012 
16 2 4.36525 0.813795 6.53852 
