ITEM: TIMESTEP
1510
ITEM: NUMBER OF ATOMS
16
ITEM: BOX BOUNDS xy xz yz pp pp pp
4.5613725011130146e-02 8.5835336810539680e+00 2.8702905618705508e+00
3.9362009425333078e-02 4.8214598153884829e+00 1.6960144419454934e-01
7.2249873679873566e-02 8.7808529263200974e+00 3.7617324813798002e-02
ITEM: ATOMS id type x y z 
1 1 0.15934 0.102055 4.35895 
2 1 5.75239 3.19347 6.68159 
3 1 1.55367 0.770051 6.63112 
4 2 4.36986 2.53504 4.39125 
5 2 2.92876 3.1831 2.26962 
6 2 5.68664 0.0722147 8.77987 
7 2 4.22792 0.785427 2.2989 
8 2 7.06302 2.3792 4.48553 
9 2 2.87815 0.0519351 4.51324 
10 2 6.97314 2.44131 0.0231215 
11 2 3.0196 3.24138 6.51777 
12 2 2.72268 0.0456903 0.0741931 
13 2 1.52162 0.918156 2.25041 
14 2 5.68094 3.25435 2.19768 
15 2 4.2001 2.37053 0.0997154 
16 2 4.29454 0.856077 6.56178 
