ITEM: TIMESTEP
160
ITEM: NUMBER OF ATOMS
16
ITEM: BOX BOUNDS xy xz yz pp pp pp
4.6059632679445350e-02 8.5825946834382449e+00 2.8698249823633275e+00
3.9746801981498159e-02 4.8210689210613582e+00 1.6957393375436525e-01
7.2956169267444082e-02 8.7801466307325668e+00 3.7611223042854358e-02
ITEM: ATOMS id type x y z 
1 1 0.169605 0.0780534 4.4851 
2 1 5.74696 3.20249 6.56247 
3 1 1.61421 0.867475 6.60172 
4 2 4.33891 2.37813 4.5308 
5 2 2.91572 3.21136 2.2819 
6 2 5.76557 0.0938597 8.67729 
7 2 4.27225 0.833568 2.29564 
8 2 7.02032 2.36844 4.54469 
9 2 2.88171 0.0265198 4.46352 
10 2 6.90676 2.43498 -0.0268685 
11 2 2.98203 3.29012 6.56867 
12 2 2.72699 0.0565827 -0.00660991 
13 2 1.50303 0.87417 2.32715 
14 2 5.63901 3.20753 2.30125 
15 2 4.22069 2.39546 -0.0328926 
16 2 4.32663 0.884518 6.56199 
