ITEM: TIMESTEP
1610
ITEM: NUMBER OF ATOMS
16
ITEM: BOX BOUNDS xy xz yz pp pp pp
4.5445640452990599e-02 8.5838876354946478e+00 2.8704660617134805e+00
3.9216962162473390e-02 4.8216071627092862e+00 1.6961181423415855e-01
7.1983636092608272e-02 8.7811191639073769e+00 3.7619624871737707e-02
ITEM: ATOMS id type x y z 
1 1 0.18156 0.00857575 4.40472 
2 1 5.69453 3.3082 6.57531 
3 1 1.55163 0.887331 6.60513 
4 2 4.34467 2.38761 4.45366 
5 2 2.89893 3.18039 2.29373 
6 2 5.73976 0.0836415 8.81608 
7 2 4.20917 0.888771 2.22544 
8 2 7.07254 2.48431 4.50234 
9 2 2.81727 0.0343857 4.47305 
10 2 6.9556 2.37789 0.0271604 
11 2 2.94399 3.2665 6.593 
12 2 2.78095 0.0229873 0.0108972 
13 2 1.49858 0.785785 2.28948 
14 2 5.71398 3.20633 2.24734 
15 2 4.25987 2.40797 0.0551281 
16 2 4.36988 0.870683 6.56041 
