ITEM: TIMESTEP
1640
ITEM: NUMBER OF ATOMS
16
ITEM: BOX BOUNDS xy xz yz pp pp pp
4.7138617830427609e-02 8.5803225438089719e+00 2.8686983962770243e+00
4.0677903830171225e-02 4.8201230544514972e+00 1.6950736536237593e-01
7.4665228127305916e-02 8.7784375718726793e+00 3.7596458281647975e-02
ITEM: ATOMS id type x y z 
1 1 0.149507 0.0561955 4.36848 
2 1 5.70715 3.23812 6.66311 
3 1 1.54104 0.858834 6.63699 
4 2 4.34602 2.39955 4.38948 
5 2 2.8945 3.23645 2.26988 
6 2 5.7311 0.0878099 8.8078 
7 2 4.22431 0.837559 2.26455 
8 2 7.02938 2.40199 4.54211 
9 2 2.81243 0.0148077 4.48035 
10 2 7.01636 2.40085 0.0234933 
11 2 2.97746 3.32199 6.57248 
12 2 2.78201 0.0183043 0.00818413 
13 2 1.48452 0.829501 2.24277 
14 2 5.71098 3.20444 2.24293 
15 2 4.24278 2.39784 0.060855 
16 2 4.3716 0.903935 6.56608 
