ITEM: TIMESTEP
1700
ITEM: NUMBER OF ATOMS
16
ITEM: BOX BOUNDS xy xz yz pp pp pp
5.0773612792743616e-02 8.5726679286378911e+00 2.8649030384404646e+00
4.3814694476690175e-02 4.8169365227751308e+00 1.6928310299017343e-01
8.0422879509434608e-02 8.7726799204905497e+00 3.7546717251795758e-02
ITEM: ATOMS id type x y z 
1 1 0.103898 0.0937841 4.4568 
2 1 5.79421 3.17028 6.58379 
3 1 1.56757 0.817617 6.60428 
4 2 4.28613 2.52178 4.43656 
5 2 2.95007 3.22288 2.30569 
6 2 5.72329 0.132922 8.67705 
7 2 4.21521 0.788874 2.31146 
8 2 6.99515 2.35793 4.49571 
9 2 2.88331 -0.00884742 4.55922 
10 2 6.98158 2.41095 -0.0173995 
11 2 3.05419 3.27614 6.51831 
12 2 2.79639 0.0463166 0.0191917 
13 2 1.48969 0.882969 2.31254 
14 2 5.63332 3.23027 2.25039 
15 2 4.24489 2.42611 0.0744399 
16 2 4.27907 0.853414 6.56273 
