ITEM: TIMESTEP
1740
ITEM: NUMBER OF ATOMS
16
ITEM: BOX BOUNDS xy xz yz pp pp pp
4.7326517524556966e-02 8.5799268624217202e+00 2.8685022071257342e+00
4.0840050410604345e-02 4.8199583366641177e+00 1.6949577282054881e-01
7.4962851905277184e-02 8.7781399480947080e+00 3.7593887074702216e-02
ITEM: ATOMS id type x y z 
1 1 0.155114 0.0841521 4.41902 
2 1 5.73971 3.21456 6.61775 
3 1 1.56942 0.840194 6.55995 
4 2 4.34441 2.41698 4.47082 
5 2 2.87477 3.2304 2.23992 
6 2 5.73507 0.106872 8.82061 
7 2 4.25009 0.857786 2.24406 
8 2 7.08128 2.42176 4.43331 
9 2 2.88245 0.0647313 4.42221 
10 2 6.94833 2.39187 0.0457303 
11 2 2.96036 3.21291 6.6477 
12 2 2.75278 0.0450459 0.0624558 
13 2 1.45146 0.818127 2.28938 
14 2 5.68151 3.22439 2.22691 
15 2 4.247 2.46116 0.0389727 
16 2 4.34717 0.817877 6.60023 
