ITEM: TIMESTEP
1800
ITEM: NUMBER OF ATOMS
16
ITEM: BOX BOUNDS xy xz yz pp pp pp
2.4705048383396377e-02 8.6275634183661136e+00 2.8921216539391259e+00
2.1319029460610484e-02 4.8397889082967174e+00 1.7089141281039588e-01
3.9131568941593642e-02 8.8139712310583853e+00 3.7903437757307173e-02
ITEM: ATOMS id type x y z 
1 1 0.205887 -0.0402931 4.42804 
2 1 5.70688 3.30662 6.60573 
3 1 1.48934 0.860245 6.63554 
4 2 4.47057 2.41211 4.47793 
5 2 2.89582 3.23566 2.31471 
6 2 5.71049 0.0235178 8.72789 
7 2 4.23347 0.895902 2.28806 
8 2 7.10032 2.49182 4.56306 
9 2 2.86427 0.0535276 4.53177 
10 2 6.92457 2.38428 -0.0531862 
11 2 3.00218 3.22939 6.57754 
12 2 2.79096 0.0199025 -0.111995 
13 2 1.47212 0.780846 2.27587 
14 2 5.70731 3.23695 2.27697 
15 2 4.20905 2.39312 -0.0191635 
16 2 4.3876 0.823478 6.54931 
