ITEM: TIMESTEP
1850
ITEM: NUMBER OF ATOMS
16
ITEM: BOX BOUNDS xy xz yz pp pp pp
4.8058701126947323e-02 8.5783850215749009e+00 2.8677377222221985e+00
4.1471882558741680e-02 4.8193164853641557e+00 1.6945060047966182e-01
7.6122594346183625e-02 8.7769802056538033e+00 3.7583867922873604e-02
ITEM: ATOMS id type x y z 
1 1 0.147007 0.112931 4.42499 
2 1 5.76995 3.19537 6.64765 
3 1 1.52268 0.881681 6.61201 
4 2 4.33371 2.48288 4.3557 
5 2 2.96744 3.22098 2.28126 
6 2 5.69093 0.0472784 8.77144 
7 2 4.26197 0.722311 2.30106 
8 2 7.04671 2.35045 4.46978 
9 2 2.84932 0.0565963 4.53098 
10 2 6.921 2.38618 0.0076601 
11 2 3.08203 3.28885 6.53531 
12 2 2.72074 0.0536223 0.0625427 
13 2 1.50462 0.931072 2.2528 
14 2 5.70463 3.25536 2.19459 
15 2 4.17809 2.35659 0.135321 
16 2 4.31485 0.870726 6.55963 
