ITEM: TIMESTEP
1900
ITEM: NUMBER OF ATOMS
16
ITEM: BOX BOUNDS xy xz yz pp pp pp
4.4005950852854081e-02 8.5869193507979844e+00 2.8719692652289615e+00
3.7974593213295993e-02 4.8228692322754192e+00 1.6970063642189429e-01
6.9703239310214826e-02 8.7833995606897695e+00 3.7639325488690652e-02
ITEM: ATOMS id type x y z 
1 1 0.0888508 0.136517 4.44492 
2 1 5.74749 3.19584 6.59556 
3 1 1.5991 0.797752 6.57871 
4 2 4.2691 2.44223 4.50671 
5 2 2.95904 3.21756 2.2536 
6 2 5.73088 0.0928295 8.77041 
7 2 4.25467 0.820573 2.29793 
8 2 7.05533 2.43663 4.51928 
9 2 2.8667 -0.0138576 4.48134 
10 2 7.01768 2.44274 -0.0273867 
11 2 2.99144 3.30501 6.56195 
12 2 2.73217 -0.0226392 -0.0154737 
13 2 1.48605 0.849605 2.31618 
14 2 5.67028 3.20906 2.23648 
15 2 4.26996 2.40669 -0.00917143 
16 2 4.3039 0.877212 6.61777 
