ITEM: TIMESTEP
1920
ITEM: NUMBER OF ATOMS
16
ITEM: BOX BOUNDS xy xz yz pp pp pp
4.5853485611645706e-02 8.5830287903597053e+00 2.8700402238966398e+00
3.9568908971797434e-02 4.8212496349738778e+00 1.6958665207472781e-01
7.2629642556370833e-02 8.7804731574436090e+00 3.7614043945650648e-02
ITEM: ATOMS id type x y z 
1 1 0.128987 0.102193 4.44671 
2 1 5.7239 3.19853 6.58189 
3 1 1.57469 0.822601 6.5623 
4 2 4.29366 2.40788 4.54984 
5 2 2.89812 3.23475 2.27592 
6 2 5.75996 0.122434 8.75471 
7 2 4.22923 0.875488 2.28282 
8 2 7.05281 2.4155 4.52863 
9 2 2.84889 0.0489836 4.49605 
10 2 7.02084 2.41838 -0.0234554 
11 2 2.95952 3.28752 6.58261 
12 2 2.7666 -0.0289751 -0.018878 
13 2 1.48386 0.799671 2.3371 
14 2 5.68276 3.18559 2.26057 
15 2 4.29912 2.4431 -0.0336337 
16 2 4.30723 0.868293 6.55107 
