ITEM: TIMESTEP
1970
ITEM: NUMBER OF ATOMS
16
ITEM: BOX BOUNDS xy xz yz pp pp pp
3.5298917169095390e-02 8.6052547248003552e+00 2.8810604218515801e+00
3.0460926179013192e-02 4.8305020457808467e+00 1.7023782011788574e-01
5.5911730644248259e-02 8.7971910693557156e+00 3.7758471959835137e-02
ITEM: ATOMS id type x y z 
1 1 0.152933 -0.0206381 4.4079 
2 1 5.73205 3.26396 6.63328 
3 1 1.48267 0.876117 6.63737 
4 2 4.37786 2.4591 4.38642 
5 2 2.83941 3.26165 2.28132 
6 2 5.76305 0.103399 8.7835 
7 2 4.20431 0.881037 2.23663 
8 2 7.04517 2.40319 4.48478 
9 2 2.86102 0.0581774 4.49564 
10 2 7.01802 2.35608 0.0576957 
11 2 2.99746 3.23043 6.58953 
12 2 2.88296 0.0471687 0.011363 
13 2 1.47026 0.755643 2.23652 
14 2 5.70299 3.19781 2.23996 
15 2 4.23686 2.46325 0.0622092 
16 2 4.33264 0.818152 6.55787 
