ITEM: TIMESTEP
2030
ITEM: NUMBER OF ATOMS
16
ITEM: BOX BOUNDS xy xz yz pp pp pp
4.0402952947265813e-02 8.5945065861904517e+00 2.8757312144140004e+00
3.4865414178153920e-02 4.8260277144948134e+00 1.6992292472372850e-01
6.3996269675868689e-02 8.7891065303241085e+00 3.7688628672941961e-02
ITEM: ATOMS id type x y z 
1 1 0.122749 0.0940252 4.44993 
2 1 5.77832 3.23774 6.60776 
3 1 1.58741 0.819577 6.60036 
4 2 4.34125 2.4479 4.45385 
5 2 2.94924 3.16889 2.29238 
6 2 5.70675 0.0638822 8.70544 
7 2 4.26042 0.771814 2.31689 
8 2 7.04191 2.39704 4.53009 
9 2 2.84818 -0.011082 4.52753 
10 2 6.92558 2.40526 -0.0756508 
11 2 3.02123 3.26647 6.54401 
12 2 2.72634 0.103791 -0.0239499 
13 2 1.44386 0.902891 2.3213 
14 2 5.66342 3.25925 2.24478 
15 2 4.23556 2.37941 0.0311431 
16 2 4.41524 0.871052 6.59205 
