ITEM: TIMESTEP
2040
ITEM: NUMBER OF ATOMS
16
ITEM: BOX BOUNDS xy xz yz pp pp pp
3.1895903254961500e-02 8.6124208315500468e+00 2.8846135644723638e+00
2.7524321774746063e-02 4.8334852168016971e+00 1.7044777033265468e-01
5.0521525714325222e-02 8.8025812742856502e+00 3.7805038576417933e-02
ITEM: ATOMS id type x y z 
1 1 0.128802 0.0833093 4.44535 
2 1 5.79641 3.2273 6.59053 
3 1 1.59852 0.806012 6.59656 
4 2 4.33688 2.4529 4.46892 
5 2 2.96008 3.16422 2.28994 
6 2 5.71395 0.0585032 8.73644 
7 2 4.27081 0.755502 2.29694 
8 2 7.06212 2.40516 4.52781 
9 2 2.84252 -0.0238336 4.52967 
10 2 6.94231 2.40608 -0.098928 
11 2 3.00377 3.30105 6.55485 
12 2 2.69293 0.102884 -0.0285611 
13 2 1.44241 0.915592 2.32056 
14 2 5.67364 3.2664 2.24646 
15 2 4.23841 2.35751 0.0124393 
16 2 4.4212 0.860623 6.60144 
