ITEM: TIMESTEP
210
ITEM: NUMBER OF ATOMS
16
ITEM: BOX BOUNDS xy xz yz pp pp pp
4.9171736862150262e-02 8.5760411778246617e+00 2.8665755833626547e+00
4.2432368094381001e-02 4.8183407691213525e+00 1.6938193132415855e-01
7.7885587639308085e-02 8.7752172123606922e+00 3.7568637215732302e-02
ITEM: ATOMS id type x y z 
1 1 0.214048 0.0450053 4.36971 
2 1 5.67092 3.21202 6.60311 
3 1 1.55919 0.836749 6.61432 
4 2 4.30268 2.43576 4.43958 
5 2 2.90753 3.22677 2.22323 
6 2 5.6976 0.100968 8.82947 
7 2 4.24331 0.871201 2.30064 
8 2 7.07867 2.46892 4.42437 
9 2 2.88644 0.0473064 4.54597 
10 2 6.94203 2.42134 0.00332792 
11 2 2.95553 3.22088 6.55302 
12 2 2.78168 0.0590909 0.0790648 
13 2 1.48045 0.800184 2.24014 
14 2 5.6932 3.22754 2.27101 
15 2 4.22685 2.46552 0.0509059 
16 2 4.3682 0.777136 6.5969 
