ITEM: TIMESTEP
2110
ITEM: NUMBER OF ATOMS
16
ITEM: BOX BOUNDS xy xz yz pp pp pp
4.6970175933973568e-02 8.5806772507368780e+00 2.8688742692227640e+00
4.0532548204982088e-02 4.8202707150244271e+00 1.6951775744810646e-01
7.4398424533887564e-02 8.7787043754660985e+00 3.7598763229381778e-02
ITEM: ATOMS id type x y z 
1 1 0.193375 0.0505118 4.40902 
2 1 5.68195 3.22198 6.6215 
3 1 1.46697 0.898776 6.63759 
4 2 4.41205 2.43498 4.41621 
5 2 2.93877 3.23393 2.28611 
6 2 5.70326 0.108567 8.78214 
7 2 4.22953 0.882674 2.27778 
8 2 7.05911 2.44455 4.48798 
9 2 2.91681 0.0662293 4.45362 
10 2 6.9693 2.38088 0.064476 
11 2 3.00947 3.28748 6.59544 
12 2 2.79218 -0.0332472 -0.0192222 
13 2 1.5242 0.827887 2.23358 
14 2 5.68605 3.18128 2.26299 
15 2 4.19744 2.38466 0.0428416 
16 2 4.24097 0.836569 6.58695 
