ITEM: TIMESTEP
2230
ITEM: NUMBER OF ATOMS
16
ITEM: BOX BOUNDS xy xz yz pp pp pp
3.7470511487671665e-02 8.6006817559273046e+00 2.8787930246198772e+00
3.2334886615585923e-02 4.8285983693917203e+00 1.7010384279511290e-01
5.9351428129208017e-02 8.7937513718707603e+00 3.7728756007283232e-02
ITEM: ATOMS id type x y z 
1 1 0.0743399 0.0458872 4.4177 
2 1 5.80169 3.19069 6.60146 
3 1 1.61558 0.795232 6.61723 
4 2 4.25268 2.43905 4.44968 
5 2 2.96681 3.17673 2.20558 
6 2 5.73127 0.0441817 8.84306 
7 2 4.22246 0.780796 2.26699 
8 2 6.99545 2.37269 4.51108 
9 2 2.86363 0.0376423 4.49937 
10 2 6.94807 2.42039 0.0107449 
11 2 3.02599 3.29675 6.54747 
12 2 2.77882 0.101816 0.018587 
13 2 1.44867 0.88521 2.26437 
14 2 5.67572 3.2703 2.22252 
15 2 4.27658 2.40346 0.0224659 
16 2 4.40933 0.902094 6.60995 
