ITEM: TIMESTEP
2260
ITEM: NUMBER OF ATOMS
16
ITEM: BOX BOUNDS xy xz yz pp pp pp
3.9145759505689881e-02 8.5971539989353474e+00 2.8770438706982691e+00
3.3780528870388959e-02 4.8271298031542074e+00 1.7000048774278320e-01
6.2004937739629895e-02 8.7910978622603437e+00 3.7705832024571298e-02
ITEM: ATOMS id type x y z 
1 1 0.149912 0.0224867 4.41376 
2 1 5.77473 3.25021 6.60109 
3 1 1.55481 0.853918 6.63606 
4 2 4.30081 2.4158 4.43507 
5 2 2.91274 3.20598 2.27638 
6 2 5.77676 0.0539921 8.75414 
7 2 4.21949 0.741676 2.30782 
8 2 7.00873 2.3041 4.5425 
9 2 2.86539 0.0590537 4.53272 
10 2 6.97709 2.4443 -0.010088 
11 2 3.03583 3.30943 6.57898 
12 2 2.79446 0.0411715 -0.066052 
13 2 1.41686 0.886372 2.30326 
14 2 5.63976 3.28872 2.27209 
15 2 4.25691 2.43762 -0.0274119 
16 2 4.39145 0.857064 6.56351 
