ITEM: TIMESTEP
2270
ITEM: NUMBER OF ATOMS
16
ITEM: BOX BOUNDS xy xz yz pp pp pp
3.7610534032650911e-02 8.6003868948041955e+00 2.8786468247849690e+00
3.2455717982327936e-02 4.8284756219657670e+00 1.7009520405188908e-01
5.9573216882146340e-02 8.7935295831178237e+00 3.7726839948069364e-02
ITEM: ATOMS id type x y z 
1 1 0.164885 0.00979723 4.4147 
2 1 5.76484 3.26928 6.60168 
3 1 1.53373 0.87419 6.64478 
4 2 4.33102 2.41995 4.42597 
5 2 2.89586 3.20399 2.30164 
6 2 5.78386 0.0794982 8.73984 
7 2 4.22256 0.758626 2.29923 
8 2 7.0151 2.32382 4.54282 
9 2 2.87064 0.0335048 4.5428 
10 2 6.99131 2.43554 -0.014704 
11 2 3.03109 3.29454 6.5793 
12 2 2.80223 0.0295105 -0.0733577 
13 2 1.41252 0.882966 2.29632 
14 2 5.6308 3.27204 2.28006 
15 2 4.25563 2.43171 -0.0196722 
16 2 4.37964 0.846459 6.54769 
