ITEM: TIMESTEP
2330
ITEM: NUMBER OF ATOMS
16
ITEM: BOX BOUNDS xy xz yz pp pp pp
4.7478623216551608e-02 8.5796065564654302e+00 2.8683433910789402e+00
4.0971308835125786e-02 4.8198249968354112e+00 1.6948638860305651e-01
7.5203779762608391e-02 8.7778990202373528e+00 3.7591805670506628e-02
ITEM: ATOMS id type x y z 
1 1 0.17385 0.0658083 4.41789 
2 1 5.69 3.22766 6.67823 
3 1 1.5386 0.863437 6.56911 
4 2 4.39245 2.39344 4.44874 
5 2 2.84788 3.23485 2.27724 
6 2 5.72632 0.109004 8.74973 
7 2 4.21856 0.859353 2.26959 
8 2 7.10454 2.45442 4.47314 
9 2 2.84303 0.0516953 4.44056 
10 2 7.01101 2.42646 0.0340541 
11 2 2.99781 3.22832 6.5893 
12 2 2.79678 0.0362204 0.0561582 
13 2 1.48837 0.784315 2.28055 
14 2 5.65284 3.19689 2.19797 
15 2 4.2154 2.44237 0.0845907 
16 2 4.32151 0.835516 6.57371 
