ITEM: TIMESTEP
2400
ITEM: NUMBER OF ATOMS
16
ITEM: BOX BOUNDS xy xz yz pp pp pp
3.8528408568001549e-02 8.5984540238053988e+00 2.8776884569338930e+00
3.3247790677616962e-02 4.8276709891362506e+00 1.7003857543952089e-01
6.1027084533103348e-02 8.7920757154668543e+00 3.7714279813836148e-02
ITEM: ATOMS id type x y z 
1 1 0.107362 0.0998164 4.45174 
2 1 5.79895 3.17477 6.56309 
3 1 1.5269 0.816281 6.6118 
4 2 4.30799 2.51919 4.4693 
5 2 3.02029 3.22293 2.27889 
6 2 5.66674 0.0626786 8.77949 
7 2 4.23247 0.843778 2.29549 
8 2 7.07379 2.39582 4.49665 
9 2 2.88299 0.0512285 4.54547 
10 2 6.88083 2.37211 -0.0682364 
11 2 3.0243 3.26531 6.56392 
12 2 2.74458 -0.00223457 -0.00332642 
13 2 1.53899 0.862368 2.29574 
14 2 5.76959 3.22031 2.28019 
15 2 4.20923 2.39577 -0.00764548 
16 2 4.29412 0.868448 6.55893 
