ITEM: TIMESTEP
2500
ITEM: NUMBER OF ATOMS
16
ITEM: BOX BOUNDS xy xz yz pp pp pp
4.0960063959640358e-02 8.5933334152640874e+00 2.8751495256720534e+00
3.5346168795636679e-02 4.8255393364072150e+00 1.6988855355168883e-01
6.4878705834273021e-02 8.7882240941656828e+00 3.7681005202817565e-02
ITEM: ATOMS id type x y z 
1 1 0.20299 0.0129958 4.45931 
2 1 5.66388 3.21116 6.62077 
3 1 1.5596 0.871358 6.56443 
4 2 4.37113 2.39357 4.49098 
5 2 2.86784 3.20412 2.31344 
6 2 5.75351 0.0404669 8.66765 
7 2 4.26335 0.88456 2.33042 
8 2 7.03416 2.43887 4.49325 
9 2 2.87644 0.071581 4.48496 
10 2 6.97738 2.44817 -0.0491225 
11 2 2.9346 3.23241 6.57177 
12 2 2.79129 0.0303961 -0.0405008 
13 2 1.51368 0.809475 2.35241 
14 2 5.67148 3.25505 2.23102 
15 2 4.26756 2.40794 0.0376431 
16 2 4.31392 0.867432 6.59106 
