ITEM: TIMESTEP
2560
ITEM: NUMBER OF ATOMS
16
ITEM: BOX BOUNDS xy xz yz pp pp pp
4.0616767598963488e-02 8.5940563327805783e+00 2.8755079670306429e+00
3.5049923869763244e-02 4.8258402789777017e+00 1.6990973334891341e-01
6.4334941458797701e-02 8.7887678585411564e+00 3.7685702847436484e-02
ITEM: ATOMS id type x y z 
1 1 0.0953163 0.0879433 4.42209 
2 1 5.80631 3.21376 6.60639 
3 1 1.53317 0.847258 6.63068 
4 2 4.29341 2.45227 4.40585 
5 2 2.89088 3.21996 2.21509 
6 2 5.7956 0.165291 8.81133 
7 2 4.21009 0.783698 2.25603 
8 2 7.08435 2.40937 4.45767 
9 2 2.83236 0.0355381 4.49577 
10 2 6.95219 2.41349 0.0162648 
11 2 3.08642 3.2477 6.57888 
12 2 2.82884 0.124321 0.0775175 
13 2 1.43833 0.817662 2.26088 
14 2 5.63003 3.15528 2.2424 
15 2 4.23585 2.44396 0.0325029 
16 2 4.35208 0.761337 6.60928 
