ITEM: TIMESTEP
2590
ITEM: NUMBER OF ATOMS
16
ITEM: BOX BOUNDS xy xz yz pp pp pp
4.4368921531552807e-02 8.5861550028710880e+00 2.8715902815923804e+00
3.8287815938957692e-02 4.8225510426830844e+00 1.6967824281027027e-01
7.0278166827719701e-02 8.7828246331722397e+00 3.7634358622009569e-02
ITEM: ATOMS id type x y z 
1 1 0.0857676 0.0989673 4.37421 
2 1 5.81383 3.24576 6.64343 
3 1 1.56354 0.835965 6.63449 
4 2 4.30952 2.43403 4.41009 
5 2 2.91057 3.19521 2.24684 
6 2 5.71817 0.12524 8.75687 
7 2 4.14759 0.7804 2.30665 
8 2 7.06951 2.36485 4.5594 
9 2 2.8027 0.0105415 4.49189 
10 2 6.99559 2.45708 0.0137443 
11 2 3.09312 3.26713 6.5642 
12 2 2.81046 0.0413243 0.00926344 
13 2 1.46508 0.848728 2.31411 
14 2 5.65612 3.18752 2.24783 
15 2 4.23164 2.46833 -0.0133545 
16 2 4.36743 0.835087 6.57081 
