ITEM: TIMESTEP
2710
ITEM: NUMBER OF ATOMS
16
ITEM: BOX BOUNDS xy xz yz pp pp pp
3.6632739014287097e-02 8.6024459470613159e+00 2.8796677565947766e+00
3.1611937372001186e-02 4.8293327826582555e+00 1.7015552948084325e-01
5.8024438163804426e-02 8.7950783618361470e+00 3.7740220030215738e-02
ITEM: ATOMS id type x y z 
1 1 0.152471 0.110046 4.45807 
2 1 5.69596 3.25211 6.564 
3 1 1.49168 0.831795 6.58293 
4 2 4.35579 2.50493 4.49649 
5 2 2.93067 3.20769 2.23674 
6 2 5.79295 0.053251 8.75719 
7 2 4.30764 0.846936 2.30928 
8 2 7.05925 2.46771 4.48117 
9 2 2.93281 0.0472284 4.50828 
10 2 6.8861 2.3805 -0.00699514 
11 2 2.95365 3.17881 6.55052 
12 2 2.80247 0.0148628 -0.0164764 
13 2 1.50957 0.815876 2.26424 
14 2 5.71355 3.23678 2.26565 
15 2 4.22426 2.41297 0.0305325 
16 2 4.28149 0.800158 6.62349 
