ITEM: TIMESTEP
2730
ITEM: NUMBER OF ATOMS
16
ITEM: BOX BOUNDS xy xz yz pp pp pp
3.3749263542240282e-02 8.6085180036453259e+00 2.8826784406102468e+00
2.9123664627761059e-02 4.8318605126895138e+00 1.7033342657733250e-01
5.3457156308097886e-02 8.7996456436918589e+00 3.7779677317232654e-02
ITEM: ATOMS id type x y z 
1 1 0.151431 0.124432 4.43826 
2 1 5.70727 3.24748 6.61189 
3 1 1.492 0.810924 6.60918 
4 2 4.35247 2.53128 4.48561 
5 2 2.95167 3.20211 2.27074 
6 2 5.78284 0.0733323 8.72949 
7 2 4.315 0.853835 2.31912 
8 2 7.0872 2.45897 4.5026 
9 2 2.88901 0.0723161 4.50036 
10 2 6.87545 2.3703 -0.0597826 
11 2 2.93862 3.18132 6.56945 
12 2 2.79481 0.0340021 -0.0279144 
13 2 1.53838 0.842266 2.29895 
14 2 5.70453 3.20252 2.28806 
15 2 4.20665 2.38035 -0.0293061 
16 2 4.32239 0.7631 6.59005 
