ITEM: TIMESTEP
2760
ITEM: NUMBER OF ATOMS
16
ITEM: BOX BOUNDS xy xz yz pp pp pp
4.2846688475154604e-02 8.5893605391560666e+00 2.8731796700838550e+00
3.6974216755841116e-02 4.8238854720023401e+00 1.6977215754737793e-01
6.7867025312536633e-02 8.7852357746874237e+00 3.7655188758140494e-02
ITEM: ATOMS id type x y z 
1 1 0.160926 0.105398 4.39588 
2 1 5.70947 3.21236 6.65844 
3 1 1.53579 0.805843 6.59336 
4 2 4.34894 2.50598 4.47202 
5 2 2.95587 3.25585 2.29257 
6 2 5.69508 0.045668 8.77069 
7 2 4.29762 0.823917 2.2745 
8 2 7.0742 2.42265 4.53508 
9 2 2.82012 0.116951 4.49821 
10 2 6.92222 2.39073 -0.0239745 
11 2 2.96457 3.23103 6.60931 
12 2 2.75922 0.0427675 0.0508448 
13 2 1.56794 0.874607 2.30032 
14 2 5.71079 3.19454 2.23474 
15 2 4.14896 2.35666 -0.0144946 
16 2 4.3782 0.803514 6.47806 
