ITEM: TIMESTEP
2870
ITEM: NUMBER OF ATOMS
16
ITEM: BOX BOUNDS xy xz yz pp pp pp
4.5637697573334801e-02 8.5834831993503737e+00 2.8702655317253418e+00
3.9382696361530023e-02 4.8214388004133593e+00 1.6959996519836879e-01
7.2287845027077857e-02 8.7808149549728967e+00 3.7616996774847672e-02
ITEM: ATOMS id type x y z 
1 1 0.129722 0.0869967 4.45841 
2 1 5.77182 3.2136 6.56706 
3 1 1.51032 0.8684 6.57496 
4 2 4.36237 2.42926 4.48747 
5 2 2.84723 3.19835 2.24466 
6 2 5.75692 0.113764 8.75522 
7 2 4.20539 0.800669 2.25373 
8 2 7.10524 2.38695 4.43261 
9 2 2.87512 -0.00163955 4.55768 
10 2 7.03181 2.39891 -0.0372138 
11 2 3.03901 3.2937 6.57369 
12 2 2.78539 0.0517258 0.0398103 
13 2 1.35675 0.787015 2.28188 
14 2 5.65973 3.25854 2.28913 
15 2 4.2785 2.46634 0.052923 
16 2 4.31607 0.849085 6.6017 
