ITEM: TIMESTEP
2880
ITEM: NUMBER OF ATOMS
16
ITEM: BOX BOUNDS xy xz yz pp pp pp
3.6957229825560045e-02 8.6017626304920931e+00 2.8793289504186430e+00
3.1891954195198746e-02 4.8290483255243304e+00 1.7013550989901469e-01
5.8538415483542217e-02 8.7945643845164305e+00 3.7735779719486960e-02
ITEM: ATOMS id type x y z 
1 1 0.111172 0.0657506 4.42669 
2 1 5.77216 3.21268 6.60771 
3 1 1.50691 0.836759 6.6153 
4 2 4.37562 2.45763 4.47108 
5 2 2.85258 3.17602 2.24203 
6 2 5.7822 0.121877 8.76862 
7 2 4.2071 0.816032 2.24491 
8 2 7.1171 2.41663 4.41752 
9 2 2.8737 -0.00871779 4.53151 
10 2 7.03097 2.41168 -0.0470968 
11 2 3.02337 3.28618 6.59948 
12 2 2.80393 0.0684461 0.0513922 
13 2 1.3626 0.779155 2.26451 
14 2 5.64638 3.23256 2.27799 
15 2 4.29674 2.46726 0.0291638 
16 2 4.3264 0.821961 6.60601 
