ITEM: TIMESTEP
290
ITEM: NUMBER OF ATOMS
16
ITEM: BOX BOUNDS xy xz yz pp pp pp
4.1785067907653684e-02 8.5915961122410796e+00 2.8742881255238300e+00
3.6058099539512334e-02 4.8248161163640315e+00 1.6983765462490147e-01
6.6185471090021153e-02 8.7869173289099791e+00 3.7669715903538722e-02
ITEM: ATOMS id type x y z 
1 1 0.0756106 0.0310274 4.4676 
2 1 5.79887 3.23963 6.59064 
3 1 1.54395 0.80547 6.58182 
4 2 4.38714 2.49022 4.47032 
5 2 2.94343 3.2456 2.37545 
6 2 5.71346 0.05685 8.68231 
7 2 4.23228 0.818601 2.27016 
8 2 7.0533 2.40104 4.5983 
9 2 2.83802 0.0260499 4.51279 
10 2 6.98764 2.38752 -0.0145275 
11 2 3.0264 3.27357 6.56455 
12 2 2.7741 -0.00112027 -0.089274 
13 2 1.4665 0.864408 2.34924 
14 2 5.69316 3.24654 2.19647 
15 2 4.24393 2.40683 0.0427066 
16 2 4.27938 0.890716 6.52349 
