ITEM: TIMESTEP
2930
ITEM: NUMBER OF ATOMS
16
ITEM: BOX BOUNDS xy xz yz pp pp pp
4.0474091465534823e-02 8.5943567818614905e+00 2.8756569375207595e+00
3.4926802609496654e-02 4.8259653526087227e+00 1.6991853580626765e-01
6.4108949553619787e-02 8.7889938504463494e+00 3.7687655218178594e-02
ITEM: ATOMS id type x y z 
1 1 0.110472 0.0272623 4.37765 
2 1 5.74964 3.23531 6.6371 
3 1 1.59232 0.795581 6.5979 
4 2 4.35231 2.46716 4.47815 
5 2 2.88215 3.20103 2.24202 
6 2 5.76301 0.0968027 8.77999 
7 2 4.22589 0.820598 2.31405 
8 2 7.01967 2.42627 4.58258 
9 2 2.81991 0.101757 4.45632 
10 2 6.96996 2.46645 0.0536225 
11 2 2.98931 3.19703 6.56043 
12 2 2.85866 0.111609 0.0357358 
13 2 1.50403 0.819557 2.2939 
14 2 5.6457 3.14906 2.19764 
15 2 4.24219 2.44188 -0.001622 
16 2 4.34122 0.819453 6.51198 
