ITEM: TIMESTEP
2970
ITEM: NUMBER OF ATOMS
16
ITEM: BOX BOUNDS xy xz yz pp pp pp
3.3013339266805275e-02 8.6100677216454784e+00 2.8834468312118466e+00
2.8488604494895320e-02 4.8325056431613325e+00 1.7037882970044033e-01
5.2291488826972099e-02 8.8008113111729962e+00 3.7789747656183044e-02
ITEM: ATOMS id type x y z 
1 1 0.15187 0.0261947 4.46499 
2 1 5.7403 3.27928 6.63282 
3 1 1.52924 0.852876 6.63851 
4 2 4.30411 2.44105 4.414 
5 2 2.93229 3.28106 2.32644 
6 2 5.76175 0.0852465 8.7437 
7 2 4.29713 0.789503 2.28123 
8 2 6.96708 2.38483 4.5298 
9 2 2.83548 0.0251742 4.50224 
10 2 6.96196 2.37287 -0.0281765 
11 2 3.00327 3.26268 6.5921 
12 2 2.76853 0.0349888 -0.0867527 
13 2 1.53584 0.858742 2.28871 
14 2 5.70377 3.21364 2.24828 
15 2 4.20224 2.39781 0.00230685 
16 2 4.42087 0.838926 6.54538 
