ITEM: TIMESTEP
310
ITEM: NUMBER OF ATOMS
16
ITEM: BOX BOUNDS xy xz yz pp pp pp
4.1308411478027107e-02 8.5925998609602487e+00 2.8747858103168715e+00
3.5646772578799446e-02 4.8252339658596970e+00 1.6986706212140204e-01
6.5430470992556167e-02 8.7876723290074459e+00 3.7676238438491612e-02
ITEM: ATOMS id type x y z 
1 1 0.0755297 0.0327597 4.42118 
2 1 5.77703 3.22123 6.59583 
3 1 1.59039 0.809926 6.61752 
4 2 4.33933 2.46063 4.47642 
5 2 2.94946 3.24292 2.33854 
6 2 5.7424 0.0427673 8.74523 
7 2 4.25717 0.824709 2.25213 
8 2 7.07903 2.41684 4.53755 
9 2 2.85862 0.014893 4.4606 
10 2 6.99185 2.3729 -0.0100088 
11 2 3.01336 3.33502 6.59701 
12 2 2.72143 0.0101958 -0.0123303 
13 2 1.44618 0.867825 2.31338 
14 2 5.67743 3.2436 2.22835 
15 2 4.24627 2.38859 0.011796 
16 2 4.29524 0.895828 6.54725 
