ITEM: TIMESTEP
330
ITEM: NUMBER OF ATOMS
16
ITEM: BOX BOUNDS xy xz yz pp pp pp
4.0569615352825217e-02 8.5941556265354215e+00 2.8755571994638900e+00
3.5009234205504836e-02 4.8258816138701457e+00 1.6991264242435414e-01
6.4260254644121773e-02 8.7888425453558767e+00 3.7686348075643597e-02
ITEM: ATOMS id type x y z 
1 1 0.109964 0.0730902 4.39136 
2 1 5.74699 3.20061 6.62546 
3 1 1.59638 0.844672 6.61836 
4 2 4.30653 2.42032 4.46005 
5 2 2.93646 3.21352 2.25278 
6 2 5.73747 0.0541681 8.83297 
7 2 4.2592 0.841898 2.2361 
8 2 7.09143 2.4046 4.46403 
9 2 2.86819 0.0271298 4.42656 
10 2 6.98394 2.37698 0.0084134 
11 2 2.99811 3.36082 6.60796 
12 2 2.72456 0.0163575 0.0801358 
13 2 1.4477 0.873455 2.2662 
14 2 5.67656 3.23028 2.25558 
15 2 4.24866 2.36486 0.00281338 
16 2 4.33367 0.875407 6.58931 
