ITEM: TIMESTEP
380
ITEM: NUMBER OF ATOMS
16
ITEM: BOX BOUNDS xy xz yz pp pp pp
4.7135548026683072e-02 8.5803290082378378e+00 2.8687016015094557e+00
4.0675254766891378e-02 4.8201257455217545e+00 1.6950755475506535e-01
7.4660365710712107e-02 8.7784424342892855e+00 3.7596500288638805e-02
ITEM: ATOMS id type x y z 
1 1 0.216111 0.0927413 4.4241 
2 1 5.71285 3.25776 6.59211 
3 1 1.54618 0.894817 6.60234 
4 2 4.31864 2.44458 4.45695 
5 2 2.88702 3.19582 2.23688 
6 2 5.73895 0.100517 8.73195 
7 2 4.21887 0.825407 2.34523 
8 2 7.02571 2.44089 4.49477 
9 2 2.87381 0.0320561 4.57319 
10 2 6.94011 2.42222 -0.0284129 
11 2 3.01421 3.22626 6.51705 
12 2 2.81142 0.0131332 0.00419688 
13 2 1.49849 0.806652 2.2742 
14 2 5.6607 3.20453 2.28903 
15 2 4.22243 2.43329 0.0343333 
16 2 4.33688 0.818894 6.59084 
