ITEM: TIMESTEP
410
ITEM: NUMBER OF ATOMS
16
ITEM: BOX BOUNDS xy xz yz pp pp pp
3.1671118060605519e-02 8.6128941868577691e+00 2.8848482663791799e+00
2.7330345138621315e-02 4.8336822693834884e+00 1.7046163853919835e-01
5.0165477136988379e-02 8.8029373228630128e+00 3.7808114522101005e-02
ITEM: ATOMS id type x y z 
1 1 0.169672 0.0333809 4.45453 
2 1 5.72276 3.24893 6.62892 
3 1 1.49328 0.857405 6.62571 
4 2 4.3717 2.45492 4.44198 
5 2 2.87027 3.24592 2.31664 
6 2 5.77783 0.108844 8.68218 
7 2 4.25049 0.769208 2.34899 
8 2 7.05012 2.43456 4.52359 
9 2 2.8637 0.0709641 4.57369 
10 2 6.97807 2.40039 -0.053827 
11 2 3.0208 3.18903 6.55161 
12 2 2.79911 0.0564122 -0.0888387 
13 2 1.4917 0.770024 2.28126 
14 2 5.68207 3.19289 2.22121 
15 2 4.21536 2.46629 0.0373958 
16 2 4.36719 0.839385 6.54585 
