ITEM: TIMESTEP
420
ITEM: NUMBER OF ATOMS
16
ITEM: BOX BOUNDS xy xz yz pp pp pp
4.2028537575142799e-02 8.5910834109499365e+00 2.8740339148522724e+00
3.6268199796487988e-02 4.8246026844842849e+00 1.6982263367280750e-01
6.6571114944292020e-02 8.7865316850557100e+00 3.7666384280765054e-02
ITEM: ATOMS id type x y z 
1 1 0.161642 0.03259 4.45986 
2 1 5.71339 3.22795 6.6364 
3 1 1.49446 0.853576 6.59633 
4 2 4.38291 2.45181 4.42857 
5 2 2.87415 3.24279 2.33778 
6 2 5.74883 0.116972 8.68528 
7 2 4.25128 0.775543 2.33019 
8 2 7.03834 2.41842 4.52051 
9 2 2.85099 0.0981569 4.54236 
10 2 6.96978 2.40357 -0.012549 
11 2 3.01012 3.19637 6.56738 
12 2 2.80112 0.0851295 -0.0605259 
13 2 1.49478 0.784874 2.2898 
14 2 5.67732 3.18021 2.20148 
15 2 4.20856 2.45771 0.074056 
16 2 4.37713 0.858971 6.52669 
