ITEM: TIMESTEP
430
ITEM: NUMBER OF ATOMS
16
ITEM: BOX BOUNDS xy xz yz pp pp pp
3.7853816213373026e-02 8.5998745883248997e+00 2.8783928098714138e+00
3.2665656449062386e-02 4.8282623544418000e+00 1.7008019466686139e-01
5.9958563766703499e-02 8.7931442362332959e+00 3.7723510890852026e-02
ITEM: ATOMS id type x y z 
1 1 0.139037 0.0209688 4.45867 
2 1 5.7223 3.21415 6.65207 
3 1 1.49931 0.84123 6.57653 
4 2 4.39987 2.45077 4.41583 
5 2 2.88525 3.23479 2.3367 
6 2 5.728 0.109266 8.72922 
7 2 4.25588 0.781911 2.28878 
8 2 7.04826 2.40527 4.51438 
9 2 2.84021 0.100939 4.50526 
10 2 6.98229 2.41106 0.0109671 
11 2 2.99708 3.21532 6.59484 
12 2 2.80456 0.0963209 -0.0454855 
13 2 1.49097 0.796343 2.28387 
14 2 5.6882 3.17432 2.17351 
15 2 4.21129 2.44371 0.0883271 
16 2 4.39 0.868954 6.52679 
