ITEM: TIMESTEP
450
ITEM: NUMBER OF ATOMS
16
ITEM: BOX BOUNDS xy xz yz pp pp pp
4.3144821181999138e-02 8.5887327277933281e+00 2.8728683848366803e+00
3.7231488057722473e-02 4.8236241210722497e+00 1.6975376413864871e-01
6.8339252704723741e-02 8.7847635472952739e+00 3.7651109129963563e-02
ITEM: ATOMS id type x y z 
1 1 0.109404 0.0133352 4.43115 
2 1 5.73231 3.20675 6.65606 
3 1 1.54209 0.820421 6.56123 
4 2 4.40551 2.45573 4.40701 
5 2 2.92108 3.20378 2.32301 
6 2 5.68727 0.0971793 8.80663 
7 2 4.24607 0.813146 2.2228 
8 2 7.04582 2.40495 4.50052 
9 2 2.84163 0.0708148 4.43506 
10 2 6.97909 2.42289 0.0613339 
11 2 2.97215 3.25564 6.62466 
12 2 2.794 0.102851 0.00440222 
13 2 1.48692 0.826418 2.2781 
14 2 5.6924 3.1841 2.16617 
15 2 4.21583 2.42109 0.108682 
16 2 4.376 0.889416 6.53969 
