ITEM: TIMESTEP
480
ITEM: NUMBER OF ATOMS
16
ITEM: BOX BOUNDS xy xz yz pp pp pp
3.8402846109227173e-02 8.5987184347087986e+00 2.8778195587557036e+00
3.3139437529868143e-02 4.8277810604723328e+00 1.7004632206232367e-01
6.0828199838130814e-02 8.7922746001618641e+00 3.7715998002189867e-02
ITEM: ATOMS id type x y z 
1 1 0.0845066 0.0284965 4.3826 
2 1 5.76877 3.24388 6.62499 
3 1 1.59764 0.797591 6.62059 
4 2 4.34922 2.44622 4.46603 
5 2 2.96544 3.1832 2.27938 
6 2 5.73064 0.0599014 8.83561 
7 2 4.22389 0.842485 2.24169 
8 2 7.0805 2.41492 4.51193 
9 2 2.88822 -0.0175109 4.41935 
10 2 6.96745 2.40376 0.0131913 
11 2 2.97301 3.30821 6.61053 
12 2 2.7261 0.0298232 -0.00435345 
13 2 1.45397 0.84824 2.282 
14 2 5.70666 3.25743 2.24445 
15 2 4.25032 2.43216 -0.000831329 
16 2 4.3139 0.888889 6.58392 
