ITEM: TIMESTEP
540
ITEM: NUMBER OF ATOMS
16
ITEM: BOX BOUNDS xy xz yz pp pp pp
3.4853102339864162e-02 8.6061935269144580e+00 2.8815259044239929e+00
3.0076213737618485e-02 4.8308928587227671e+00 1.7026532483032786e-01
5.5205582109144835e-02 8.7978972178908457e+00 3.7764572460374804e-02
ITEM: ATOMS id type x y z 
1 1 0.173238 0.107705 4.44834 
2 1 5.77085 3.19841 6.60429 
3 1 1.46994 0.878292 6.61655 
4 2 4.33573 2.4398 4.4364 
5 2 2.91839 3.26169 2.21281 
6 2 5.70274 0.0673342 8.73061 
7 2 4.24941 0.859157 2.30099 
8 2 7.06622 2.3513 4.48591 
9 2 2.85107 0.0334326 4.5871 
10 2 7.01271 2.3627 -0.0614849 
11 2 3.04917 3.31264 6.53059 
12 2 2.8034 -0.0279702 0.0438511 
13 2 1.44926 0.86729 2.26522 
14 2 5.7135 3.26593 2.30799 
15 2 4.22913 2.37067 -0.0117532 
16 2 4.30857 0.805139 6.603 
