ITEM: TIMESTEP
780
ITEM: NUMBER OF ATOMS
16
ITEM: BOX BOUNDS xy xz yz pp pp pp
3.7696043828602477e-02 8.6002068272695400e+00 2.8785575426050629e+00
3.2529507996048590e-02 4.8284006618416617e+00 1.7008992849308216e-01
5.9708660149587089e-02 8.7933941398503812e+00 3.7725669837695749e-02
ITEM: ATOMS id type x y z 
1 1 0.115032 0.078531 4.45352 
2 1 5.73055 3.20534 6.63347 
3 1 1.54017 0.79827 6.56153 
4 2 4.34252 2.45856 4.45635 
5 2 2.89949 3.21618 2.34584 
6 2 5.72042 0.123889 8.79201 
7 2 4.21997 0.851295 2.25304 
8 2 7.07591 2.50663 4.51156 
9 2 2.83396 0.0346457 4.46358 
10 2 7.02985 2.42778 -0.0168341 
11 2 3.01528 3.24177 6.6433 
12 2 2.78235 0.0179328 -0.0760537 
13 2 1.50084 0.793123 2.28836 
14 2 5.68485 3.16825 2.20332 
15 2 4.23989 2.43989 0.0527451 
16 2 4.35286 0.802615 6.54342 
