ITEM: TIMESTEP
860
ITEM: NUMBER OF ATOMS
16
ITEM: BOX BOUNDS xy xz yz pp pp pp
3.8358486408007764e-02 8.5988118478896904e+00 2.8778658754470365e+00
3.3101157670527126e-02 4.8278199473468888e+00 1.7004905885066279e-01
6.0757936275816604e-02 8.7923448637241375e+00 3.7716605017397722e-02
ITEM: ATOMS id type x y z 
1 1 0.152406 0.0471068 4.43401 
2 1 5.72734 3.26038 6.62241 
3 1 1.54554 0.835709 6.64296 
4 2 4.34868 2.4667 4.46672 
5 2 2.95806 3.2578 2.23231 
6 2 5.76444 -0.00519275 8.64888 
7 2 4.25771 0.82358 2.32101 
8 2 7.05209 2.39111 4.51581 
9 2 2.84733 0.0549814 4.58802 
10 2 6.93388 2.38847 -0.0447801 
11 2 2.97843 3.27714 6.50217 
12 2 2.79435 0.00403708 0.0131056 
13 2 1.47628 0.901905 2.30106 
14 2 5.67329 3.28387 2.30804 
15 2 4.24682 2.3661 -0.0192755 
16 2 4.32347 0.814934 6.5796 
