   5   5   0   0
  0.2000000E+03  0.1000000E-08  0.1000000E-08  0.1000000E-08  0.5000000E-15
   1.0000000000000000E-004
  CAR 
 unknown system                          
      1.58044763    -17.75888905  301     -9.04812949      1.00000000
    -17.759  0.0000E+00  0.0000E+00
    -17.694  0.0000E+00  0.0000E+00
    -17.630  0.0000E+00  0.0000E+00
    -17.565  0.0000E+00  0.0000E+00
    -17.501  0.0000E+00  0.0000E+00
    -17.437  0.0000E+00  0.0000E+00
    -17.372  0.0000E+00  0.0000E+00
    -17.308  0.0000E+00  0.0000E+00
    -17.243  0.0000E+00  0.0000E+00
    -17.179  0.0000E+00  0.0000E+00
    -17.114  0.5187E-12  0.3344E-13
    -17.050  0.2374E-07  0.1530E-08
    -16.985  0.4412E-04  0.2846E-05
    -16.921  0.3769E-02  0.2458E-03
    -16.856  0.1934E-01  0.1493E-02
    -16.792  0.7672E-02  0.1987E-02
    -16.727  0.2001E-03  0.2000E-02
    -16.663  0.2539E-06  0.2000E-02
    -16.599  0.1340E-10  0.2000E-02
    -16.534  0.2756E-16  0.2000E-02
    -16.470  0.0000E+00  0.2000E-02
    -16.405  0.0000E+00  0.2000E-02
    -16.341  0.0000E+00  0.2000E-02
    -16.276  0.0000E+00  0.2000E-02
    -16.212  0.0000E+00  0.2000E-02
    -16.147  0.0000E+00  0.2000E-02
    -16.083  0.0000E+00  0.2000E-02
    -16.018  0.0000E+00  0.2000E-02
    -15.954  0.0000E+00  0.2000E-02
    -15.889  0.0000E+00  0.2000E-02
    -15.825  0.0000E+00  0.2000E-02
    -15.760  0.0000E+00  0.2000E-02
    -15.696  0.0000E+00  0.2000E-02
    -15.632  0.0000E+00  0.2000E-02
    -15.567  0.0000E+00  0.2000E-02
    -15.503  0.0000E+00  0.2000E-02
    -15.438  0.0000E+00  0.2000E-02
    -15.374  0.0000E+00  0.2000E-02
    -15.309  0.0000E+00  0.2000E-02
    -15.245  0.0000E+00  0.2000E-02
    -15.180  0.0000E+00  0.2000E-02
    -15.116  0.0000E+00  0.2000E-02
    -15.051  0.0000E+00  0.2000E-02
    -14.987  0.0000E+00  0.2000E-02
    -14.922  0.0000E+00  0.2000E-02
    -14.858  0.0000E+00  0.2000E-02
    -14.794  0.0000E+00  0.2000E-02
    -14.729  0.0000E+00  0.2000E-02
    -14.665  0.0000E+00  0.2000E-02
    -14.600  0.0000E+00  0.2000E-02
    -14.536  0.0000E+00  0.2000E-02
    -14.471  0.0000E+00  0.2000E-02
    -14.407  0.0000E+00  0.2000E-02
    -14.342  0.0000E+00  0.2000E-02
    -14.278  0.0000E+00  0.2000E-02
    -14.213  0.0000E+00  0.2000E-02
    -14.149  0.0000E+00  0.2000E-02
    -14.084  0.0000E+00  0.2000E-02
    -14.020  0.0000E+00  0.2000E-02
    -13.955  0.0000E+00  0.2000E-02
    -13.891  0.0000E+00  0.2000E-02
    -13.827  0.0000E+00  0.2000E-02
    -13.762  0.0000E+00  0.2000E-02
    -13.698  0.0000E+00  0.2000E-02
    -13.633  0.0000E+00  0.2000E-02
    -13.569  0.0000E+00  0.2000E-02
    -13.504  0.0000E+00  0.2000E-02
    -13.440  0.0000E+00  0.2000E-02
    -13.375  0.0000E+00  0.2000E-02
    -13.311  0.0000E+00  0.2000E-02
    -13.246  0.0000E+00  0.2000E-02
    -13.182  0.0000E+00  0.2000E-02
    -13.117  0.0000E+00  0.2000E-02
    -13.053  0.0000E+00  0.2000E-02
    -12.989  0.0000E+00  0.2000E-02
    -12.924  0.0000E+00  0.2000E-02
    -12.860  0.0000E+00  0.2000E-02
    -12.795  0.0000E+00  0.2000E-02
    -12.731  0.0000E+00  0.2000E-02
    -12.666  0.0000E+00  0.2000E-02
    -12.602  0.0000E+00  0.2000E-02
    -12.537  0.0000E+00  0.2000E-02
    -12.473  0.0000E+00  0.2000E-02
    -12.408  0.0000E+00  0.2000E-02
    -12.344  0.0000E+00  0.2000E-02
    -12.279  0.0000E+00  0.2000E-02
    -12.215  0.0000E+00  0.2000E-02
    -12.150  0.0000E+00  0.2000E-02
    -12.086  0.0000E+00  0.2000E-02
    -12.022  0.0000E+00  0.2000E-02
    -11.957  0.0000E+00  0.2000E-02
    -11.893  0.0000E+00  0.2000E-02
    -11.828  0.0000E+00  0.2000E-02
    -11.764  0.0000E+00  0.2000E-02
    -11.699  0.0000E+00  0.2000E-02
    -11.635  0.0000E+00  0.2000E-02
    -11.570  0.0000E+00  0.2000E-02
    -11.506  0.0000E+00  0.2000E-02
    -11.441  0.0000E+00  0.2000E-02
    -11.377  0.0000E+00  0.2000E-02
    -11.312  0.0000E+00  0.2000E-02
    -11.248  0.0000E+00  0.2000E-02
    -11.184  0.0000E+00  0.2000E-02
    -11.119  0.0000E+00  0.2000E-02
    -11.055  0.0000E+00  0.2000E-02
    -10.990  0.0000E+00  0.2000E-02
    -10.926  0.0000E+00  0.2000E-02
    -10.861  0.0000E+00  0.2000E-02
    -10.797  0.0000E+00  0.2000E-02
    -10.732  0.0000E+00  0.2000E-02
    -10.668  0.0000E+00  0.2000E-02
    -10.603  0.0000E+00  0.2000E-02
    -10.539  0.0000E+00  0.2000E-02
    -10.474  0.0000E+00  0.2000E-02
    -10.410  0.0000E+00  0.2000E-02
    -10.345  0.0000E+00  0.2000E-02
    -10.281  0.0000E+00  0.2000E-02
    -10.217  0.0000E+00  0.2000E-02
    -10.152  0.0000E+00  0.2000E-02
    -10.088  0.0000E+00  0.2000E-02
    -10.023  0.0000E+00  0.2000E-02
     -9.959  0.0000E+00  0.2000E-02
     -9.894  0.0000E+00  0.2000E-02
     -9.830  0.0000E+00  0.2000E-02
     -9.765  0.0000E+00  0.2000E-02
     -9.701  0.0000E+00  0.2000E-02
     -9.636  0.0000E+00  0.2000E-02
     -9.572  0.2067E-16  0.2000E-02
     -9.507  0.1387E-10  0.2000E-02
     -9.443  0.3527E-06  0.2000E-02
     -9.379  0.3702E-03  0.2024E-02
     -9.314  0.1853E-01  0.3219E-02
     -9.250  0.5923E-01  0.7037E-02
     -9.185  0.1471E-01  0.7985E-02
     -9.121  0.2264E-03  0.8000E-02
     -9.056  0.1632E-06  0.8000E-02
     -8.992  0.4817E-11  0.8000E-02
     -8.927  0.0000E+00  0.8000E-02
     -8.863  0.0000E+00  0.8000E-02
     -8.798  0.0000E+00  0.8000E-02
     -8.734  0.0000E+00  0.8000E-02
     -8.669  0.0000E+00  0.8000E-02
     -8.605  0.0000E+00  0.8000E-02
     -8.540  0.0000E+00  0.8000E-02
     -8.476  0.0000E+00  0.8000E-02
     -8.412  0.0000E+00  0.8000E-02
     -8.347  0.0000E+00  0.8000E-02
     -8.283  0.0000E+00  0.8000E-02
     -8.218  0.0000E+00  0.8000E-02
     -8.154  0.0000E+00  0.8000E-02
     -8.089  0.0000E+00  0.8000E-02
     -8.025  0.0000E+00  0.8000E-02
     -7.960  0.0000E+00  0.8000E-02
     -7.896  0.0000E+00  0.8000E-02
     -7.831  0.0000E+00  0.8000E-02
     -7.767  0.0000E+00  0.8000E-02
     -7.702  0.0000E+00  0.8000E-02
     -7.638  0.0000E+00  0.8000E-02
     -7.574  0.0000E+00  0.8000E-02
     -7.509  0.0000E+00  0.8000E-02
     -7.445  0.0000E+00  0.8000E-02
     -7.380  0.0000E+00  0.8000E-02
     -7.316  0.0000E+00  0.8000E-02
     -7.251  0.0000E+00  0.8000E-02
     -7.187  0.0000E+00  0.8000E-02
     -7.122  0.0000E+00  0.8000E-02
     -7.058  0.0000E+00  0.8000E-02
     -6.993  0.0000E+00  0.8000E-02
     -6.929  0.0000E+00  0.8000E-02
     -6.864  0.0000E+00  0.8000E-02
     -6.800  0.0000E+00  0.8000E-02
     -6.735  0.0000E+00  0.8000E-02
     -6.671  0.0000E+00  0.8000E-02
     -6.607  0.0000E+00  0.8000E-02
     -6.542  0.0000E+00  0.8000E-02
     -6.478  0.0000E+00  0.8000E-02
     -6.413  0.0000E+00  0.8000E-02
     -6.349  0.0000E+00  0.8000E-02
     -6.284  0.0000E+00  0.8000E-02
     -6.220  0.0000E+00  0.8000E-02
     -6.155  0.0000E+00  0.8000E-02
     -6.091  0.0000E+00  0.8000E-02
     -6.026  0.0000E+00  0.8000E-02
     -5.962  0.0000E+00  0.8000E-02
     -5.897  0.0000E+00  0.8000E-02
     -5.833  0.0000E+00  0.8000E-02
     -5.769  0.0000E+00  0.8000E-02
     -5.704  0.0000E+00  0.8000E-02
     -5.640  0.0000E+00  0.8000E-02
     -5.575  0.0000E+00  0.8000E-02
     -5.511  0.0000E+00  0.8000E-02
     -5.446  0.0000E+00  0.8000E-02
     -5.382  0.0000E+00  0.8000E-02
     -5.317  0.0000E+00  0.8000E-02
     -5.253  0.0000E+00  0.8000E-02
     -5.188  0.0000E+00  0.8000E-02
     -5.124  0.0000E+00  0.8000E-02
     -5.059  0.0000E+00  0.8000E-02
     -4.995  0.0000E+00  0.8000E-02
     -4.930  0.0000E+00  0.8000E-02
     -4.866  0.0000E+00  0.8000E-02
     -4.802  0.0000E+00  0.8000E-02
     -4.737  0.0000E+00  0.8000E-02
     -4.673  0.0000E+00  0.8000E-02
     -4.608  0.0000E+00  0.8000E-02
     -4.544  0.0000E+00  0.8000E-02
     -4.479  0.0000E+00  0.8000E-02
     -4.415  0.0000E+00  0.8000E-02
     -4.350  0.0000E+00  0.8000E-02
     -4.286  0.0000E+00  0.8000E-02
     -4.221  0.0000E+00  0.8000E-02
     -4.157  0.0000E+00  0.8000E-02
     -4.092  0.0000E+00  0.8000E-02
     -4.028  0.0000E+00  0.8000E-02
     -3.963  0.0000E+00  0.8000E-02
     -3.899  0.0000E+00  0.8000E-02
     -3.835  0.0000E+00  0.8000E-02
     -3.770  0.0000E+00  0.8000E-02
     -3.706  0.0000E+00  0.8000E-02
     -3.641  0.0000E+00  0.8000E-02
     -3.577  0.0000E+00  0.8000E-02
     -3.512  0.0000E+00  0.8000E-02
     -3.448  0.0000E+00  0.8000E-02
     -3.383  0.0000E+00  0.8000E-02
     -3.319  0.0000E+00  0.8000E-02
     -3.254  0.0000E+00  0.8000E-02
     -3.190  0.0000E+00  0.8000E-02
     -3.125  0.0000E+00  0.8000E-02
     -3.061  0.0000E+00  0.8000E-02
     -2.997  0.0000E+00  0.8000E-02
     -2.932  0.0000E+00  0.8000E-02
     -2.868  0.0000E+00  0.8000E-02
     -2.803  0.0000E+00  0.8000E-02
     -2.739  0.0000E+00  0.8000E-02
     -2.674  0.0000E+00  0.8000E-02
     -2.610  0.0000E+00  0.8000E-02
     -2.545  0.0000E+00  0.8000E-02
     -2.481  0.0000E+00  0.8000E-02
     -2.416  0.0000E+00  0.8000E-02
     -2.352  0.0000E+00  0.8000E-02
     -2.287  0.0000E+00  0.8000E-02
     -2.223  0.0000E+00  0.8000E-02
     -2.158  0.0000E+00  0.8000E-02
     -2.094  0.0000E+00  0.8000E-02
     -2.030  0.0000E+00  0.8000E-02
     -1.965  0.0000E+00  0.8000E-02
     -1.901  0.0000E+00  0.8000E-02
     -1.836  0.0000E+00  0.8000E-02
     -1.772  0.0000E+00  0.8000E-02
     -1.707  0.0000E+00  0.8000E-02
     -1.643  0.0000E+00  0.8000E-02
     -1.578  0.0000E+00  0.8000E-02
     -1.514  0.0000E+00  0.8000E-02
     -1.449  0.0000E+00  0.8000E-02
     -1.385  0.0000E+00  0.8000E-02
     -1.320  0.0000E+00  0.8000E-02
     -1.256  0.0000E+00  0.8000E-02
     -1.192  0.0000E+00  0.8000E-02
     -1.127  0.0000E+00  0.8000E-02
     -1.063  0.0000E+00  0.8000E-02
     -0.998  0.0000E+00  0.8000E-02
     -0.934  0.0000E+00  0.8000E-02
     -0.869  0.0000E+00  0.8000E-02
     -0.805  0.0000E+00  0.8000E-02
     -0.740  0.0000E+00  0.8000E-02
     -0.676  0.0000E+00  0.8000E-02
     -0.611  0.0000E+00  0.8000E-02
     -0.547  0.6673E-12  0.8000E-02
     -0.482  0.2858E-07  0.8000E-02
     -0.418  0.4980E-04  0.8003E-02
     -0.353  0.4004E-02  0.8261E-02
     -0.289  0.1946E-01  0.9516E-02
     -0.225  0.7326E-02  0.9988E-02
     -0.160  0.1801E-03  0.1000E-01
     -0.096  0.2144E-06  0.1000E-01
     -0.031  0.1059E-10  0.1000E-01
      0.033  0.2067E-16  0.1000E-01
      0.098  0.0000E+00  0.1000E-01
      0.162  0.0000E+00  0.1000E-01
      0.227  0.0000E+00  0.1000E-01
      0.291  0.1119E-16  0.1000E-01
      0.356  0.6406E-11  0.1000E-01
      0.420  0.1465E-06  0.1000E-01
      0.485  0.1402E-03  0.1001E-01
      0.549  0.6522E-02  0.1043E-01
      0.613  0.2126E-01  0.1180E-01
      0.678  0.2834E-01  0.1363E-01
      0.742  0.3245E-01  0.1572E-01
      0.807  0.4326E-02  0.1600E-01
      0.871  0.4132E-04  0.1600E-01
      0.936  0.1996E-07  0.1600E-01
      1.000  0.4063E-12  0.1600E-01
      1.065  0.0000E+00  0.1600E-01
      1.129  0.0000E+00  0.1600E-01
      1.194  0.0000E+00  0.1600E-01
      1.258  0.0000E+00  0.1600E-01
      1.323  0.0000E+00  0.1600E-01
      1.387  0.0000E+00  0.1600E-01
      1.452  0.0000E+00  0.1600E-01
      1.516  0.0000E+00  0.1600E-01
      1.580  0.0000E+00  0.1600E-01
