    5    5 1000    1
  0.2000000E+03  0.1000000E-08  0.1000000E-08  0.1000000E-08  0.5000000E-15
   1.0000000000000000E-004
  CAR 
 unknown system                          
      8      4      8

  0.2500000E+00  0.2500000E+00  0.2500000E+00  0.2500000E+00
    1      -16.879821   1.000000
    2       -9.285313   1.000000
    3       -9.284700   1.000000
    4       -9.283952   1.000000
    5       -0.313756   0.000000
    6        0.579803   0.000000
    7        0.674140   0.000000
    8        0.698811   0.000000

 -0.2500000E+00  0.2500000E+00  0.2500000E+00  0.2500000E+00
    1      -16.879811   1.000000
    2       -9.285416   1.000000
    3       -9.284744   1.000000
    4       -9.283925   1.000000
    5       -0.313809   0.000000
    6        0.575088   0.000000
    7        0.671647   0.000000
    8        0.701387   0.000000

  0.2500000E+00 -0.2500000E+00  0.2500000E+00  0.2500000E+00
    1      -16.879812   1.000000
    2       -9.285434   1.000000
    3       -9.284715   1.000000
    4       -9.283925   1.000000
    5       -0.313758   0.000000
    6        0.574336   0.000000
    7        0.673881   0.000000
    8        0.701234   0.000000

 -0.2500000E+00 -0.2500000E+00  0.2500000E+00  0.2500000E+00
    1      -16.879828   1.000000
    2       -9.285338   1.000000
    3       -9.284706   1.000000
    4       -9.283940   1.000000
    5       -0.313761   0.000000
    6        0.578936   0.000000
    7        0.675046   0.000000
    8        0.698118   0.000000
