       N       E                     dE             d eps       ncg     rms          rms(c)
DAV:   1     0.765728166411E+01    0.76573E+01   -0.19621E+03    96   0.426E+02
DAV:   2    -0.217762739906E+02   -0.29434E+02   -0.29434E+02    64   0.103E+02
DAV:   3    -0.249509896163E+02   -0.31747E+01   -0.31747E+01    64   0.391E+01
DAV:   4    -0.251238970684E+02   -0.17291E+00   -0.17291E+00   128   0.912E+00
DAV:   5    -0.251239739124E+02   -0.76844E-04   -0.76844E-04    96   0.229E-01    0.657E+00
RMM:   6    -0.234722651225E+02    0.16517E+01   -0.26879E+00    64   0.950E+00    0.343E+00
RMM:   7    -0.231926504818E+02    0.27961E+00   -0.32615E-01    64   0.318E+00    0.193E+00
RMM:   8    -0.230686219035E+02    0.12403E+00   -0.17180E-01    64   0.273E+00    0.276E-01
RMM:   9    -0.230638241846E+02    0.47977E-02   -0.12120E-02    64   0.652E-01    0.163E-01
RMM:  10    -0.230597355505E+02    0.40886E-02   -0.15687E-02    64   0.653E-01    0.228E-01
RMM:  11    -0.230611171286E+02   -0.13816E-02   -0.12685E-02    64   0.654E-01    0.156E-01
RMM:  12    -0.230678118554E+02   -0.66947E-02   -0.11554E-03    64   0.202E-01    0.948E-02
RMM:  13    -0.230685091196E+02   -0.69726E-03   -0.14247E-03    64   0.204E-01    0.145E-02
RMM:  14    -0.230710380485E+02   -0.25289E-02   -0.62109E-04    64   0.138E-01    0.145E-02
RMM:  15    -0.230711308112E+02   -0.92763E-04   -0.13239E-04    64   0.578E-02    0.292E-02
RMM:  16    -0.230713270048E+02   -0.19619E-03   -0.15059E-04    64   0.678E-02    0.383E-03
RMM:  17    -0.230713506054E+02   -0.23601E-04   -0.97566E-06    60   0.231E-02    0.484E-03
RMM:  18    -0.230713605546E+02   -0.99493E-05   -0.23604E-06    52   0.892E-03    0.371E-04
RMM:  19    -0.230713619996E+02   -0.14449E-05   -0.19373E-07    48   0.338E-03    0.536E-04
RMM:  20    -0.230713631142E+02   -0.11146E-05   -0.63077E-08    44   0.200E-03    0.240E-04
RMM:  21    -0.230713633232E+02   -0.20902E-06   -0.10600E-07    48   0.217E-03
   1 F= -.23071363E+02 E0= -.23071363E+02  d E =-.230714E+02
       N       E                     dE             d eps       ncg     rms          rms(c)
DAV:   1    -0.243281360956E+02   -0.12568E+01   -0.39860E+01    64   0.565E+01    0.286E+00
RMM:   2    -0.240731795488E+02    0.25496E+00   -0.48880E-01    64   0.601E+00    0.155E+00
RMM:   3    -0.240453341351E+02    0.27845E-01   -0.98160E-01    64   0.552E+00    0.906E-01
RMM:   4    -0.240302175920E+02    0.15117E-01   -0.94541E-03    64   0.878E-01    0.809E-01
RMM:   5    -0.241099035083E+02   -0.79686E-01   -0.19147E-01    64   0.257E+00    0.189E+00
RMM:   6    -0.240198830391E+02    0.90020E-01   -0.68970E-01    64   0.480E+00    0.273E-01
RMM:   7    -0.240184071056E+02    0.14759E-02   -0.54334E-03    64   0.663E-01    0.260E-01
RMM:   8    -0.240166775498E+02    0.17296E-02   -0.37443E-03    64   0.346E-01    0.942E-02
RMM:   9    -0.240167501375E+02   -0.72588E-04   -0.61153E-04    64   0.151E-01    0.374E-02
RMM:  10    -0.240168241070E+02   -0.73970E-04   -0.35136E-04    64   0.113E-01    0.336E-03
RMM:  11    -0.240169594659E+02   -0.13536E-03   -0.19504E-04    64   0.842E-02    0.274E-02
RMM:  12    -0.240169866514E+02   -0.27185E-04   -0.57547E-06    60   0.195E-02    0.232E-02
RMM:  13    -0.240170022131E+02   -0.15562E-04   -0.14656E-04    64   0.700E-02    0.782E-03
RMM:  14    -0.240170114106E+02   -0.91975E-05   -0.11086E-06    48   0.101E-02    0.428E-03
RMM:  15    -0.240170207011E+02   -0.92905E-05   -0.41798E-06    60   0.119E-02    0.782E-04
RMM:  16    -0.240170228059E+02   -0.21048E-05   -0.15293E-07    48   0.294E-03    0.517E-04
RMM:  17    -0.240170231323E+02   -0.32634E-06    0.00000E+00    32   0.142E-03
   2 F= -.24017023E+02 E0= -.24017023E+02  d E =-.945660E+00
       N       E                     dE             d eps       ncg     rms          rms(c)
DAV:   1    -0.240329200952E+02   -0.15897E-01   -0.37192E-01    64   0.538E+00    0.347E-01
RMM:   2    -0.240290144801E+02    0.39056E-02   -0.87014E-03    64   0.626E-01    0.149E-01
RMM:   3    -0.240288092293E+02    0.20525E-03   -0.65843E-03    64   0.473E-01    0.708E-02
RMM:   4    -0.240287866780E+02    0.22551E-04   -0.16295E-04    64   0.106E-01    0.678E-02
RMM:   5    -0.240297074547E+02   -0.92078E-03   -0.74010E-03    64   0.500E-01    0.169E-01
RMM:   6    -0.240287761368E+02    0.93132E-03   -0.23314E-03    64   0.277E-01    0.407E-02
RMM:   7    -0.240287682686E+02    0.78682E-05   -0.21517E-04    64   0.957E-02    0.123E-02
RMM:   8    -0.240287749158E+02   -0.66472E-05   -0.33131E-05    64   0.397E-02    0.364E-03
RMM:   9    -0.240287808299E+02   -0.59141E-05   -0.24883E-05    64   0.308E-02    0.704E-03
RMM:  10    -0.240287800042E+02    0.82568E-06   -0.54251E-06    64   0.143E-02
   3 F= -.24028780E+02 E0= -.24028780E+02  d E =-.957417E+00
       N       E                     dE             d eps       ncg     rms          rms(c)
DAV:   1    -0.240287909423E+02   -0.10112E-04   -0.24850E-04    64   0.146E-01    0.774E-03
RMM:   2    -0.240287896831E+02    0.12592E-05   -0.26606E-06    57   0.134E-02    0.402E-03
RMM:   3    -0.240287899665E+02   -0.28340E-06   -0.39349E-06    60   0.114E-02    0.176E-03
RMM:   4    -0.240287899595E+02    0.70274E-08   -0.13999E-07    48   0.324E-03
   4 F= -.24028790E+02 E0= -.24028790E+02  d E =-.957427E+00
