 vasp.5.4.4.18Apr17-6-g9f103f2a35 (build Jul 12 2018 13:43:46) complex           
 executed on             LinuxGNU date 2019.05.12  12:51:04
 running on   48 total cores
 distrk:  each k-point on   12 cores,    4 groups
 distr:  one band on NCORES_PER_BAND=   3 cores,    4 groups


--------------------------------------------------------------------------------------------------------


 INCAR:
 POTCAR:    PAW_PBE H 15Jun2001                   
 POTCAR:    PAW_PBE C 08Apr2002                   

 ----------------------------------------------------------------------------- 
|                                                                             |
|           W    W    AA    RRRRR   N    N  II  N    N   GGGG   !!!           |
|           W    W   A  A   R    R  NN   N  II  NN   N  G    G  !!!           |
|           W    W  A    A  R    R  N N  N  II  N N  N  G       !!!           |
|           W WW W  AAAAAA  RRRRR   N  N N  II  N  N N  G  GGG   !            |
|           WW  WW  A    A  R   R   N   NN  II  N   NN  G    G                |
|           W    W  A    A  R    R  N    N  II  N    N   GGGG   !!!           |
|                                                                             |
|      For optimal performance we recommend to set                            |
|        NCORE= 4 - approx SQRT( number of cores)                             |
|      NCORE specifies how many cores store one orbital (NPAR=cpu/NCORE).     |
|      This setting can  greatly improve the performance of VASP for DFT.     |
|      The default,   NCORE=1            might be grossly inefficient         |
|      on modern multi-core architectures or massively parallel machines.     |
|      Do your own testing !!!!                                               |
|      Unfortunately you need to use the default for GW and RPA calculations. |
|      (for HF NCORE is supported but not extensively tested yet)             |
|                                                                             |
 ----------------------------------------------------------------------------- 


 ----------------------------------------------------------------------------- 
|                                                                             |
|           W    W    AA    RRRRR   N    N  II  N    N   GGGG   !!!           |
|           W    W   A  A   R    R  NN   N  II  NN   N  G    G  !!!           |
|           W    W  A    A  R    R  N N  N  II  N N  N  G       !!!           |
|           W WW W  AAAAAA  RRRRR   N  N N  II  N  N N  G  GGG   !            |
|           WW  WW  A    A  R   R   N   NN  II  N   NN  G    G                |
|           W    W  A    A  R    R  N    N  II  N    N   GGGG   !!!           |
|                                                                             |
|      You have enabled k-point parallelism (KPAR>1).                         |
|      This developmental code was originally  written by Paul Kent at ORNL,  |
|      and carefully double checked in Vienna.                                |
|      GW as well as linear response parallelism added by Martijn Marsman     |
|      and Georg Kresse.                                                      |
|      Carefully verify results versus KPAR=1.                                |
|      Report problems to Paul Kent and Vienna.                               |
|                                                                             |
 ----------------------------------------------------------------------------- 

 POTCAR:    PAW_PBE H 15Jun2001                   
   VRHFIN =H: ultrasoft test                                                    
   LEXCH  = PE                                                                  
   EATOM  =    12.4884 eV,    0.9179 Ry                                         
                                                                                
   TITEL  = PAW_PBE H 15Jun2001                                                 
   LULTRA =        F    use ultrasoft PP ?                                      
   IUNSCR =        0    unscreen: 0-lin 1-nonlin 2-no                           
   RPACOR =    0.000    partial core radius                                     
   POMASS =    1.000; ZVAL   =    1.000    mass and valenz                      
   RCORE  =    1.100    outmost cutoff radius                                   
   RWIGS  =    0.700; RWIGS  =    0.370    wigner-seitz radius (au A)           
   ENMAX  =  250.000; ENMIN  =  200.000 eV                                      
   RCLOC  =    0.701    cutoff for local pot                                    
   LCOR   =        T    correct aug charges                                     
   LPAW   =        T    paw PP                                                  
   EAUG   =  400.000                                                            
   RMAX   =    1.123    core radius for proj-oper                               
   RAUG   =    1.200    factor for augmentation sphere                          
   RDEP   =    1.112    radius for radial grids                                 
   RDEPT  =    0.926    core radius for aug-charge                              
                                                                                
   Atomic configuration                                                         
    2 entries                                                                   
     n  l   j            E        occ.                                          
     1  0  0.50        -6.4927   1.0000                                         
     2  1  0.50        -3.4015   0.0000                                         
   Description                                                                  
     l       E           TYP  RCUT    TYP  RCUT                                 
     0     -6.4927494     23  1.100                                             
     0      6.8029130     23  1.100                                             
     1     -4.0817478     23  1.100                                             
  local pseudopotential read in
  atomic valenz-charges read in
  non local Contribution for L=           0  read in
    real space projection operators read in
  non local Contribution for L=           0  read in
    real space projection operators read in
  non local Contribution for L=           1  read in
    real space projection operators read in
    PAW grid and wavefunctions read in

   number of l-projection  operators is LMAX  =           3
   number of lm-projection operators is LMMAX =           5

 POTCAR:    PAW_PBE C 08Apr2002                   
   VRHFIN =C: s2p2                                                              
   LEXCH  = PE                                                                  
   EATOM  =   147.1560 eV,   10.8157 Ry                                         
                                                                                
   TITEL  = PAW_PBE C 08Apr2002                                                 
   LULTRA =        F    use ultrasoft PP ?                                      
   IUNSCR =        1    unscreen: 0-lin 1-nonlin 2-no                           
   RPACOR =    1.200    partial core radius                                     
   POMASS =   12.011; ZVAL   =    4.000    mass and valenz                      
   RCORE  =    1.500    outmost cutoff radius                                   
   RWIGS  =    1.630; RWIGS  =    0.863    wigner-seitz radius (au A)           
   ENMAX  =  400.000; ENMIN  =  300.000 eV                                      
   ICORE  =        2    local potential                                         
   LCOR   =        T    correct aug charges                                     
   LPAW   =        T    paw PP                                                  
   EAUG   =  644.873                                                            
   DEXC   =    0.000                                                            
   RMAX   =    1.529    core radius for proj-oper                               
   RAUG   =    1.300    factor for augmentation sphere                          
   RDEP   =    1.501    radius for radial grids                                 
   RDEPT  =    1.300    core radius for aug-charge                              
                                                                                
   Atomic configuration                                                         
    4 entries                                                                   
     n  l   j            E        occ.                                          
     1  0  0.50      -273.3789   2.0000                                         
     2  0  0.50       -13.7508   2.0000                                         
     2  1  0.50        -5.2854   2.0000                                         
     3  2  1.50        -5.4423   0.0000                                         
   Description                                                                  
     l       E           TYP  RCUT    TYP  RCUT                                 
     0    -13.7508458     23  1.200                                             
     0     -8.2022199     23  1.200                                             
     1     -5.2854383     23  1.500                                             
     1     34.0145650     23  1.500                                             
     2     -5.4423304      7  1.500                                             
  local pseudopotential read in
  partial core-charges read in
  partial kinetic energy density read in
  atomic valenz-charges read in
  non local Contribution for L=           0  read in
    real space projection operators read in
  non local Contribution for L=           0  read in
    real space projection operators read in
  non local Contribution for L=           1  read in
    real space projection operators read in
  non local Contribution for L=           1  read in
    real space projection operators read in
    PAW grid and wavefunctions read in

   number of l-projection  operators is LMAX  =           4
   number of lm-projection operators is LMMAX =           8

  PAW_PBE H 15Jun2001                   :
 energy of atom  1       EATOM=  -12.4884
 kinetic energy error for atom=    0.0098 (will be added to EATOM!!)
  PAW_PBE C 08Apr2002                   :
 energy of atom  2       EATOM= -147.1560
 kinetic energy error for atom=    0.0288 (will be added to EATOM!!)


 POSCAR: POSCAR file written by OVITO            
  positions in cartesian coordinates
  No initial velocities read in
 exchange correlation table for  LEXCH =        8
   RHO(1)=    0.500       N(1)  =     2000
   RHO(2)=  100.500       N(2)  =     4000



--------------------------------------------------------------------------------------------------------


 ion  position               nearest neighbor table
   1  0.542  0.399  0.350-   5 1.23
   2  0.381  0.482  0.438-   5 1.23
   3  0.558  0.578  0.442-   5 1.23
   4  0.531  0.410  0.551-   5 1.23
   5  0.503  0.467  0.445-   2 1.23   3 1.23   4 1.23   1 1.23

  LATTYP: Found a simple cubic cell.
 ALAT       =    10.0000000000
  
  Lattice vectors:
  
 A1 = (  10.0000000000,   0.0000000000,   0.0000000000)
 A2 = (   0.0000000000,  10.0000000000,   0.0000000000)
 A3 = (   0.0000000000,   0.0000000000,  10.0000000000)


Analysis of symmetry for initial positions (statically):
=====================================================================
 Subroutine PRICEL returns:
 Original cell was already a primitive cell.
 

 Routine SETGRP: Setting up the symmetry group for a 
 simple cubic supercell.


 Subroutine GETGRP returns: Found  1 space group operations
 (whereof  1 operations were pure point group operations)
 out of a pool of 48 trial point group operations.


The static configuration has the point symmetry C_1 .


Analysis of symmetry for dynamics (positions and initial velocities):
=====================================================================
 Subroutine PRICEL returns:
 Original cell was already a primitive cell.
 

 Routine SETGRP: Setting up the symmetry group for a 
 simple cubic supercell.


 Subroutine GETGRP returns: Found  1 space group operations
 (whereof  1 operations were pure point group operations)
 out of a pool of 48 trial point group operations.


The dynamic configuration has the point symmetry C_1 .


 Subroutine INISYM returns: Found  1 space group operations
 (whereof  1 operations are pure point group operations),
 and found     1 'primitive' translations




Automatic generation of k-mesh.
 generate k-points for:    2    2    2
Space group operators:
 irot       det(A)        alpha          n_x          n_y          n_z        tau_x        tau_y        tau_z
    1     1.000000     0.000000     1.000000     0.000000     0.000000     0.000000     0.000000     0.000000
 
 Subroutine IBZKPT returns following result:
 ===========================================
 
 Found      4 irreducible k-points:
 
 Following reciprocal coordinates:
            Coordinates               Weight
  0.250000  0.250000  0.250000      2.000000
 -0.250000  0.250000  0.250000      2.000000
  0.250000 -0.250000  0.250000      2.000000
 -0.250000 -0.250000  0.250000      2.000000
 
 Following cartesian coordinates:
            Coordinates               Weight
  0.025000  0.025000  0.025000      2.000000
 -0.025000  0.025000  0.025000      2.000000
  0.025000 -0.025000  0.025000      2.000000
 -0.025000 -0.025000  0.025000      2.000000
 


--------------------------------------------------------------------------------------------------------




 Dimension of arrays:
   k-points           NKPTS =      4   k-points in BZ     NKDIM =      4   number of bands    NBANDS=      8
   number of dos      NEDOS =    301   number of ions     NIONS =      5
   non local maximal  LDIM  =      4   non local SUM 2l+1 LMDIM =      8
   total plane-waves  NPLWV = 343000
   max r-space proj   IRMAX =      1   max aug-charges    IRDMAX=   4247
   dimension x,y,z NGX =    70 NGY =   70 NGZ =   70
   dimension x,y,z NGXF=   140 NGYF=  140 NGZF=  140
   support grid    NGXF=   140 NGYF=  140 NGZF=  140
   ions per type =               4   1
   NGX,Y,Z   is equivalent  to a cutoff of  11.64, 11.64, 11.64 a.u.
   NGXF,Y,Z  is equivalent  to a cutoff of  23.27, 23.27, 23.27 a.u.

 SYSTEM =  unknown system                          
 POSCAR =  POSCAR file written by OVITO            

 Startparameter for this run:
   NWRITE =      2    write-flag & timer
   PREC   = a         normal or accurate (medium, high low for compatibility)
   ISTART =      0    job   : 0-new  1-cont  2-samecut
   ICHARG =      2    charge: 1-file 2-atom 10-const
   ISPIN  =      1    spin polarized calculation?
   LNONCOLLINEAR =      F non collinear calculations
   LSORBIT =      F    spin-orbit coupling
   INIWAV =      1    electr: 0-lowe 1-rand  2-diag
   LASPH  =      F    aspherical Exc in radial PAW
   METAGGA=      F    non-selfconsistent MetaGGA calc.

 Electronic Relaxation 1
   ENCUT  =  400.0 eV  29.40 Ry    5.42 a.u.  16.31 16.31 16.31*2*pi/ulx,y,z
   ENINI  =  400.0     initial cutoff
   ENAUG  =  644.9 eV  augmentation charge cutoff
   NELM   =     60;   NELMIN=  4; NELMDL=  0     # of ELM steps 
   EDIFF  = 0.1E-05   stopping-criterion for ELM
   LREAL  =      F    real-space projection
   NLSPLINE    = F    spline interpolate recip. space projectors
   LCOMPAT=      F    compatible to vasp.4.4
   GGA_COMPAT  = T    GGA compatible to vasp.4.4-vasp.4.6
   LMAXPAW     = -100 max onsite density
   LMAXMIX     =    2 max onsite mixed and CHGCAR
   VOSKOWN=      0    Vosko Wilk Nusair interpolation
   ROPT   =    0.00000   0.00000
 Ionic relaxation
   EDIFFG = 0.1E-04   stopping-criterion for IOM
   NSW    =   1000    number of steps for IOM
   NBLOCK =      1;   KBLOCK =   1000    inner block; outer block 
   IBRION =      2    ionic relax: 0-MD 1-quasi-New 2-CG
   NFREE  =      1    steps in history (QN), initial steepest desc. (CG)
   ISIF   =      2    stress and relaxation
   IWAVPR =     11    prediction:  0-non 1-charg 2-wave 3-comb
   ISYM   =      2    0-nonsym 1-usesym 2-fastsym
   LCORR  =      T    Harris-Foulkes like correction to forces

   POTIM  = 0.5000    time-step for ionic-motion
   TEIN   =    0.0    initial temperature
   TEBEG  =    0.0;   TEEND  =   0.0 temperature during run
   SMASS  =  -3.00    Nose mass-parameter (am)
   estimated Nose-frequenzy (Omega)   =  0.10E-29 period in steps =****** mass=  -0.229E-26a.u.
   SCALEE = 1.0000    scale energy and forces
   NPACO  =    256;   APACO  = 16.0  distance and # of slots for P.C.
   PSTRESS=    0.0 pullay stress

  Mass of Ions in am
   POMASS =   1.00 12.01
  Ionic Valenz
   ZVAL   =   1.00  4.00
  Atomic Wigner-Seitz radii
   RWIGS  =  -1.00 -1.00
  virtual crystal weights 
   VCA    =   1.00  1.00
   NELECT =       8.0000    total number of electrons
   NUPDOWN=      -1.0000    fix difference up-down

 DOS related values:
   EMIN   =  10.00;   EMAX   =-10.00  energy-range for DOS
   EFERMI =   0.00
   ISMEAR =     0;   SIGMA  =   0.05  broadening in eV -4-tet -1-fermi 0-gaus

 Electronic relaxation 2 (details)
   IALGO  =     68    algorithm
   LDIAG  =      T    sub-space diagonalisation (order eigenvalues)
   LSUBROT=      F    optimize rotation matrix (better conditioning)
   TURBO    =      0    0=normal 1=particle mesh
   IRESTART =      0    0=no restart 2=restart with 2 vectors
   NREBOOT  =      0    no. of reboots
   NMIN     =      0    reboot dimension
   EREF     =   0.00    reference energy to select bands
   IMIX   =      4    mixing-type and parameters
     AMIX     =   0.40;   BMIX     =  1.00
     AMIX_MAG =   1.60;   BMIX_MAG =  1.00
     AMIN     =   0.10
     WC   =   100.;   INIMIX=   1;  MIXPRE=   1;  MAXMIX= -45

 Intra band minimization:
   WEIMIN = 0.0010     energy-eigenvalue tresh-hold
   EBREAK =  0.31E-07  absolut break condition
   DEPER  =   0.30     relativ break condition  

   TIME   =   0.40     timestep for ELM

  volume/ion in A,a.u.               =     200.00      1349.67
  Fermi-wavevector in a.u.,A,eV,Ry     =   0.327420  0.618734  1.458594  0.107204
  Thomas-Fermi vector in A             =   1.220131

 Write flags
   LWAVE        =      F    write WAVECAR
   LDOWNSAMPLE  =      F    k-point downsampling of WAVECAR
   LCHARG       =      F    write CHGCAR
   LVTOT        =      F    write LOCPOT, total local potential
   LVHAR        =      F    write LOCPOT, Hartree potential only
   LELF         =      F    write electronic localiz. function (ELF)
   LORBIT       =      0    0 simple, 1 ext, 2 COOP (PROOUT), +10 PAW based schemes


 Dipole corrections
   LMONO  =      F    monopole corrections only (constant potential shift)
   LDIPOL =      F    correct potential (dipole corrections)
   IDIPOL =      0    1-x, 2-y, 3-z, 4-all directions 
   EPSILON=  1.0000000 bulk dielectric constant

 Exchange correlation treatment:
   GGA     =    --    GGA type
   LEXCH   =     8    internal setting for exchange type
   VOSKOWN=      0    Vosko Wilk Nusair interpolation
   LHFCALC =     F    Hartree Fock is set to
   LHFONE  =     F    Hartree Fock one center treatment
   AEXX    =    0.0000 exact exchange contribution

 Linear response parameters
   LEPSILON=     F    determine dielectric tensor
   LRPA    =     F    only Hartree local field effects (RPA)
   LNABLA  =     F    use nabla operator in PAW spheres
   LVEL    =     F    velocity operator in full k-point grid
   LINTERFAST=   F  fast interpolation
   KINTER  =     0    interpolate to denser k-point grid
   CSHIFT  =0.1000    complex shift for real part using Kramers Kronig
   OMEGAMAX=  -1.0    maximum frequency
   DEG_THRESHOLD= 0.2000000E-02 threshold for treating states as degnerate
   RTIME   =   -0.100 relaxation time in fs
  (WPLASMAI=    0.000 imaginary part of plasma frequency in eV, 0.658/RTIME)
   DFIELD  = 0.0000000 0.0000000 0.0000000 field for delta impulse in time

 Orbital magnetization related:
   ORBITALMAG=     F  switch on orbital magnetization
   LCHIMAG   =     F  perturbation theory with respect to B field
   DQ        =  0.001000  dq finite difference perturbation B field
   LLRAUG    =     F  two centre corrections for induced B field



--------------------------------------------------------------------------------------------------------


 conjugate gradient relaxation of ions
 charge density and potential will be updated during run
 non-spin polarized calculation
 RMM-DIIS sequential band-by-band and
  variant of blocked Davidson during initial phase
 perform sub-space diagonalisation
    before iterative eigenvector-optimisation
 modified Broyden-mixing scheme, WC =      100.0
 initial mixing is a Kerker type mixing with AMIX =  0.4000 and BMIX =      1.0000
 Hartree-type preconditioning will be used
 using additional bands            4
 reciprocal scheme for non local part
 use partial core corrections
 calculate Harris-corrections to forces   (improved forces if not selfconsistent)
 use gradient corrections 
 use of overlap-Matrix (Vanderbilt PP)
 Gauss-broadening in eV      SIGMA  =   0.05


--------------------------------------------------------------------------------------------------------


  energy-cutoff  :      400.00
  volume of cell :     1000.00
      direct lattice vectors                 reciprocal lattice vectors
    10.000000000  0.000000000  0.000000000     0.100000000  0.000000000  0.000000000
     0.000000000 10.000000000  0.000000000     0.000000000  0.100000000  0.000000000
     0.000000000  0.000000000 10.000000000     0.000000000  0.000000000  0.100000000

  length of vectors
    10.000000000 10.000000000 10.000000000     0.100000000  0.100000000  0.100000000



 k-points in units of 2pi/SCALE and weight: read from INCAR                         
   0.02500000  0.02500000  0.02500000       0.250
  -0.02500000  0.02500000  0.02500000       0.250
   0.02500000 -0.02500000  0.02500000       0.250
  -0.02500000 -0.02500000  0.02500000       0.250

 k-points in reciprocal lattice and weights: read from INCAR                         
   0.25000000  0.25000000  0.25000000       0.250
  -0.25000000  0.25000000  0.25000000       0.250
   0.25000000 -0.25000000  0.25000000       0.250
  -0.25000000 -0.25000000  0.25000000       0.250

 position of ions in fractional coordinates (direct lattice) 
   0.54249916  0.39934196  0.35003543
   0.38102410  0.48194428  0.43762832
   0.55816980  0.57766447  0.44239459
   0.53128891  0.41008816  0.55087357
   0.50324035  0.46726270  0.44523368

 position of ions in cartesian coordinates  (Angst):
   5.42499160  3.99341960  3.50035430
   3.81024100  4.81944280  4.37628320
   5.58169800  5.77664470  4.42394590
   5.31288910  4.10088160  5.50873570
   5.03240350  4.67262700  4.45233680



--------------------------------------------------------------------------------------------------------


 k-point  1 :   0.2500 0.2500 0.2500  plane waves:   18127
 k-point  2 :  -0.2500 0.2500 0.2500  plane waves:   18127
 k-point  3 :   0.2500-0.2500 0.2500  plane waves:   18127
 k-point  4 :  -0.2500-0.2500 0.2500  plane waves:   18127

 maximum and minimum number of plane-waves per node :      6054     6032

 maximum number of plane-waves:     18127
 maximum index in each direction: 
   IXMAX=   16   IYMAX=   16   IZMAX=   16
   IXMIN=  -16   IYMIN=  -16   IZMIN=  -16


 parallel 3D FFT for wavefunctions:
    minimum data exchange during FFTs selected (reduces bandwidth)
 parallel 3D FFT for charge:
    minimum data exchange during FFTs selected (reduces bandwidth)


 total amount of memory used by VASP MPI-rank0    63803. kBytes
=======================================================================

   base      :      30000. kBytes
   nonl-proj :       3585. kBytes
   fftplans  :      11399. kBytes
   grid      :      18036. kBytes
   one-center:          6. kBytes
   wavefun   :        777. kBytes

     INWAV:  cpu time    0.0000: real time    0.0000
 Broyden mixing: mesh for mixing (old mesh)
   NGX = 33   NGY = 33   NGZ = 33
  (NGX  =140   NGY  =140   NGZ  =140)
  gives a total of  35937 points

 initial charge density was supplied:
 charge density of overlapping atoms calculated
 number of electron       8.0000000 magnetization 
 keeping initial charge density in first step


--------------------------------------------------------------------------------------------------------


 Maximum index for augmentation-charges          292 (set IRDMAX)


--------------------------------------------------------------------------------------------------------


 First call to EWALD:  gamma=   0.177
 Maximum number of real-space cells 3x 3x 3
 Maximum number of reciprocal cells 3x 3x 3

    FEWALD:  cpu time    0.0019: real time    0.0019


--------------------------------------- Iteration      1(   1)  ---------------------------------------


    POTLOK:  cpu time    0.6866: real time    0.6906
    SETDIJ:  cpu time    0.0013: real time    0.0013
     EDDAV:  cpu time    0.2565: real time    0.2571
       DOS:  cpu time    0.0013: real time    0.0013
    --------------------------------------------
      LOOP:  cpu time    0.9457: real time    0.9503

 eigenvalue-minimisations  :    96
 total energy-change (2. order) : 0.7657282E+01  (-0.1962124E+03)
 number of electron       8.0000000 magnetization 
 augmentation part        8.0000000 magnetization 

 Free energy of the ion-electron system (eV)
  ---------------------------------------------------
  alpha Z        PSCENC =         0.24225079
  Ewald energy   TEWEN  =       100.41703296
  -Hartree energ DENC   =      -228.34351585
  -exchange      EXHF   =         0.00000000
  -V(xc)+E(xc)   XCENC  =        21.29744877
  PAW double counting   =       117.05815612     -117.66307307
  entropy T*S    EENTRO =        -0.00000000
  eigenvalues    EBANDS =       -82.39277259
  atomic energy  EATOM  =       197.04175453
  Solvation  Ediel_sol  =         0.00000000
  ---------------------------------------------------
  free energy    TOTEN  =         7.65728166 eV

  energy without entropy =        7.65728166  energy(sigma->0) =        7.65728166


--------------------------------------------------------------------------------------------------------




--------------------------------------- Iteration      1(   2)  ---------------------------------------


     EDDAV:  cpu time    0.1929: real time    0.1942
       DOS:  cpu time    0.0008: real time    0.0008
    --------------------------------------------
      LOOP:  cpu time    0.1937: real time    0.1950

 eigenvalue-minimisations  :    64
 total energy-change (2. order) :-0.2943356E+02  (-0.2943356E+02)
 number of electron       8.0000000 magnetization 
 augmentation part        8.0000000 magnetization 

 Free energy of the ion-electron system (eV)
  ---------------------------------------------------
  alpha Z        PSCENC =         0.24225079
  Ewald energy   TEWEN  =       100.41703296
  -Hartree energ DENC   =      -228.34351585
  -exchange      EXHF   =         0.00000000
  -V(xc)+E(xc)   XCENC  =        21.29744877
  PAW double counting   =       117.05815612     -117.66307307
  entropy T*S    EENTRO =        -0.00000000
  eigenvalues    EBANDS =      -111.82632825
  atomic energy  EATOM  =       197.04175453
  Solvation  Ediel_sol  =         0.00000000
  ---------------------------------------------------
  free energy    TOTEN  =       -21.77627399 eV

  energy without entropy =      -21.77627399  energy(sigma->0) =      -21.77627399


--------------------------------------------------------------------------------------------------------




--------------------------------------- Iteration      1(   3)  ---------------------------------------


     EDDAV:  cpu time    0.1909: real time    0.1913
       DOS:  cpu time    0.0004: real time    0.0006
    --------------------------------------------
      LOOP:  cpu time    0.1913: real time    0.1919

 eigenvalue-minimisations  :    64
 total energy-change (2. order) :-0.3174716E+01  (-0.3174716E+01)
 number of electron       8.0000000 magnetization 
 augmentation part        8.0000000 magnetization 

 Free energy of the ion-electron system (eV)
  ---------------------------------------------------
  alpha Z        PSCENC =         0.24225079
  Ewald energy   TEWEN  =       100.41703296
  -Hartree energ DENC   =      -228.34351585
  -exchange      EXHF   =         0.00000000
  -V(xc)+E(xc)   XCENC  =        21.29744877
  PAW double counting   =       117.05815612     -117.66307307
  entropy T*S    EENTRO =        -0.00000000
  eigenvalues    EBANDS =      -115.00104387
  atomic energy  EATOM  =       197.04175453
  Solvation  Ediel_sol  =         0.00000000
  ---------------------------------------------------
  free energy    TOTEN  =       -24.95098962 eV

  energy without entropy =      -24.95098962  energy(sigma->0) =      -24.95098962


--------------------------------------------------------------------------------------------------------




--------------------------------------- Iteration      1(   4)  ---------------------------------------


     EDDAV:  cpu time    0.3187: real time    0.3196
       DOS:  cpu time    0.0011: real time    0.0011
    --------------------------------------------
      LOOP:  cpu time    0.3197: real time    0.3207

 eigenvalue-minimisations  :   128
 total energy-change (2. order) :-0.1729075E+00  (-0.1729075E+00)
 number of electron       8.0000000 magnetization 
 augmentation part        8.0000000 magnetization 

 Free energy of the ion-electron system (eV)
  ---------------------------------------------------
  alpha Z        PSCENC =         0.24225079
  Ewald energy   TEWEN  =       100.41703296
  -Hartree energ DENC   =      -228.34351585
  -exchange      EXHF   =         0.00000000
  -V(xc)+E(xc)   XCENC  =        21.29744877
  PAW double counting   =       117.05815612     -117.66307307
  entropy T*S    EENTRO =        -0.00000000
  eigenvalues    EBANDS =      -115.17395133
  atomic energy  EATOM  =       197.04175453
  Solvation  Ediel_sol  =         0.00000000
  ---------------------------------------------------
  free energy    TOTEN  =       -25.12389707 eV

  energy without entropy =      -25.12389707  energy(sigma->0) =      -25.12389707


--------------------------------------------------------------------------------------------------------




--------------------------------------- Iteration      1(   5)  ---------------------------------------


     EDDAV:  cpu time    0.2684: real time    0.2691
       DOS:  cpu time    0.0019: real time    0.0019
    CHARGE:  cpu time    0.0762: real time    0.0764
    MIXING:  cpu time    0.0309: real time    0.0310
    --------------------------------------------
      LOOP:  cpu time    0.3774: real time    0.3784

 eigenvalue-minimisations  :    96
 total energy-change (2. order) :-0.7684392E-04  (-0.7684395E-04)
 number of electron       8.0000004 magnetization 
 augmentation part        0.1814707 magnetization 

 Broyden mixing:
  rms(total) = 0.65708E+00    rms(broyden)= 0.65697E+00
  rms(prec ) = 0.96499E+00
  weight for this iteration     100.00

 Free energy of the ion-electron system (eV)
  ---------------------------------------------------
  alpha Z        PSCENC =         0.24225079
  Ewald energy   TEWEN  =       100.41703296
  -Hartree energ DENC   =      -228.34351585
  -exchange      EXHF   =         0.00000000
  -V(xc)+E(xc)   XCENC  =        21.29744877
  PAW double counting   =       117.05815612     -117.66307307
  entropy T*S    EENTRO =        -0.00000000
  eigenvalues    EBANDS =      -115.17402817
  atomic energy  EATOM  =       197.04175453
  Solvation  Ediel_sol  =         0.00000000
  ---------------------------------------------------
  free energy    TOTEN  =       -25.12397391 eV

  energy without entropy =      -25.12397391  energy(sigma->0) =      -25.12397391


--------------------------------------------------------------------------------------------------------




--------------------------------------- Iteration      1(   6)  ---------------------------------------


    POTLOK:  cpu time    0.6388: real time    0.6407
    SETDIJ:  cpu time    0.0511: real time    0.0513
    EDDIAG:  cpu time    0.0556: real time    0.0560
  RMM-DIIS:  cpu time    0.2171: real time    0.2178
    ORTHCH:  cpu time    0.0027: real time    0.0027
       DOS:  cpu time    0.0003: real time    0.0004
    CHARGE:  cpu time    0.0870: real time    0.0872
    MIXING:  cpu time    0.0239: real time    0.0240
    --------------------------------------------
      LOOP:  cpu time    1.0766: real time    1.0800

 eigenvalue-minimisations  :    64
 total energy-change (2. order) : 0.1651709E+01  (-0.2687862E+00)
 number of electron       8.0000004 magnetization 
 augmentation part        0.1601151 magnetization 

 Broyden mixing:
  rms(total) = 0.34293E+00    rms(broyden)= 0.34286E+00
  rms(prec ) = 0.44493E+00
  weight for this iteration     100.00

 eigenvalues of (default mixing * dielectric matrix)
  average eigenvalue GAMMA=   1.1841
  1.1841

 Free energy of the ion-electron system (eV)
  ---------------------------------------------------
  alpha Z        PSCENC =         0.24225079
  Ewald energy   TEWEN  =       100.41703296
  -Hartree energ DENC   =      -243.28320802
  -exchange      EXHF   =         0.00000000
  -V(xc)+E(xc)   XCENC  =        22.20073858
  PAW double counting   =       201.08466169     -201.80147241
  entropy T*S    EENTRO =        -0.00000000
  eigenvalues    EBANDS =       -99.37402325
  atomic energy  EATOM  =       197.04175453
  Solvation  Ediel_sol  =         0.00000000
  ---------------------------------------------------
  free energy    TOTEN  =       -23.47226512 eV

  energy without entropy =      -23.47226512  energy(sigma->0) =      -23.47226512


--------------------------------------------------------------------------------------------------------




--------------------------------------- Iteration      1(   7)  ---------------------------------------


    POTLOK:  cpu time    0.7037: real time    0.7066
    SETDIJ:  cpu time    0.0056: real time    0.0056
    EDDIAG:  cpu time    0.0562: real time    0.0563
  RMM-DIIS:  cpu time    0.2227: real time    0.2233
    ORTHCH:  cpu time    0.0027: real time    0.0027
       DOS:  cpu time    0.0005: real time    0.0005
    CHARGE:  cpu time    0.0780: real time    0.0783
    MIXING:  cpu time    0.0339: real time    0.0340
    --------------------------------------------
      LOOP:  cpu time    1.1033: real time    1.1073

 eigenvalue-minimisations  :    64
 total energy-change (2. order) : 0.2796146E+00  (-0.3261476E-01)
 number of electron       8.0000004 magnetization 
 augmentation part        0.1545017 magnetization 

 Broyden mixing:
  rms(total) = 0.19278E+00    rms(broyden)= 0.19275E+00
  rms(prec ) = 0.24274E+00
  weight for this iteration     100.00

 eigenvalues of (default mixing * dielectric matrix)
  average eigenvalue GAMMA=   1.7937
  1.2861  2.3014

 Free energy of the ion-electron system (eV)
  ---------------------------------------------------
  alpha Z        PSCENC =         0.24225079
  Ewald energy   TEWEN  =       100.41703296
  -Hartree energ DENC   =      -250.46068048
  -exchange      EXHF   =         0.00000000
  -V(xc)+E(xc)   XCENC  =        22.76411195
  PAW double counting   =       268.25560213     -268.97840186
  entropy T*S    EENTRO =        -0.00000000
  eigenvalues    EBANDS =       -92.47432051
  atomic energy  EATOM  =       197.04175453
  Solvation  Ediel_sol  =         0.00000000
  ---------------------------------------------------
  free energy    TOTEN  =       -23.19265048 eV

  energy without entropy =      -23.19265048  energy(sigma->0) =      -23.19265048


--------------------------------------------------------------------------------------------------------




--------------------------------------- Iteration      1(   8)  ---------------------------------------


    POTLOK:  cpu time    0.6835: real time    0.6852
    SETDIJ:  cpu time    0.0026: real time    0.0026
    EDDIAG:  cpu time    0.0537: real time    0.0539
  RMM-DIIS:  cpu time    0.2180: real time    0.2185
    ORTHCH:  cpu time    0.0018: real time    0.0018
       DOS:  cpu time    0.0003: real time    0.0003
    CHARGE:  cpu time    0.0852: real time    0.0854
    MIXING:  cpu time    0.0230: real time    0.0231
    --------------------------------------------
      LOOP:  cpu time    1.0681: real time    1.0707

 eigenvalue-minimisations  :    64
 total energy-change (2. order) : 0.1240286E+00  (-0.1717971E-01)
 number of electron       8.0000004 magnetization 
 augmentation part        0.1534385 magnetization 

 Broyden mixing:
  rms(total) = 0.27561E-01    rms(broyden)= 0.27547E-01
  rms(prec ) = 0.53125E-01
  weight for this iteration     100.00

 eigenvalues of (default mixing * dielectric matrix)
  average eigenvalue GAMMA=   1.4362
  2.2663  1.2417  0.8007

 Free energy of the ion-electron system (eV)
  ---------------------------------------------------
  alpha Z        PSCENC =         0.24225079
  Ewald energy   TEWEN  =       100.41703296
  -Hartree energ DENC   =      -255.69024355
  -exchange      EXHF   =         0.00000000
  -V(xc)+E(xc)   XCENC  =        23.27750412
  PAW double counting   =       334.58662591     -335.28284366
  entropy T*S    EENTRO =        -0.00000000
  eigenvalues    EBANDS =       -87.66070301
  atomic energy  EATOM  =       197.04175453
  Solvation  Ediel_sol  =         0.00000000
  ---------------------------------------------------
  free energy    TOTEN  =       -23.06862190 eV

  energy without entropy =      -23.06862190  energy(sigma->0) =      -23.06862190


--------------------------------------------------------------------------------------------------------




--------------------------------------- Iteration      1(   9)  ---------------------------------------


    POTLOK:  cpu time    0.6591: real time    0.6607
    SETDIJ:  cpu time    0.0105: real time    0.0105
    EDDIAG:  cpu time    0.0566: real time    0.0568
  RMM-DIIS:  cpu time    0.2204: real time    0.2210
    ORTHCH:  cpu time    0.0015: real time    0.0015
       DOS:  cpu time    0.0004: real time    0.0004
    CHARGE:  cpu time    0.0879: real time    0.0881
    MIXING:  cpu time    0.0251: real time    0.0252
    --------------------------------------------
      LOOP:  cpu time    1.0616: real time    1.0641

 eigenvalue-minimisations  :    64
 total energy-change (2. order) : 0.4797719E-02  (-0.1212040E-02)
 number of electron       8.0000004 magnetization 
 augmentation part        0.1527566 magnetization 

 Broyden mixing:
  rms(total) = 0.16281E-01    rms(broyden)= 0.16279E-01
  rms(prec ) = 0.34872E-01
  weight for this iteration     100.00

 eigenvalues of (default mixing * dielectric matrix)
  average eigenvalue GAMMA=   1.9713
  2.8433  2.8433  1.0698  1.1289

 Free energy of the ion-electron system (eV)
  ---------------------------------------------------
  alpha Z        PSCENC =         0.24225079
  Ewald energy   TEWEN  =       100.41703296
  -Hartree energ DENC   =      -256.87099788
  -exchange      EXHF   =         0.00000000
  -V(xc)+E(xc)   XCENC  =        23.33057451
  PAW double counting   =       332.32926652     -333.03003182
  entropy T*S    EENTRO =        -0.00000000
  eigenvalues    EBANDS =       -86.52367380
  atomic energy  EATOM  =       197.04175453
  Solvation  Ediel_sol  =         0.00000000
  ---------------------------------------------------
  free energy    TOTEN  =       -23.06382418 eV

  energy without entropy =      -23.06382418  energy(sigma->0) =      -23.06382418


--------------------------------------------------------------------------------------------------------




--------------------------------------- Iteration      1(  10)  ---------------------------------------


    POTLOK:  cpu time    0.6561: real time    0.6590
    SETDIJ:  cpu time    0.0063: real time    0.0063
    EDDIAG:  cpu time    0.0558: real time    0.0560
  RMM-DIIS:  cpu time    0.2318: real time    0.2323
    ORTHCH:  cpu time    0.0014: real time    0.0014
       DOS:  cpu time    0.0003: real time    0.0003
    CHARGE:  cpu time    0.0880: real time    0.0882
    MIXING:  cpu time    0.0273: real time    0.0274
    --------------------------------------------
      LOOP:  cpu time    1.0670: real time    1.0709

 eigenvalue-minimisations  :    64
 total energy-change (2. order) : 0.4088634E-02  (-0.1568746E-02)
 number of electron       8.0000004 magnetization 
 augmentation part        0.1519930 magnetization 

 Broyden mixing:
  rms(total) = 0.22798E-01    rms(broyden)= 0.22797E-01
  rms(prec ) = 0.31197E-01
  weight for this iteration     100.00

 eigenvalues of (default mixing * dielectric matrix)
  average eigenvalue GAMMA=   1.8220
  3.2164  2.2801  1.0188  1.2975  1.2975

 Free energy of the ion-electron system (eV)
  ---------------------------------------------------
  alpha Z        PSCENC =         0.24225079
  Ewald energy   TEWEN  =       100.41703296
  -Hartree energ DENC   =      -258.47689252
  -exchange      EXHF   =         0.00000000
  -V(xc)+E(xc)   XCENC  =        23.38472092
  PAW double counting   =       321.33205007     -322.03401086
  entropy T*S    EENTRO =        -0.00000000
  eigenvalues    EBANDS =       -84.96664144
  atomic energy  EATOM  =       197.04175453
  Solvation  Ediel_sol  =         0.00000000
  ---------------------------------------------------
  free energy    TOTEN  =       -23.05973555 eV

  energy without entropy =      -23.05973555  energy(sigma->0) =      -23.05973555


--------------------------------------------------------------------------------------------------------




--------------------------------------- Iteration      1(  11)  ---------------------------------------


    POTLOK:  cpu time    0.6659: real time    0.6677
    SETDIJ:  cpu time    0.0054: real time    0.0054
    EDDIAG:  cpu time    0.0564: real time    0.0566
  RMM-DIIS:  cpu time    0.2269: real time    0.2277
    ORTHCH:  cpu time    0.0030: real time    0.0030
       DOS:  cpu time    0.0012: real time    0.0012
    CHARGE:  cpu time    0.0858: real time    0.0860
    MIXING:  cpu time    0.0286: real time    0.0286
    --------------------------------------------
      LOOP:  cpu time    1.0731: real time    1.0763

 eigenvalue-minimisations  :    64
 total energy-change (2. order) :-0.1381578E-02  (-0.1268471E-02)
 number of electron       8.0000004 magnetization 
 augmentation part        0.1525093 magnetization 

 Broyden mixing:
  rms(total) = 0.15626E-01    rms(broyden)= 0.15623E-01
  rms(prec ) = 0.21142E-01
  weight for this iteration     100.00

 eigenvalues of (default mixing * dielectric matrix)
  average eigenvalue GAMMA=   2.3495
  5.2782  3.1818  2.4235  1.0948  1.0948  1.0238

 Free energy of the ion-electron system (eV)
  ---------------------------------------------------
  alpha Z        PSCENC =         0.24225079
  Ewald energy   TEWEN  =       100.41703296
  -Hartree energ DENC   =      -258.53260067
  -exchange      EXHF   =         0.00000000
  -V(xc)+E(xc)   XCENC  =        23.40754585
  PAW double counting   =       327.01710163     -327.71116972
  entropy T*S    EENTRO =        -0.00000000
  eigenvalues    EBANDS =       -84.94303250
  atomic energy  EATOM  =       197.04175453
  Solvation  Ediel_sol  =         0.00000000
  ---------------------------------------------------
  free energy    TOTEN  =       -23.06111713 eV

  energy without entropy =      -23.06111713  energy(sigma->0) =      -23.06111713


--------------------------------------------------------------------------------------------------------




--------------------------------------- Iteration      1(  12)  ---------------------------------------


    POTLOK:  cpu time    0.6477: real time    0.6542
    SETDIJ:  cpu time    0.0099: real time    0.0099
    EDDIAG:  cpu time    0.0565: real time    0.0566
  RMM-DIIS:  cpu time    0.2329: real time    0.2337
    ORTHCH:  cpu time    0.0034: real time    0.0034
       DOS:  cpu time    0.0007: real time    0.0007
    CHARGE:  cpu time    0.0823: real time    0.0826
    MIXING:  cpu time    0.0321: real time    0.0322
    --------------------------------------------
      LOOP:  cpu time    1.0655: real time    1.0732

 eigenvalue-minimisations  :    64
 total energy-change (2. order) :-0.6694727E-02  (-0.1155363E-03)
 number of electron       8.0000004 magnetization 
 augmentation part        0.1525122 magnetization 

 Broyden mixing:
  rms(total) = 0.94817E-02    rms(broyden)= 0.94815E-02
  rms(prec ) = 0.12957E-01
  weight for this iteration     100.00

 eigenvalues of (default mixing * dielectric matrix)
  average eigenvalue GAMMA=   2.0443
  5.1705  3.0955  2.4118  1.0220  1.0889  1.0889  0.4325

 Free energy of the ion-electron system (eV)
  ---------------------------------------------------
  alpha Z        PSCENC =         0.24225079
  Ewald energy   TEWEN  =       100.41703296
  -Hartree energ DENC   =      -258.71318794
  -exchange      EXHF   =         0.00000000
  -V(xc)+E(xc)   XCENC  =        23.39526141
  PAW double counting   =       324.56752698     -325.26375880
  entropy T*S    EENTRO =        -0.00000000
  eigenvalues    EBANDS =       -84.75469179
  atomic energy  EATOM  =       197.04175453
  Solvation  Ediel_sol  =         0.00000000
  ---------------------------------------------------
  free energy    TOTEN  =       -23.06781186 eV

  energy without entropy =      -23.06781186  energy(sigma->0) =      -23.06781186


--------------------------------------------------------------------------------------------------------




--------------------------------------- Iteration      1(  13)  ---------------------------------------


    POTLOK:  cpu time    0.6217: real time    0.6235
    SETDIJ:  cpu time    0.0207: real time    0.0208
    EDDIAG:  cpu time    0.0575: real time    0.0576
  RMM-DIIS:  cpu time    0.2219: real time    0.2227
    ORTHCH:  cpu time    0.0025: real time    0.0025
       DOS:  cpu time    0.0006: real time    0.0006
    CHARGE:  cpu time    0.0779: real time    0.0785
    MIXING:  cpu time    0.0386: real time    0.0387
    --------------------------------------------
      LOOP:  cpu time    1.0414: real time    1.0449

 eigenvalue-minimisations  :    64
 total energy-change (2. order) :-0.6972642E-03  (-0.1424701E-03)
 number of electron       8.0000004 magnetization 
 augmentation part        0.1522373 magnetization 

 Broyden mixing:
  rms(total) = 0.14522E-02    rms(broyden)= 0.14484E-02
  rms(prec ) = 0.32619E-02
  weight for this iteration     100.00

 eigenvalues of (default mixing * dielectric matrix)
  average eigenvalue GAMMA=   2.5868
  6.4149  4.9332  2.6442  2.4465  1.1673  1.1673  0.9606  0.9606

 Free energy of the ion-electron system (eV)
  ---------------------------------------------------
  alpha Z        PSCENC =         0.24225079
  Ewald energy   TEWEN  =       100.41703296
  -Hartree energ DENC   =      -258.82223731
  -exchange      EXHF   =         0.00000000
  -V(xc)+E(xc)   XCENC  =        23.39555435
  PAW double counting   =       323.97989078     -324.67806118
  entropy T*S    EENTRO =        -0.00000000
  eigenvalues    EBANDS =       -84.64469405
  atomic energy  EATOM  =       197.04175453
  Solvation  Ediel_sol  =         0.00000000
  ---------------------------------------------------
  free energy    TOTEN  =       -23.06850912 eV

  energy without entropy =      -23.06850912  energy(sigma->0) =      -23.06850912


--------------------------------------------------------------------------------------------------------




--------------------------------------- Iteration      1(  14)  ---------------------------------------


    POTLOK:  cpu time    0.6199: real time    0.6214
    SETDIJ:  cpu time    0.0119: real time    0.0119
    EDDIAG:  cpu time    0.0567: real time    0.0569
  RMM-DIIS:  cpu time    0.2185: real time    0.2252
    ORTHCH:  cpu time    0.0030: real time    0.0030
       DOS:  cpu time    0.0004: real time    0.0004
    CHARGE:  cpu time    0.0902: real time    0.0908
    MIXING:  cpu time    0.0237: real time    0.0238
    --------------------------------------------
      LOOP:  cpu time    1.0243: real time    1.0334

 eigenvalue-minimisations  :    64
 total energy-change (2. order) :-0.2528929E-02  (-0.6210864E-04)
 number of electron       8.0000004 magnetization 
 augmentation part        0.1522098 magnetization 

 Broyden mixing:
  rms(total) = 0.14549E-02    rms(broyden)= 0.14543E-02
  rms(prec ) = 0.20011E-02
  weight for this iteration     100.00

 eigenvalues of (default mixing * dielectric matrix)
  average eigenvalue GAMMA=   2.3638
  6.5880  4.6335  2.7669  2.4164  1.1340  1.1340  0.9949  0.8032  0.8032

 Free energy of the ion-electron system (eV)
  ---------------------------------------------------
  alpha Z        PSCENC =         0.24225079
  Ewald energy   TEWEN  =       100.41703296
  -Hartree energ DENC   =      -258.73746905
  -exchange      EXHF   =         0.00000000
  -V(xc)+E(xc)   XCENC  =        23.38493873
  PAW double counting   =       323.69400985     -324.39161695
  entropy T*S    EENTRO =        -0.00000000
  eigenvalues    EBANDS =       -84.72193891
  atomic energy  EATOM  =       197.04175453
  Solvation  Ediel_sol  =         0.00000000
  ---------------------------------------------------
  free energy    TOTEN  =       -23.07103805 eV

  energy without entropy =      -23.07103805  energy(sigma->0) =      -23.07103805


--------------------------------------------------------------------------------------------------------




--------------------------------------- Iteration      1(  15)  ---------------------------------------


    POTLOK:  cpu time    0.6382: real time    0.6419
    SETDIJ:  cpu time    0.0004: real time    0.0004
    EDDIAG:  cpu time    0.0562: real time    0.0563
  RMM-DIIS:  cpu time    0.2150: real time    0.2200
    ORTHCH:  cpu time    0.0027: real time    0.0028
       DOS:  cpu time    0.0004: real time    0.0004
    CHARGE:  cpu time    0.0885: real time    0.0888
    MIXING:  cpu time    0.0249: real time    0.0249
    --------------------------------------------
      LOOP:  cpu time    1.0264: real time    1.0356

 eigenvalue-minimisations  :    64
 total energy-change (2. order) :-0.9276275E-04  (-0.1323926E-04)
 number of electron       8.0000004 magnetization 
 augmentation part        0.1521301 magnetization 

 Broyden mixing:
  rms(total) = 0.29229E-02    rms(broyden)= 0.29227E-02
  rms(prec ) = 0.38791E-02
  weight for this iteration     100.00

 eigenvalues of (default mixing * dielectric matrix)
  average eigenvalue GAMMA=   2.6738
  7.9531  4.8732  3.8288  2.5204  2.3986  1.1796  1.1796  0.9747  0.9747  0.8552

 Free energy of the ion-electron system (eV)
  ---------------------------------------------------
  alpha Z        PSCENC =         0.24225079
  Ewald energy   TEWEN  =       100.41703296
  -Hartree energ DENC   =      -258.81383529
  -exchange      EXHF   =         0.00000000
  -V(xc)+E(xc)   XCENC  =        23.38912789
  PAW double counting   =       323.77319964     -324.47127421
  entropy T*S    EENTRO =        -0.00000000
  eigenvalues    EBANDS =       -84.64938712
  atomic energy  EATOM  =       197.04175453
  Solvation  Ediel_sol  =         0.00000000
  ---------------------------------------------------
  free energy    TOTEN  =       -23.07113081 eV

  energy without entropy =      -23.07113081  energy(sigma->0) =      -23.07113081


--------------------------------------------------------------------------------------------------------




--------------------------------------- Iteration      1(  16)  ---------------------------------------


    POTLOK:  cpu time    0.6416: real time    0.6447
    SETDIJ:  cpu time    0.0058: real time    0.0059
    EDDIAG:  cpu time    0.0558: real time    0.0559
  RMM-DIIS:  cpu time    0.2233: real time    0.2240
    ORTHCH:  cpu time    0.0020: real time    0.0020
       DOS:  cpu time    0.0005: real time    0.0005
    CHARGE:  cpu time    0.0882: real time    0.0884
    MIXING:  cpu time    0.0248: real time    0.0249
    --------------------------------------------
      LOOP:  cpu time    1.0419: real time    1.0462

 eigenvalue-minimisations  :    64
 total energy-change (2. order) :-0.1961936E-03  (-0.1505907E-04)
 number of electron       8.0000004 magnetization 
 augmentation part        0.1521867 magnetization 

 Broyden mixing:
  rms(total) = 0.38296E-03    rms(broyden)= 0.38215E-03
  rms(prec ) = 0.48645E-03
  weight for this iteration     100.00

 eigenvalues of (default mixing * dielectric matrix)
  average eigenvalue GAMMA=   2.5397
  8.0568  4.7500  4.0112  2.5768  2.3890  1.1688  1.1688  0.9555  0.9555  0.9525
  0.9525

 Free energy of the ion-electron system (eV)
  ---------------------------------------------------
  alpha Z        PSCENC =         0.24225079
  Ewald energy   TEWEN  =       100.41703296
  -Hartree energ DENC   =      -258.79082209
  -exchange      EXHF   =         0.00000000
  -V(xc)+E(xc)   XCENC  =        23.39000533
  PAW double counting   =       324.04138228     -324.73884635
  entropy T*S    EENTRO =        -0.00000000
  eigenvalues    EBANDS =       -84.67408447
  atomic energy  EATOM  =       197.04175453
  Solvation  Ediel_sol  =         0.00000000
  ---------------------------------------------------
  free energy    TOTEN  =       -23.07132700 eV

  energy without entropy =      -23.07132700  energy(sigma->0) =      -23.07132700


--------------------------------------------------------------------------------------------------------




--------------------------------------- Iteration      1(  17)  ---------------------------------------


    POTLOK:  cpu time    0.6191: real time    0.6205
    SETDIJ:  cpu time    0.0167: real time    0.0167
    EDDIAG:  cpu time    0.0543: real time    0.0545
  RMM-DIIS:  cpu time    0.2138: real time    0.2143
    ORTHCH:  cpu time    0.0036: real time    0.0036
       DOS:  cpu time    0.0004: real time    0.0004
    CHARGE:  cpu time    0.0897: real time    0.0899
    MIXING:  cpu time    0.0247: real time    0.0248
    --------------------------------------------
      LOOP:  cpu time    1.0222: real time    1.0247

 eigenvalue-minimisations  :    60
 total energy-change (2. order) :-0.2360052E-04  (-0.9756650E-06)
 number of electron       8.0000004 magnetization 
 augmentation part        0.1521992 magnetization 

 Broyden mixing:
  rms(total) = 0.48438E-03    rms(broyden)= 0.48421E-03
  rms(prec ) = 0.62568E-03
  weight for this iteration     100.00

 eigenvalues of (default mixing * dielectric matrix)
  average eigenvalue GAMMA=   2.6181
  8.3870  5.1988  4.1001  2.9348  2.4805  2.1103  1.1900  1.1900  0.9979  0.9979
  0.9149  0.9149

 Free energy of the ion-electron system (eV)
  ---------------------------------------------------
  alpha Z        PSCENC =         0.24225079
  Ewald energy   TEWEN  =       100.41703296
  -Hartree energ DENC   =      -258.79591029
  -exchange      EXHF   =         0.00000000
  -V(xc)+E(xc)   XCENC  =        23.39006343
  PAW double counting   =       324.00294365     -324.70039538
  entropy T*S    EENTRO =        -0.00000000
  eigenvalues    EBANDS =       -84.66909030
  atomic energy  EATOM  =       197.04175453
  Solvation  Ediel_sol  =         0.00000000
  ---------------------------------------------------
  free energy    TOTEN  =       -23.07135061 eV

  energy without entropy =      -23.07135061  energy(sigma->0) =      -23.07135061


--------------------------------------------------------------------------------------------------------




--------------------------------------- Iteration      1(  18)  ---------------------------------------


    POTLOK:  cpu time    0.6630: real time    0.6647
    SETDIJ:  cpu time    0.0064: real time    0.0065
    EDDIAG:  cpu time    0.0568: real time    0.0569
  RMM-DIIS:  cpu time    0.1855: real time    0.1860
    ORTHCH:  cpu time    0.0039: real time    0.0039
       DOS:  cpu time    0.0005: real time    0.0005
    CHARGE:  cpu time    0.0925: real time    0.0927
    MIXING:  cpu time    0.0247: real time    0.0248
    --------------------------------------------
      LOOP:  cpu time    1.0334: real time    1.0360

 eigenvalue-minimisations  :    52
 total energy-change (2. order) :-0.9949277E-05  (-0.2360419E-06)
 number of electron       8.0000004 magnetization 
 augmentation part        0.1521986 magnetization 

 Broyden mixing:
  rms(total) = 0.37141E-04    rms(broyden)= 0.37129E-04
  rms(prec ) = 0.56714E-04
  weight for this iteration     100.00

 eigenvalues of (default mixing * dielectric matrix)
  average eigenvalue GAMMA=   2.5166
  8.4066  5.3269  3.9572  2.8242  2.5477  2.1779  1.2193  1.2193  0.9895  0.9895
  0.9086  1.0748  1.0748

 Free energy of the ion-electron system (eV)
  ---------------------------------------------------
  alpha Z        PSCENC =         0.24225079
  Ewald energy   TEWEN  =       100.41703296
  -Hartree energ DENC   =      -258.79726081
  -exchange      EXHF   =         0.00000000
  -V(xc)+E(xc)   XCENC  =        23.38959571
  PAW double counting   =       323.99073324     -324.68831203
  entropy T*S    EENTRO =        -0.00000000
  eigenvalues    EBANDS =       -84.66715495
  atomic energy  EATOM  =       197.04175453
  Solvation  Ediel_sol  =         0.00000000
  ---------------------------------------------------
  free energy    TOTEN  =       -23.07136055 eV

  energy without entropy =      -23.07136055  energy(sigma->0) =      -23.07136055


--------------------------------------------------------------------------------------------------------




--------------------------------------- Iteration      1(  19)  ---------------------------------------


    POTLOK:  cpu time    0.6588: real time    0.6604
    SETDIJ:  cpu time    0.0041: real time    0.0041
    EDDIAG:  cpu time    0.0568: real time    0.0570
  RMM-DIIS:  cpu time    0.1789: real time    0.1794
    ORTHCH:  cpu time    0.0046: real time    0.0046
       DOS:  cpu time    0.0005: real time    0.0005
    CHARGE:  cpu time    0.0899: real time    0.0902
    MIXING:  cpu time    0.0254: real time    0.0254
    --------------------------------------------
      LOOP:  cpu time    1.0189: real time    1.0214

 eigenvalue-minimisations  :    48
 total energy-change (2. order) :-0.1444941E-05  (-0.1937337E-07)
 number of electron       8.0000004 magnetization 
 augmentation part        0.1521998 magnetization 

 Broyden mixing:
  rms(total) = 0.53631E-04    rms(broyden)= 0.53629E-04
  rms(prec ) = 0.75898E-04
  weight for this iteration     100.00

 eigenvalues of (default mixing * dielectric matrix)
  average eigenvalue GAMMA=   2.5283
  8.4221  5.5889  3.7437  3.7437  2.4734  2.4734  1.6991  1.1727  1.1727  1.2024
  0.9750  0.9750  0.9188  0.8354

 Free energy of the ion-electron system (eV)
  ---------------------------------------------------
  alpha Z        PSCENC =         0.24225079
  Ewald energy   TEWEN  =       100.41703296
  -Hartree energ DENC   =      -258.79314294
  -exchange      EXHF   =         0.00000000
  -V(xc)+E(xc)   XCENC  =        23.38937723
  PAW double counting   =       323.98134512     -324.67890370
  entropy T*S    EENTRO =        -0.00000000
  eigenvalues    EBANDS =       -84.67107599
  atomic energy  EATOM  =       197.04175453
  Solvation  Ediel_sol  =         0.00000000
  ---------------------------------------------------
  free energy    TOTEN  =       -23.07136200 eV

  energy without entropy =      -23.07136200  energy(sigma->0) =      -23.07136200


--------------------------------------------------------------------------------------------------------




--------------------------------------- Iteration      1(  20)  ---------------------------------------


    POTLOK:  cpu time    0.6652: real time    0.6668
    SETDIJ:  cpu time    0.0034: real time    0.0034
    EDDIAG:  cpu time    0.0581: real time    0.0583
  RMM-DIIS:  cpu time    0.1700: real time    0.1704
    ORTHCH:  cpu time    0.0042: real time    0.0043
       DOS:  cpu time    0.0003: real time    0.0003
    CHARGE:  cpu time    0.0910: real time    0.0912
    MIXING:  cpu time    0.0254: real time    0.0255
    --------------------------------------------
      LOOP:  cpu time    1.0177: real time    1.0202

 eigenvalue-minimisations  :    44
 total energy-change (2. order) :-0.1114608E-05  (-0.6307711E-08)
 number of electron       8.0000004 magnetization 
 augmentation part        0.1521990 magnetization 

 Broyden mixing:
  rms(total) = 0.23988E-04    rms(broyden)= 0.23981E-04
  rms(prec ) = 0.37045E-04
  weight for this iteration     100.00

 eigenvalues of (default mixing * dielectric matrix)
  average eigenvalue GAMMA=   2.4767
  8.4670  5.5073  4.1231  3.5243  2.4959  2.4959  2.1379  1.1738  1.1738  1.1995
  1.0529  1.0529  0.9350  0.9350  0.8767

 Free energy of the ion-electron system (eV)
  ---------------------------------------------------
  alpha Z        PSCENC =         0.24225079
  Ewald energy   TEWEN  =       100.41703296
  -Hartree energ DENC   =      -258.79323806
  -exchange      EXHF   =         0.00000000
  -V(xc)+E(xc)   XCENC  =        23.38933582
  PAW double counting   =       323.97436512     -324.67194281
  entropy T*S    EENTRO =        -0.00000000
  eigenvalues    EBANDS =       -84.67092148
  atomic energy  EATOM  =       197.04175453
  Solvation  Ediel_sol  =         0.00000000
  ---------------------------------------------------
  free energy    TOTEN  =       -23.07136311 eV

  energy without entropy =      -23.07136311  energy(sigma->0) =      -23.07136311


--------------------------------------------------------------------------------------------------------




--------------------------------------- Iteration      1(  21)  ---------------------------------------


    POTLOK:  cpu time    0.6914: real time    0.6930
    SETDIJ:  cpu time    0.0036: real time    0.0036
    EDDIAG:  cpu time    0.0576: real time    0.0577
  RMM-DIIS:  cpu time    0.1767: real time    0.1771
    ORTHCH:  cpu time    0.0025: real time    0.0025
       DOS:  cpu time    0.0003: real time    0.0003
    --------------------------------------------
      LOOP:  cpu time    0.9320: real time    0.9342

 eigenvalue-minimisations  :    48
 total energy-change (2. order) :-0.2090171E-06  (-0.1060000E-07)
 number of electron       8.0000004 magnetization 
 augmentation part        0.1521990 magnetization 

 Free energy of the ion-electron system (eV)
  ---------------------------------------------------
  alpha Z        PSCENC =         0.24225079
  Ewald energy   TEWEN  =       100.41703296
  -Hartree energ DENC   =      -258.79507014
  -exchange      EXHF   =         0.00000000
  -V(xc)+E(xc)   XCENC  =        23.38944953
  PAW double counting   =       323.97468159     -324.67226900
  entropy T*S    EENTRO =        -0.00000000
  eigenvalues    EBANDS =       -84.66919359
  atomic energy  EATOM  =       197.04175453
  Solvation  Ediel_sol  =         0.00000000
  ---------------------------------------------------
  free energy    TOTEN  =       -23.07136332 eV

  energy without entropy =      -23.07136332  energy(sigma->0) =      -23.07136332


--------------------------------------------------------------------------------------------------------




 average (electrostatic) potential at core
  the test charge radii are     0.5201  0.6991
  (the norm of the test charge is              1.0000)
       1 -40.9297       2 -40.9297       3 -40.9298       4 -40.9295       5 -58.8306



 E-fermi :  -8.5583     XC(G=0):  -0.7646     alpha+bet : -0.2107


 k-point     1 :       0.2500    0.2500    0.2500
  band No.  band energies     occupation 
      1     -15.9426      2.00000
      2      -8.7976      2.00000
      3      -8.7973      2.00000
      4      -8.7971      2.00000
      5      -0.5902      0.00000
      6       0.4521      0.00000
      7       0.5820      0.00000
      8       0.6345      0.00000

 k-point     2 :      -0.2500    0.2500    0.2500
  band No.  band energies     occupation 
      1     -15.9425      2.00000
      2      -8.7976      2.00000
      3      -8.7973      2.00000
      4      -8.7972      2.00000
      5      -0.5903      0.00000
      6       0.4433      0.00000
      7       0.5785      0.00000
      8       0.6396      0.00000

 k-point     3 :       0.2500   -0.2500    0.2500
  band No.  band energies     occupation 
      1     -15.9426      2.00000
      2      -8.7976      2.00000
      3      -8.7973      2.00000
      4      -8.7972      2.00000
      5      -0.5902      0.00000
      6       0.4416      0.00000
      7       0.5839      0.00000
      8       0.6428      0.00000

 k-point     4 :      -0.2500   -0.2500    0.2500
  band No.  band energies     occupation 
      1     -15.9426      2.00000
      2      -8.7976      2.00000
      3      -8.7973      2.00000
      4      -8.7971      2.00000
      5      -0.5903      0.00000
      6       0.4504      0.00000
      7       0.5837      0.00000
      8       0.6345      0.00000


--------------------------------------------------------------------------------------------------------


 soft charge-density along one line, spin component           1
         0         1         2         3         4         5         6         7         8         9
 total charge-density along one line

 pseudopotential strength for first ion, spin component:           1
 -2.338  -4.027  -0.001  -0.001   0.000
 -4.027  -6.851  -0.002  -0.003   0.001
 -0.001  -0.002  -0.343   0.001  -0.000
 -0.001  -0.003   0.001  -0.342  -0.001
  0.000   0.001  -0.000  -0.001  -0.344
 total augmentation occupancy for first ion, spin component:           1
  3.028  -0.543   0.168   0.235  -0.097
 -0.543   0.107  -0.031  -0.044   0.018
  0.168  -0.031   0.013   0.011  -0.005
  0.235  -0.044   0.011   0.020  -0.007
 -0.097   0.018  -0.005  -0.007   0.007


------------------------ aborting loop because EDIFF is reached ----------------------------------------


    CHARGE:  cpu time    0.0904: real time    0.0906
    FORLOC:  cpu time    0.0241: real time    0.0242
    FORNL :  cpu time    0.0111: real time    0.0112
    STRESS:  cpu time    0.3199: real time    0.3208
    FORCOR:  cpu time    0.5959: real time    0.5973
    FORHAR:  cpu time    0.1875: real time    0.1880
    MIXING:  cpu time    0.0450: real time    0.0451
    OFIELD:  cpu time    0.0001: real time    0.0001

  FORCE on cell =-STRESS in cart. coord.  units (eV):
  Direction    XX          YY          ZZ          XY          YZ          ZX
  --------------------------------------------------------------------------------------
  Alpha Z     0.24225     0.24225     0.24225
  Ewald      33.47548    33.47016    33.47135    -0.00966    -0.00058    -0.00097
  Hartree    86.26070    86.26493    86.26813    -0.00753     0.00076    -0.00181
  E(xc)     -25.75744   -25.75742   -25.75741    -0.00000     0.00001    -0.00000
  Local    -179.66751  -179.66836  -179.67333     0.01731    -0.00049     0.00301
  n-local   -12.91103   -12.91021   -12.91006    -0.00015     0.00018    -0.00016
  augment     0.16785     0.16785     0.16784    -0.00000     0.00000     0.00001
  Kinetic    92.78135    92.77896    92.77759     0.00014    -0.00060     0.00046
  Fock        0.00000     0.00000     0.00000     0.00000     0.00000     0.00000
  -------------------------------------------------------------------------------------
  Total      -5.40836    -5.41185    -5.41364     0.00010    -0.00072     0.00054
  in kB      -8.66515    -8.67074    -8.67361     0.00016    -0.00116     0.00087
  external pressure =       -8.67 kB  Pullay stress =        0.00 kB


 VOLUME and BASIS-vectors are now :
 -----------------------------------------------------------------------------
  energy-cutoff  :      400.00
  volume of cell :     1000.00
      direct lattice vectors                 reciprocal lattice vectors
    10.000000000  0.000000000  0.000000000     0.100000000  0.000000000  0.000000000
     0.000000000 10.000000000  0.000000000     0.000000000  0.100000000  0.000000000
     0.000000000  0.000000000 10.000000000     0.000000000  0.000000000  0.100000000

  length of vectors
    10.000000000 10.000000000 10.000000000     0.100000000  0.100000000  0.100000000


 FORCES acting on ions
    electron-ion (+dipol)            ewald-force                    non-local-force                 convergence-correction
 -----------------------------------------------------------------------------------------------
   -.144E+02 0.249E+02 0.348E+02   0.146E+02 -.253E+02 -.355E+02   -.125E+01 0.216E+01 0.303E+01   -.523E-04 0.929E-04 0.131E-03
   0.447E+02 -.538E+01 0.278E+01   -.455E+02 0.548E+01 -.284E+01   0.389E+01 -.468E+00 0.242E+00   0.164E-03 -.196E-04 0.101E-04
   -.201E+02 -.404E+02 0.104E+01   0.205E+02 0.411E+02 -.106E+01   -.175E+01 -.351E+01 0.904E-01   -.738E-04 -.151E-03 0.353E-05
   -.103E+02 0.209E+02 -.386E+02   0.105E+02 -.213E+02 0.393E+02   -.892E+00 0.182E+01 -.336E+01   -.367E-04 0.773E-04 -.145E-03
   0.135E-01 -.646E-02 -.257E-02   -.157E-01 0.762E-02 0.281E-02   0.445E-02 -.282E-02 -.526E-03   0.107E-04 -.153E-05 -.772E-06
 -----------------------------------------------------------------------------------------------
   -.729E-02 0.435E-02 0.121E-02   0.355E-14 -.867E-17 0.651E-17   0.709E-02 -.412E-02 -.115E-02   0.123E-04 -.151E-05 -.693E-06


 POSITION                                       TOTAL-FORCE (eV/Angst)
 -----------------------------------------------------------------------------------
      5.42499      3.99342      3.50035        -0.988242      1.710181      2.396803
      3.81024      4.81944      4.37628         3.074150     -0.369318      0.191179
      5.58170      5.77664      4.42395        -1.382315     -2.778150      0.071454
      5.31289      4.10088      5.50874        -0.705924      1.439001     -2.659130
      5.03240      4.67263      4.45234         0.002330     -0.001715     -0.000305
 -----------------------------------------------------------------------------------
    total drift:                               -0.000190      0.000237      0.000065


--------------------------------------------------------------------------------------------------------



  FREE ENERGIE OF THE ION-ELECTRON SYSTEM (eV)
  ---------------------------------------------------
  free  energy   TOTEN  =       -23.07136332 eV

  energy  without entropy=      -23.07136332  energy(sigma->0) =      -23.07136332



--------------------------------------------------------------------------------------------------------


    POTLOK:  cpu time    0.7201: real time    0.7221


--------------------------------------------------------------------------------------------------------




--------------------------------------------------------------------------------------------------------


    WAVPRE:  cpu time    0.0618: real time    1.3195
    FEWALD:  cpu time    0.0034: real time    0.0034
    ORTHCH:  cpu time    0.0124: real time    0.0124
     LOOP+:  cpu time   20.7794: real time   22.1200


--------------------------------------- Iteration      2(   1)  ---------------------------------------


    POTLOK:  cpu time    0.6543: real time    0.6619
    SETDIJ:  cpu time    0.0030: real time    0.0030
     EDDAV:  cpu time    0.1928: real time    0.1933
       DOS:  cpu time    0.0004: real time    0.0004
    CHARGE:  cpu time    0.0770: real time    0.0772
    MIXING:  cpu time    0.0328: real time    0.0328
    --------------------------------------------
      LOOP:  cpu time    0.9604: real time    0.9688

 eigenvalue-minimisations  :    64
 total energy-change (2. order) :-0.1256773E+01  (-0.3985957E+01)
 number of electron       8.0000002 magnetization 
 augmentation part        0.1935905 magnetization 

 Broyden mixing:
  rms(total) = 0.28581E+00    rms(broyden)= 0.28572E+00
  rms(prec ) = 0.38419E+00
  weight for this iteration     100.00

 Free energy of the ion-electron system (eV)
  ---------------------------------------------------
  alpha Z        PSCENC =         0.24225079
  Ewald energy   TEWEN  =       131.81887267
  -Hartree energ DENC   =      -277.78648917
  -exchange      EXHF   =         0.00000000
  -V(xc)+E(xc)   XCENC  =        24.33870879
  PAW double counting   =       323.97668706     -324.67426657
  entropy T*S    EENTRO =        -0.00000000
  eigenvalues    EBANDS =       -99.28565419
  atomic energy  EATOM  =       197.04175453
  Solvation  Ediel_sol  =         0.00000000
  ---------------------------------------------------
  free energy    TOTEN  =       -24.32813610 eV

  energy without entropy =      -24.32813610  energy(sigma->0) =      -24.32813610


--------------------------------------------------------------------------------------------------------




--------------------------------------- Iteration      2(   2)  ---------------------------------------


    POTLOK:  cpu time    0.6899: real time    0.6916
    SETDIJ:  cpu time    0.0045: real time    0.0045
    EDDIAG:  cpu time    0.0567: real time    0.0569
  RMM-DIIS:  cpu time    0.2269: real time    0.2274
    ORTHCH:  cpu time    0.0022: real time    0.0022
       DOS:  cpu time    0.0005: real time    0.0005
    CHARGE:  cpu time    0.0875: real time    0.0877
    MIXING:  cpu time    0.0257: real time    0.0258
    --------------------------------------------
      LOOP:  cpu time    1.0940: real time    1.0967

 eigenvalue-minimisations  :    64
 total energy-change (2. order) : 0.2549565E+00  (-0.4888043E-01)
 number of electron       8.0000002 magnetization 
 augmentation part        0.1948821 magnetization 

 Broyden mixing:
  rms(total) = 0.15495E+00    rms(broyden)= 0.15494E+00
  rms(prec ) = 0.20413E+00
  weight for this iteration     100.00

 eigenvalues of (default mixing * dielectric matrix)
  average eigenvalue GAMMA=   2.1131
  2.1131

 Free energy of the ion-electron system (eV)
  ---------------------------------------------------
  alpha Z        PSCENC =         0.24225079
  Ewald energy   TEWEN  =       131.81887267
  -Hartree energ DENC   =      -283.12162952
  -exchange      EXHF   =         0.00000000
  -V(xc)+E(xc)   XCENC  =        24.63132188
  PAW double counting   =       388.47477699     -389.22548735
  entropy T*S    EENTRO =        -0.00000000
  eigenvalues    EBANDS =       -93.93503953
  atomic energy  EATOM  =       197.04175453
  Solvation  Ediel_sol  =         0.00000000
  ---------------------------------------------------
  free energy    TOTEN  =       -24.07317955 eV

  energy without entropy =      -24.07317955  energy(sigma->0) =      -24.07317955


--------------------------------------------------------------------------------------------------------




--------------------------------------- Iteration      2(   3)  ---------------------------------------


    POTLOK:  cpu time    0.6663: real time    0.6682
    SETDIJ:  cpu time    0.0212: real time    0.0213
    EDDIAG:  cpu time    0.0558: real time    0.0560
  RMM-DIIS:  cpu time    0.2181: real time    0.2187
    ORTHCH:  cpu time    0.0032: real time    0.0032
       DOS:  cpu time    0.0004: real time    0.0004
    CHARGE:  cpu time    0.0857: real time    0.0859
    MIXING:  cpu time    0.0242: real time    0.0243
    --------------------------------------------
      LOOP:  cpu time    1.0750: real time    1.0779

 eigenvalue-minimisations  :    64
 total energy-change (2. order) : 0.2784541E-01  (-0.9815977E-01)
 number of electron       8.0000002 magnetization 
 augmentation part        0.1863895 magnetization 

 Broyden mixing:
  rms(total) = 0.90643E-01    rms(broyden)= 0.90604E-01
  rms(prec ) = 0.11821E+00
  weight for this iteration     100.00

 eigenvalues of (default mixing * dielectric matrix)
  average eigenvalue GAMMA=   1.1330
  2.0144  0.2515

 Free energy of the ion-electron system (eV)
  ---------------------------------------------------
  alpha Z        PSCENC =         0.24225079
  Ewald energy   TEWEN  =       131.81887267
  -Hartree energ DENC   =      -289.04284429
  -exchange      EXHF   =         0.00000000
  -V(xc)+E(xc)   XCENC  =        24.96553727
  PAW double counting   =       469.03888386     -469.86210982
  entropy T*S    EENTRO =        -0.00000000
  eigenvalues    EBANDS =       -88.24767914
  atomic energy  EATOM  =       197.04175453
  Solvation  Ediel_sol  =         0.00000000
  ---------------------------------------------------
  free energy    TOTEN  =       -24.04533414 eV

  energy without entropy =      -24.04533414  energy(sigma->0) =      -24.04533414


--------------------------------------------------------------------------------------------------------




--------------------------------------- Iteration      2(   4)  ---------------------------------------


    POTLOK:  cpu time    0.6599: real time    0.6614
    SETDIJ:  cpu time    0.0142: real time    0.0142
    EDDIAG:  cpu time    0.0553: real time    0.0554
  RMM-DIIS:  cpu time    0.2293: real time    0.2298
    ORTHCH:  cpu time    0.0016: real time    0.0016
       DOS:  cpu time    0.0004: real time    0.0018
    CHARGE:  cpu time    0.0869: real time    0.0871
    MIXING:  cpu time    0.0231: real time    0.0231
    --------------------------------------------
      LOOP:  cpu time    1.0706: real time    1.0745

 eigenvalue-minimisations  :    64
 total energy-change (2. order) : 0.1511654E-01  (-0.9454058E-03)
 number of electron       8.0000002 magnetization 
 augmentation part        0.1865017 magnetization 

 Broyden mixing:
  rms(total) = 0.80935E-01    rms(broyden)= 0.80932E-01
  rms(prec ) = 0.10256E+00
  weight for this iteration     100.00

 eigenvalues of (default mixing * dielectric matrix)
  average eigenvalue GAMMA=   1.7662
  1.9625  0.8030  2.5330

 Free energy of the ion-electron system (eV)
  ---------------------------------------------------
  alpha Z        PSCENC =         0.24225079
  Ewald energy   TEWEN  =       131.81887267
  -Hartree energ DENC   =      -288.31444496
  -exchange      EXHF   =         0.00000000
  -V(xc)+E(xc)   XCENC  =        24.92873314
  PAW double counting   =       465.51137228     -466.32539555
  entropy T*S    EENTRO =        -0.00000000
  eigenvalues    EBANDS =       -88.93336050
  atomic energy  EATOM  =       197.04175453
  Solvation  Ediel_sol  =         0.00000000
  ---------------------------------------------------
  free energy    TOTEN  =       -24.03021759 eV

  energy without entropy =      -24.03021759  energy(sigma->0) =      -24.03021759


--------------------------------------------------------------------------------------------------------




--------------------------------------- Iteration      2(   5)  ---------------------------------------


    POTLOK:  cpu time    0.6708: real time    0.6738
    SETDIJ:  cpu time    0.0034: real time    0.0034
    EDDIAG:  cpu time    0.0548: real time    0.0549
  RMM-DIIS:  cpu time    0.2189: real time    0.2194
    ORTHCH:  cpu time    0.0018: real time    0.0018
       DOS:  cpu time    0.0003: real time    0.0003
    CHARGE:  cpu time    0.0834: real time    0.0836
    MIXING:  cpu time    0.0275: real time    0.0276
    --------------------------------------------
      LOOP:  cpu time    1.0608: real time    1.0647

 eigenvalue-minimisations  :    64
 total energy-change (2. order) :-0.7968592E-01  (-0.1914697E-01)
 number of electron       8.0000002 magnetization 
[...]
  Total      -0.40374    -0.40322    -0.40270    -0.00045     0.00019    -0.00019
  in kB      -0.64687    -0.64603    -0.64520    -0.00073     0.00031    -0.00030
  external pressure =       -0.65 kB  Pullay stress =        0.00 kB


 VOLUME and BASIS-vectors are now :
 -----------------------------------------------------------------------------
  energy-cutoff  :      400.00
  volume of cell :     1000.00
      direct lattice vectors                 reciprocal lattice vectors
    10.000000000  0.000000000  0.000000000     0.100000000  0.000000000  0.000000000
     0.000000000 10.000000000  0.000000000     0.000000000  0.100000000  0.000000000
     0.000000000  0.000000000 10.000000000     0.000000000  0.000000000  0.100000000

  length of vectors
    10.000000000 10.000000000 10.000000000     0.100000000  0.100000000  0.100000000


 FORCES acting on ions
    electron-ion (+dipol)            ewald-force                    non-local-force                 convergence-correction
 -----------------------------------------------------------------------------------------------
   -.168E+02 0.291E+02 0.408E+02   0.186E+02 -.321E+02 -.450E+02   -.175E+01 0.302E+01 0.424E+01   0.103E-03 -.159E-03 -.214E-03
   0.523E+02 -.629E+01 0.326E+01   -.577E+02 0.695E+01 -.359E+01   0.544E+01 -.654E+00 0.338E+00   -.258E-03 0.244E-04 -.198E-04
   -.235E+02 -.473E+02 0.121E+01   0.260E+02 0.522E+02 -.134E+01   -.244E+01 -.491E+01 0.126E+00   0.138E-03 0.238E-03 -.934E-05
   -.120E+02 0.245E+02 -.452E+02   0.133E+02 -.270E+02 0.499E+02   -.125E+01 0.254E+01 -.470E+01   0.783E-04 -.135E-03 0.232E-03
   0.106E-01 -.487E-02 -.234E-02   -.123E-01 0.661E-02 0.255E-02   -.101E-02 0.543E-03 0.664E-04   0.710E-04 -.376E-04 -.125E-04
 -----------------------------------------------------------------------------------------------
   -.683E-03 0.167E-03 0.328E-03   0.532E-14 -.867E-17 0.651E-17   0.929E-04 -.501E-03 -.308E-03   0.132E-03 -.696E-04 -.238E-04


 POSITION                                       TOTAL-FORCE (eV/Angst)
 -----------------------------------------------------------------------------------
      5.38166      4.06840      3.60544        -0.003352      0.006477      0.009285
      3.94502      4.80325      4.38467         0.013705     -0.001889      0.000690
      5.52109      5.65484      4.42708        -0.005616     -0.012255      0.000237
      5.28194      4.16397      5.39215        -0.002178      0.005341     -0.010476
      5.03251      4.67255      4.45232        -0.002557      0.002326      0.000265
 -----------------------------------------------------------------------------------
    total drift:                               -0.000458     -0.000403     -0.000003


--------------------------------------------------------------------------------------------------------



  FREE ENERGIE OF THE ION-ELECTRON SYSTEM (eV)
  ---------------------------------------------------
  free  energy   TOTEN  =       -24.02878000 eV

  energy  without entropy=      -24.02878000  energy(sigma->0) =      -24.02878000

 d Force = 0.1190871E-01[-0.697E-03, 0.245E-01]  d Energy = 0.1175687E-01 0.152E-03
 d Force = 0.3224502E+01[ 0.318E+01, 0.327E+01]  d Ewald  = 0.3224247E+01 0.255E-03


--------------------------------------------------------------------------------------------------------


    POTLOK:  cpu time    0.6654: real time    0.6670


--------------------------------------------------------------------------------------------------------




--------------------------------------------------------------------------------------------------------


    WAVPRE:  cpu time    0.1120: real time    0.1171
    FEWALD:  cpu time    0.0127: real time    0.0128
    ORTHCH:  cpu time    0.0138: real time    0.0139
     LOOP+:  cpu time   12.6861: real time   12.7509


--------------------------------------- Iteration      4(   1)  ---------------------------------------


    POTLOK:  cpu time    0.6316: real time    0.6393
    SETDIJ:  cpu time    0.0018: real time    0.0018
     EDDAV:  cpu time    0.1945: real time    0.1950
       DOS:  cpu time    0.0006: real time    0.0006
    CHARGE:  cpu time    0.0894: real time    0.0897
    MIXING:  cpu time    0.0225: real time    0.0225
    --------------------------------------------
      LOOP:  cpu time    0.9405: real time    0.9490

 eigenvalue-minimisations  :    64
 total energy-change (2. order) :-0.1011236E-04  (-0.2485023E-04)
 number of electron       8.0000001 magnetization 
 augmentation part        0.1852243 magnetization 

 Broyden mixing:
  rms(total) = 0.77445E-03    rms(broyden)= 0.77401E-03
  rms(prec ) = 0.98316E-03
  weight for this iteration     100.00

 Free energy of the ion-electron system (eV)
  ---------------------------------------------------
  alpha Z        PSCENC =         0.24225079
  Ewald energy   TEWEN  =       128.68270354
  -Hartree energ DENC   =      -284.45800189
  -exchange      EXHF   =         0.00000000
  -V(xc)+E(xc)   XCENC  =        24.73966826
  PAW double counting   =       466.09558567     -466.88251657
  entropy T*S    EENTRO =        -0.00000000
  eigenvalues    EBANDS =       -89.49023528
  atomic energy  EATOM  =       197.04175453
  Solvation  Ediel_sol  =         0.00000000
  ---------------------------------------------------
  free energy    TOTEN  =       -24.02879094 eV

  energy without entropy =      -24.02879094  energy(sigma->0) =      -24.02879094


--------------------------------------------------------------------------------------------------------




--------------------------------------- Iteration      4(   2)  ---------------------------------------


    POTLOK:  cpu time    0.6475: real time    0.6511
    SETDIJ:  cpu time    0.0024: real time    0.0024
    EDDIAG:  cpu time    0.0552: real time    0.0553
  RMM-DIIS:  cpu time    0.2079: real time    0.2088
    ORTHCH:  cpu time    0.0016: real time    0.0016
       DOS:  cpu time    0.0004: real time    0.0004
    CHARGE:  cpu time    0.0844: real time    0.0846
    MIXING:  cpu time    0.0234: real time    0.0235
    --------------------------------------------
      LOOP:  cpu time    1.0227: real time    1.0277

 eigenvalue-minimisations  :    57
 total energy-change (2. order) : 0.1259159E-05  (-0.2660600E-06)
 number of electron       8.0000001 magnetization 
 augmentation part        0.1852209 magnetization 

 Broyden mixing:
  rms(total) = 0.40167E-03    rms(broyden)= 0.40165E-03
  rms(prec ) = 0.48907E-03
  weight for this iteration     100.00

 eigenvalues of (default mixing * dielectric matrix)
  average eigenvalue GAMMA=   1.9957
  1.9957

 Free energy of the ion-electron system (eV)
  ---------------------------------------------------
  alpha Z        PSCENC =         0.24225079
  Ewald energy   TEWEN  =       128.68270354
  -Hartree energ DENC   =      -284.47081764
  -exchange      EXHF   =         0.00000000
  -V(xc)+E(xc)   XCENC  =        24.74043450
  PAW double counting   =       466.32591932     -467.11298446
  entropy T*S    EENTRO =        -0.00000000
  eigenvalues    EBANDS =       -89.47805026
  atomic energy  EATOM  =       197.04175453
  Solvation  Ediel_sol  =         0.00000000
  ---------------------------------------------------
  free energy    TOTEN  =       -24.02878968 eV

  energy without entropy =      -24.02878968  energy(sigma->0) =      -24.02878968


--------------------------------------------------------------------------------------------------------




--------------------------------------- Iteration      4(   3)  ---------------------------------------


    POTLOK:  cpu time    0.6829: real time    0.6850
    SETDIJ:  cpu time    0.0024: real time    0.0024
    EDDIAG:  cpu time    0.0556: real time    0.0558
  RMM-DIIS:  cpu time    0.2114: real time    0.2120
    ORTHCH:  cpu time    0.0014: real time    0.0014
       DOS:  cpu time    0.0004: real time    0.0004
    CHARGE:  cpu time    0.0878: real time    0.0880
    MIXING:  cpu time    0.0224: real time    0.0225
    --------------------------------------------
      LOOP:  cpu time    1.0643: real time    1.0675

 eigenvalue-minimisations  :    60
 total energy-change (2. order) :-0.2833957E-06  (-0.3934936E-06)
 number of electron       8.0000001 magnetization 
 augmentation part        0.1852035 magnetization 

 Broyden mixing:
  rms(total) = 0.17632E-03    rms(broyden)= 0.17624E-03
  rms(prec ) = 0.22215E-03
  weight for this iteration     100.00

 eigenvalues of (default mixing * dielectric matrix)
  average eigenvalue GAMMA=   1.0648
  1.9721  0.1575

 Free energy of the ion-electron system (eV)
  ---------------------------------------------------
  alpha Z        PSCENC =         0.24225079
  Ewald energy   TEWEN  =       128.68270354
  -Hartree energ DENC   =      -284.48201269
  -exchange      EXHF   =         0.00000000
  -V(xc)+E(xc)   XCENC  =        24.74110244
  PAW double counting   =       466.58067215     -467.36787393
  entropy T*S    EENTRO =        -0.00000000
  eigenvalues    EBANDS =       -89.46738680
  atomic energy  EATOM  =       197.04175453
  Solvation  Ediel_sol  =         0.00000000
  ---------------------------------------------------
  free energy    TOTEN  =       -24.02878997 eV

  energy without entropy =      -24.02878997  energy(sigma->0) =      -24.02878997


--------------------------------------------------------------------------------------------------------




--------------------------------------- Iteration      4(   4)  ---------------------------------------


    POTLOK:  cpu time    0.6552: real time    0.6568
    SETDIJ:  cpu time    0.0030: real time    0.0031
    EDDIAG:  cpu time    0.0564: real time    0.0565
  RMM-DIIS:  cpu time    0.1833: real time    0.1838
    ORTHCH:  cpu time    0.0017: real time    0.0017
       DOS:  cpu time    0.0004: real time    0.0004
    --------------------------------------------
      LOOP:  cpu time    0.9000: real time    0.9023

 eigenvalue-minimisations  :    48
 total energy-change (2. order) : 0.7027381E-08  (-0.1399857E-07)
 number of electron       8.0000001 magnetization 
 augmentation part        0.1852035 magnetization 

 Free energy of the ion-electron system (eV)
  ---------------------------------------------------
  alpha Z        PSCENC =         0.24225079
  Ewald energy   TEWEN  =       128.68270354
  -Hartree energ DENC   =      -284.48169760
  -exchange      EXHF   =         0.00000000
  -V(xc)+E(xc)   XCENC  =        24.74108719
  PAW double counting   =       466.58037595     -467.36757384
  entropy T*S    EENTRO =        -0.00000000
  eigenvalues    EBANDS =       -89.46769051
  atomic energy  EATOM  =       197.04175453
  Solvation  Ediel_sol  =         0.00000000
  ---------------------------------------------------
  free energy    TOTEN  =       -24.02878996 eV

  energy without entropy =      -24.02878996  energy(sigma->0) =      -24.02878996


--------------------------------------------------------------------------------------------------------




 average (electrostatic) potential at core
  the test charge radii are     0.5201  0.6991
  (the norm of the test charge is              1.0000)
       1 -41.4904       2 -41.4891       3 -41.4898       4 -41.4902       5 -57.9598



 E-fermi :  -9.0481     XC(G=0):  -0.6894     alpha+bet : -0.2107


 k-point     1 :       0.2500    0.2500    0.2500
  band No.  band energies     occupation 
      1     -16.8798      2.00000
      2      -9.2853      2.00000
      3      -9.2847      2.00000
      4      -9.2840      2.00000
      5      -0.3138      0.00000
      6       0.5798      0.00000
      7       0.6741      0.00000
      8       0.6988      0.00000

 k-point     2 :      -0.2500    0.2500    0.2500
  band No.  band energies     occupation 
      1     -16.8798      2.00000
      2      -9.2854      2.00000
      3      -9.2847      2.00000
      4      -9.2839      2.00000
      5      -0.3138      0.00000
      6       0.5751      0.00000
      7       0.6716      0.00000
      8       0.7014      0.00000

 k-point     3 :       0.2500   -0.2500    0.2500
  band No.  band energies     occupation 
      1     -16.8798      2.00000
      2      -9.2854      2.00000
      3      -9.2847      2.00000
      4      -9.2839      2.00000
      5      -0.3138      0.00000
      6       0.5743      0.00000
      7       0.6739      0.00000
      8       0.7012      0.00000

 k-point     4 :      -0.2500   -0.2500    0.2500
  band No.  band energies     occupation 
      1     -16.8798      2.00000
      2      -9.2853      2.00000
      3      -9.2847      2.00000
      4      -9.2839      2.00000
      5      -0.3138      0.00000
      6       0.5789      0.00000
      7       0.6750      0.00000
      8       0.6981      0.00000


--------------------------------------------------------------------------------------------------------


 soft charge-density along one line, spin component           1
         0         1         2         3         4         5         6         7         8         9
 total charge-density along one line

 pseudopotential strength for first ion, spin component:           1
 -2.341  -4.034  -0.001  -0.001   0.001
 -4.034  -6.865  -0.003  -0.004   0.002
 -0.001  -0.003  -0.337   0.002  -0.001
 -0.001  -0.004   0.002  -0.336  -0.001
  0.001   0.002  -0.001  -0.001  -0.338
 total augmentation occupancy for first ion, spin component:           1
  3.547  -0.639   0.237   0.332  -0.137
 -0.639   0.129  -0.044  -0.061   0.025
  0.237  -0.044   0.022   0.018  -0.008
  0.332  -0.061   0.018   0.035  -0.011
 -0.137   0.025  -0.008  -0.011   0.013


------------------------ aborting loop because EDIFF is reached ----------------------------------------


    CHARGE:  cpu time    0.0892: real time    0.0895
    FORLOC:  cpu time    0.0254: real time    0.0254
    FORNL :  cpu time    0.0112: real time    0.0112
    STRESS:  cpu time    0.3193: real time    0.3200
    FORCOR:  cpu time    0.6551: real time    0.6566
    FORHAR:  cpu time    0.1822: real time    0.1826
    MIXING:  cpu time    0.0191: real time    0.0191
    OFIELD:  cpu time    0.0001: real time    0.0000

  FORCE on cell =-STRESS in cart. coord.  units (eV):
  Direction    XX          YY          ZZ          XY          YZ          ZX
  --------------------------------------------------------------------------------------
  Alpha Z     0.24225     0.24225     0.24225
  Ewald      42.88200    42.89495    42.90570    -0.00850     0.00232    -0.00338
  Hartree    94.82129    94.82455    94.82691    -0.00485     0.00059    -0.00131
  E(xc)     -27.20987   -27.20983   -27.20980    -0.00000     0.00001    -0.00001
  Local    -196.47869  -196.49144  -196.50189     0.01269    -0.00227     0.00404
  n-local   -15.89341   -15.89314   -15.89338    -0.00007     0.00007    -0.00005
  augment     0.11608     0.11599     0.11593    -0.00002    -0.00000    -0.00000
  Kinetic   101.13074   101.12761   101.12575     0.00030    -0.00052     0.00052
  Fock        0.00000     0.00000     0.00000     0.00000     0.00000     0.00000
  -------------------------------------------------------------------------------------
  Total      -0.38961    -0.38906    -0.38852    -0.00045     0.00020    -0.00019
  in kB      -0.62422    -0.62334    -0.62247    -0.00073     0.00031    -0.00031
  external pressure =       -0.62 kB  Pullay stress =        0.00 kB


 VOLUME and BASIS-vectors are now :
 -----------------------------------------------------------------------------
  energy-cutoff  :      400.00
  volume of cell :     1000.00
      direct lattice vectors                 reciprocal lattice vectors
    10.000000000  0.000000000  0.000000000     0.100000000  0.000000000  0.000000000
     0.000000000 10.000000000  0.000000000     0.000000000  0.100000000  0.000000000
     0.000000000  0.000000000 10.000000000     0.000000000  0.000000000  0.100000000

  length of vectors
    10.000000000 10.000000000 10.000000000     0.100000000  0.100000000  0.100000000


 FORCES acting on ions
    electron-ion (+dipol)            ewald-force                    non-local-force                 convergence-correction
 -----------------------------------------------------------------------------------------------
   -.168E+02 0.291E+02 0.408E+02   0.186E+02 -.321E+02 -.450E+02   -.175E+01 0.303E+01 0.424E+01   -.301E-03 0.532E-03 0.750E-03
   0.523E+02 -.630E+01 0.326E+01   -.578E+02 0.695E+01 -.360E+01   0.544E+01 -.655E+00 0.339E+00   0.963E-03 -.120E-03 0.580E-04
   -.235E+02 -.473E+02 0.122E+01   0.260E+02 0.522E+02 -.134E+01   -.245E+01 -.492E+01 0.126E+00   -.423E-03 -.871E-03 0.208E-04
   -.120E+02 0.245E+02 -.452E+02   0.133E+02 -.270E+02 0.500E+02   -.125E+01 0.255E+01 -.471E+01   -.213E-03 0.446E-03 -.834E-03
   0.106E-01 -.485E-02 -.234E-02   -.123E-01 0.661E-02 0.255E-02   -.100E-02 0.541E-03 0.661E-04   0.503E-04 -.294E-04 -.788E-05
 -----------------------------------------------------------------------------------------------
   -.642E-03 0.156E-03 0.319E-03   -.520E-17 0.354E-14 0.651E-17   0.927E-04 -.494E-03 -.306E-03   0.769E-04 -.426E-04 -.130E-04


 POSITION                                       TOTAL-FORCE (eV/Angst)
 -----------------------------------------------------------------------------------
      5.38154      4.06861      3.60573         0.000941     -0.000955     -0.001124
      3.94540      4.80321      4.38469         0.000364     -0.000288     -0.000139
      5.52092      5.65450      4.42709         0.000385     -0.000191     -0.000074
      5.28185      4.16415      5.39183         0.000889     -0.000913      0.001069
      5.03251      4.67255      4.45232        -0.002580      0.002346      0.000267
 -----------------------------------------------------------------------------------
    total drift:                               -0.000473     -0.000381     -0.000000


--------------------------------------------------------------------------------------------------------



  FREE ENERGIE OF THE ION-ELECTRON SYSTEM (eV)
  ---------------------------------------------------
  free  energy   TOTEN  =       -24.02878996 eV

  energy  without entropy=      -24.02878996  energy(sigma->0) =      -24.02878996

 d Force = 0.9103241E-05[-0.108E-05, 0.193E-04]  d Energy = 0.9955257E-05-0.852E-06
 d Force =-0.8807827E-01[-0.881E-01,-0.880E-01]  d Ewald  =-0.8807826E-01-0.526E-08


--------------------------------------------------------------------------------------------------------


    POTLOK:  cpu time    0.6939: real time    0.6956


--------------------------------------------------------------------------------------------------------




--------------------------------------------------------------------------------------------------------


  
 reached required accuracy - stopping structural energy minimisation
     LOOP+:  cpu time    5.9292: real time    5.9622
    4ORBIT:  cpu time    0.0000: real time    0.0000

 total amount of memory used by VASP MPI-rank0    63803. kBytes
=======================================================================

   base      :      30000. kBytes
   nonl-proj :       3585. kBytes
   fftplans  :      11399. kBytes
   grid      :      18036. kBytes
   one-center:          6. kBytes
   wavefun   :        777. kBytes

  
  
 General timing and accounting informations for this job:
 ========================================================
  
                  Total CPU time used (sec):       60.986
                            User time (sec):       59.094
                          System time (sec):        1.892
                         Elapsed time (sec):       62.591
  
                   Maximum memory used (kb):       71944.
                   Average memory used (kb):           0.
  
                          Minor page faults:       216606
                          Major page faults:            0
                 Voluntary context switches:          463
