unknown system                          
           1
    10.000000    0.000000    0.000000
     0.000000   10.000000    0.000000
     0.000000    0.000000   10.000000
   H    C 
   4   1
Direct configuration=     1
   0.54249916  0.39934196  0.35003543
   0.38102410  0.48194428  0.43762832
   0.55816980  0.57766447  0.44239459
   0.53128891  0.41008816  0.55087357
   0.50324035  0.46726270  0.44523368
Direct configuration=     2
   0.53773162  0.40759233  0.36159824
   0.39585462  0.48016259  0.43855062
   0.55150115  0.56426194  0.44273930
   0.52788335  0.41703029  0.53804522
   0.50325159  0.46725443  0.44523221
Direct configuration=     3
   0.53816636  0.40683999  0.36054385
   0.39450225  0.48032506  0.43846651
   0.55210925  0.56548409  0.44270787
   0.52819389  0.41639725  0.53921501
   0.50325056  0.46725518  0.44523234
Direct configuration=     4
   0.53815434  0.40686080  0.36057301
   0.39453966  0.48032057  0.43846884
   0.55209243  0.56545029  0.44270874
   0.52818530  0.41641476  0.53918266
   0.50325059  0.46725516  0.44523234
