   5   5   0****
  0.1931000E+03  0.1009056E-08  0.9816043E-09  0.9753506E-09  0.2000000E-14
   50.000000000000000     
  CAR 
 unknown system                          
      2.73335160    -18.96589224  301     -9.14132546      1.00000000
    -18.966  0.0000E+00  0.0000E+00
    -18.894  0.0000E+00  0.0000E+00
    -18.821  0.0000E+00  0.0000E+00
    -18.749  0.0000E+00  0.0000E+00
    -18.677  0.0000E+00  0.0000E+00
    -18.604 -0.4588E-27 -0.3318E-28
    -18.532 -0.1436E-24 -0.1042E-25
    -18.460 -0.3459E-22 -0.2513E-23
    -18.387 -0.6400E-20 -0.4654E-21
    -18.315 -0.9088E-18 -0.6620E-19
    -18.243 -0.9901E-16 -0.7227E-17
    -18.170 -0.8271E-14 -0.6055E-15
    -18.098 -0.5127E-12 -0.3769E-13
    -18.026 -0.2506E-10 -0.1850E-11
    -17.953 -0.9348E-09 -0.6946E-10
    -17.881 -0.2661E-07 -0.1994E-08
    -17.809 -0.5770E-06 -0.4373E-07
    -17.736 -0.9498E-05 -0.7308E-06
    -17.664 -0.1183E-03 -0.9284E-05
    -17.592 -0.1107E-02 -0.8934E-04
    -17.519 -0.7714E-02 -0.6473E-03
    -17.447 -0.3941E-01 -0.3498E-02
    -17.375 -0.1431E+00 -0.1385E-01
    -17.302 -0.3432E+00 -0.3867E-01
    -17.230 -0.4117E+00 -0.6845E-01
    -17.158  0.3850E+00 -0.4060E-01
    -17.085  0.2809E+01  0.1626E+00
    -17.013  0.6234E+01  0.6135E+00
    -16.941  0.8271E+01  0.1212E+01
    -16.868  0.7120E+01  0.1727E+01
    -16.796  0.3824E+01  0.2003E+01
    -16.724  0.9340E+00  0.2071E+01
    -16.651 -0.3071E+00  0.2049E+01
    -16.579 -0.4010E+00  0.2020E+01
    -16.507 -0.1958E+00  0.2005E+01
    -16.434 -0.6043E-01  0.2001E+01
    -16.362 -0.1306E-01  0.2000E+01
    -16.290 -0.2054E-02  0.2000E+01
    -16.217 -0.2396E-03  0.2000E+01
    -16.145 -0.2096E-04  0.2000E+01
    -16.073 -0.1385E-05  0.2000E+01
    -16.000 -0.6938E-07  0.2000E+01
    -15.928 -0.2645E-08  0.2000E+01
    -15.856 -0.7692E-10  0.2000E+01
    -15.783 -0.1708E-11  0.2000E+01
    -15.711 -0.3070E-13  0.2000E+01
    -15.639  0.0000E+00  0.2000E+01
    -15.566  0.0000E+00  0.2000E+01
    -15.494  0.0000E+00  0.2000E+01
    -15.422  0.0000E+00  0.2000E+01
    -15.349  0.0000E+00  0.2000E+01
    -15.277  0.0000E+00  0.2000E+01
    -15.205  0.0000E+00  0.2000E+01
    -15.132  0.0000E+00  0.2000E+01
    -15.060  0.0000E+00  0.2000E+01
    -14.988  0.0000E+00  0.2000E+01
    -14.915  0.0000E+00  0.2000E+01
    -14.843  0.0000E+00  0.2000E+01
    -14.771  0.0000E+00  0.2000E+01
    -14.698  0.0000E+00  0.2000E+01
    -14.626  0.0000E+00  0.2000E+01
    -14.554  0.0000E+00  0.2000E+01
    -14.481  0.0000E+00  0.2000E+01
    -14.409  0.0000E+00  0.2000E+01
    -14.337  0.0000E+00  0.2000E+01
    -14.264  0.0000E+00  0.2000E+01
    -14.192  0.0000E+00  0.2000E+01
    -14.120  0.0000E+00  0.2000E+01
    -14.047  0.0000E+00  0.2000E+01
    -13.975  0.0000E+00  0.2000E+01
    -13.903  0.0000E+00  0.2000E+01
    -13.830  0.0000E+00  0.2000E+01
    -13.758  0.0000E+00  0.2000E+01
    -13.686  0.0000E+00  0.2000E+01
    -13.613  0.0000E+00  0.2000E+01
    -13.541  0.0000E+00  0.2000E+01
    -13.469  0.0000E+00  0.2000E+01
    -13.396  0.0000E+00  0.2000E+01
    -13.324  0.0000E+00  0.2000E+01
    -13.252  0.0000E+00  0.2000E+01
    -13.179  0.0000E+00  0.2000E+01
    -13.107  0.0000E+00  0.2000E+01
    -13.035  0.0000E+00  0.2000E+01
    -12.962  0.0000E+00  0.2000E+01
    -12.890  0.0000E+00  0.2000E+01
    -12.818  0.0000E+00  0.2000E+01
    -12.745  0.0000E+00  0.2000E+01
    -12.673  0.0000E+00  0.2000E+01
    -12.601  0.0000E+00  0.2000E+01
    -12.528  0.0000E+00  0.2000E+01
    -12.456  0.0000E+00  0.2000E+01
    -12.384  0.0000E+00  0.2000E+01
    -12.311  0.0000E+00  0.2000E+01
    -12.239  0.0000E+00  0.2000E+01
    -12.167  0.0000E+00  0.2000E+01
    -12.094  0.0000E+00  0.2000E+01
    -12.022  0.0000E+00  0.2000E+01
    -11.950  0.0000E+00  0.2000E+01
    -11.877  0.0000E+00  0.2000E+01
    -11.805  0.0000E+00  0.2000E+01
    -11.733  0.0000E+00  0.2000E+01
    -11.660  0.0000E+00  0.2000E+01
    -11.588  0.0000E+00  0.2000E+01
    -11.516  0.0000E+00  0.2000E+01
    -11.443  0.0000E+00  0.2000E+01
    -11.371  0.0000E+00  0.2000E+01
    -11.299  0.0000E+00  0.2000E+01
    -11.226  0.0000E+00  0.2000E+01
    -11.154  0.0000E+00  0.2000E+01
    -11.082  0.0000E+00  0.2000E+01
    -11.010 -0.2652E-27  0.2000E+01
    -10.937 -0.8609E-25  0.2000E+01
    -10.865 -0.2132E-22  0.2000E+01
    -10.793 -0.4058E-20  0.2000E+01
    -10.720 -0.5934E-18  0.2000E+01
    -10.648 -0.6666E-16  0.2000E+01
    -10.576 -0.5751E-14  0.2000E+01
    -10.503 -0.3702E-12  0.2000E+01
    -10.431 -0.1871E-10  0.2000E+01
    -10.359 -0.7264E-09  0.2000E+01
    -10.286 -0.2161E-07  0.2000E+01
    -10.214 -0.4919E-06  0.2000E+01
    -10.142 -0.8556E-05  0.2000E+01
    -10.069 -0.1135E-03  0.2000E+01
     -9.997 -0.1143E-02  0.2000E+01
     -9.925 -0.8698E-02  0.1999E+01
     -9.852 -0.4946E-01  0.1996E+01
     -9.780 -0.2061E+00  0.1981E+01
     -9.708 -0.6037E+00  0.1937E+01
     -9.635 -0.1102E+01  0.1857E+01
     -9.563 -0.5703E+00  0.1816E+01
     -9.491  0.3240E+01  0.2051E+01
     -9.418  0.1141E+02  0.2876E+01
     -9.346  0.2049E+02  0.4358E+01
     -9.274  0.2381E+02  0.6080E+01
     -9.201  0.1848E+02  0.7417E+01
     -9.129  0.8964E+01  0.8065E+01
     -9.057  0.1748E+01  0.8192E+01
     -8.984 -0.9834E+00  0.8121E+01
     -8.912 -0.1019E+01  0.8047E+01
     -8.840 -0.4712E+00  0.8013E+01
     -8.767 -0.1418E+00  0.8003E+01
     -8.695 -0.3028E-01  0.8000E+01
     -8.623 -0.4745E-02  0.8000E+01
     -8.550 -0.5548E-03  0.8000E+01
     -8.478 -0.4887E-04  0.8000E+01
     -8.406 -0.3262E-05  0.8000E+01
     -8.333 -0.1657E-06  0.8000E+01
     -8.261 -0.6416E-08  0.8000E+01
     -8.189 -0.1899E-09  0.8000E+01
     -8.116 -0.4304E-11  0.8000E+01
     -8.044 -0.7368E-13  0.8000E+01
     -7.972  0.0000E+00  0.8000E+01
     -7.899  0.0000E+00  0.8000E+01
     -7.827  0.0000E+00  0.8000E+01
     -7.755  0.0000E+00  0.8000E+01
     -7.682  0.0000E+00  0.8000E+01
     -7.610  0.0000E+00  0.8000E+01
     -7.538  0.0000E+00  0.8000E+01
     -7.465  0.0000E+00  0.8000E+01
     -7.393  0.0000E+00  0.8000E+01
     -7.321  0.0000E+00  0.8000E+01
     -7.248  0.0000E+00  0.8000E+01
     -7.176  0.0000E+00  0.8000E+01
     -7.104  0.0000E+00  0.8000E+01
     -7.031  0.0000E+00  0.8000E+01
     -6.959  0.0000E+00  0.8000E+01
     -6.887  0.0000E+00  0.8000E+01
     -6.814  0.0000E+00  0.8000E+01
     -6.742  0.0000E+00  0.8000E+01
     -6.670  0.0000E+00  0.8000E+01
     -6.597  0.0000E+00  0.8000E+01
     -6.525  0.0000E+00  0.8000E+01
     -6.453  0.0000E+00  0.8000E+01
     -6.380  0.0000E+00  0.8000E+01
     -6.308  0.0000E+00  0.8000E+01
     -6.236  0.0000E+00  0.8000E+01
     -6.163  0.0000E+00  0.8000E+01
     -6.091  0.0000E+00  0.8000E+01
     -6.019  0.0000E+00  0.8000E+01
     -5.946  0.0000E+00  0.8000E+01
     -5.874  0.0000E+00  0.8000E+01
     -5.802  0.0000E+00  0.8000E+01
     -5.729  0.0000E+00  0.8000E+01
     -5.657  0.0000E+00  0.8000E+01
     -5.585  0.0000E+00  0.8000E+01
     -5.512  0.0000E+00  0.8000E+01
     -5.440  0.0000E+00  0.8000E+01
     -5.368  0.0000E+00  0.8000E+01
     -5.295  0.0000E+00  0.8000E+01
     -5.223  0.0000E+00  0.8000E+01
     -5.151  0.0000E+00  0.8000E+01
     -5.078  0.0000E+00  0.8000E+01
     -5.006  0.0000E+00  0.8000E+01
     -4.934  0.0000E+00  0.8000E+01
     -4.861  0.0000E+00  0.8000E+01
     -4.789  0.0000E+00  0.8000E+01
     -4.717  0.0000E+00  0.8000E+01
     -4.644  0.0000E+00  0.8000E+01
     -4.572  0.0000E+00  0.8000E+01
     -4.500  0.0000E+00  0.8000E+01
     -4.427  0.0000E+00  0.8000E+01
     -4.355  0.0000E+00  0.8000E+01
     -4.283  0.0000E+00  0.8000E+01
     -4.210  0.0000E+00  0.8000E+01
     -4.138  0.0000E+00  0.8000E+01
     -4.066  0.0000E+00  0.8000E+01
     -3.993  0.0000E+00  0.8000E+01
     -3.921  0.0000E+00  0.8000E+01
     -3.849  0.0000E+00  0.8000E+01
     -3.776  0.0000E+00  0.8000E+01
     -3.704  0.0000E+00  0.8000E+01
     -3.632  0.0000E+00  0.8000E+01
     -3.559  0.0000E+00  0.8000E+01
     -3.487  0.0000E+00  0.8000E+01
     -3.415  0.0000E+00  0.8000E+01
     -3.342  0.0000E+00  0.8000E+01
     -3.270  0.0000E+00  0.8000E+01
     -3.198  0.0000E+00  0.8000E+01
     -3.125  0.0000E+00  0.8000E+01
     -3.053  0.0000E+00  0.8000E+01
     -2.981  0.0000E+00  0.8000E+01
     -2.908  0.0000E+00  0.8000E+01
     -2.836  0.0000E+00  0.8000E+01
     -2.764  0.0000E+00  0.8000E+01
     -2.691  0.0000E+00  0.8000E+01
     -2.619  0.0000E+00  0.8000E+01
     -2.547  0.0000E+00  0.8000E+01
     -2.474  0.0000E+00  0.8000E+01
     -2.402  0.0000E+00  0.8000E+01
     -2.330  0.0000E+00  0.8000E+01
     -2.257  0.0000E+00  0.8000E+01
     -2.185  0.0000E+00  0.8000E+01
     -2.113  0.0000E+00  0.8000E+01
     -2.040  0.0000E+00  0.8000E+01
     -1.968 -0.3367E-28  0.8000E+01
     -1.896 -0.1401E-25  0.8000E+01
     -1.823 -0.3754E-23  0.8000E+01
     -1.751 -0.7729E-21  0.8000E+01
     -1.679 -0.1222E-18  0.8000E+01
     -1.606 -0.1482E-16  0.8000E+01
     -1.534 -0.1379E-14  0.8000E+01
     -1.462 -0.9574E-13  0.8000E+01
     -1.390 -0.5202E-11  0.8000E+01
     -1.317 -0.2166E-09  0.8000E+01
     -1.245 -0.6890E-08  0.8000E+01
     -1.173 -0.1671E-06  0.8000E+01
     -1.100 -0.3080E-05  0.8000E+01
     -1.028 -0.4304E-04  0.8000E+01
     -0.956 -0.4534E-03  0.8000E+01
     -0.883 -0.3574E-02  0.8000E+01
     -0.811 -0.2081E-01  0.7998E+01
     -0.739 -0.8749E-01  0.7992E+01
     -0.666 -0.2528E+00  0.7974E+01
     -0.594 -0.4339E+00  0.7942E+01
     -0.522 -0.1137E+00  0.7934E+01
     -0.449  0.1594E+01  0.8049E+01
     -0.377  0.4812E+01  0.8397E+01
     -0.305  0.7755E+01  0.8958E+01
     -0.232  0.7984E+01  0.9536E+01
     -0.160  0.5291E+01  0.9918E+01
     -0.088  0.1962E+01  0.1006E+02
     -0.015  0.1699E-01  0.1006E+02
      0.057 -0.4544E+00  0.1003E+02
      0.129 -0.3592E+00  0.1000E+02
      0.202 -0.3678E+00  0.9976E+01
      0.274 -0.6477E+00  0.9929E+01
      0.346 -0.8261E+00  0.9870E+01
      0.419  0.2615E+00  0.9889E+01
      0.491  0.4195E+01  0.1019E+02
      0.563  0.1123E+02  0.1100E+02
      0.636  0.1861E+02  0.1235E+02
      0.708  0.2165E+02  0.1392E+02
      0.780  0.1793E+02  0.1521E+02
      0.853  0.1003E+02  0.1594E+02
      0.925  0.3009E+01  0.1616E+02
      0.997 -0.3993E+00  0.1613E+02
      1.070 -0.9638E+00  0.1606E+02
      1.142 -0.5538E+00  0.1602E+02
      1.214 -0.1951E+00  0.1600E+02
      1.287 -0.4791E-01  0.1600E+02
      1.359 -0.8568E-02  0.1600E+02
      1.431 -0.1139E-02  0.1600E+02
      1.504 -0.1139E-03  0.1600E+02
      1.576 -0.8615E-05  0.1600E+02
      1.648 -0.4957E-06  0.1600E+02
      1.721 -0.2176E-07  0.1600E+02
      1.793 -0.7300E-09  0.1600E+02
      1.865 -0.1875E-10  0.1600E+02
      1.938 -0.3715E-12  0.1600E+02
      2.010 -0.4605E-14  0.1600E+02
      2.082  0.0000E+00  0.1600E+02
      2.155  0.0000E+00  0.1600E+02
      2.227  0.0000E+00  0.1600E+02
      2.299  0.0000E+00  0.1600E+02
      2.372  0.0000E+00  0.1600E+02
      2.444  0.0000E+00  0.1600E+02
      2.516  0.0000E+00  0.1600E+02
      2.589  0.0000E+00  0.1600E+02
      2.661  0.0000E+00  0.1600E+02
      2.733  0.0000E+00  0.1600E+02
      2.72389751    -18.81371936  301     -8.91679620      1.00000000
    -18.814  0.0000E+00  0.0000E+00
    -18.742  0.0000E+00  0.0000E+00
    -18.670  0.0000E+00  0.0000E+00
    -18.598  0.0000E+00  0.0000E+00
    -18.527  0.0000E+00  0.0000E+00
    -18.455 -0.3711E-27 -0.2664E-28
    -18.383 -0.1125E-24 -0.8100E-26
    -18.311 -0.2634E-22 -0.1899E-23
    -18.239 -0.4757E-20 -0.3434E-21
    -18.168 -0.6619E-18 -0.4786E-19
    -18.096 -0.7094E-16 -0.5141E-17
    -18.024 -0.5853E-14 -0.4254E-15
    -17.952 -0.3608E-12 -0.2633E-13
    -17.880 -0.1751E-10 -0.1284E-11
    -17.809 -0.6533E-09 -0.4818E-10
    -17.737 -0.1867E-07 -0.1389E-08
    -17.665 -0.4082E-06 -0.3069E-07
    -17.593 -0.6805E-05 -0.5193E-06
    -17.521 -0.8621E-04 -0.6708E-05
    -17.450 -0.8252E-03 -0.6595E-04
    -17.378 -0.5917E-02 -0.4908E-03
    -17.306 -0.3133E-01 -0.2740E-02
    -17.234 -0.1193E+00 -0.1130E-01
    -17.163 -0.3070E+00 -0.3334E-01
    -17.091 -0.4355E+00 -0.6461E-01
    -17.019  0.1302E+00 -0.5526E-01
    -16.947  0.2222E+01  0.1042E+00
    -16.875  0.5580E+01  0.5048E+00
    -16.804  0.8093E+01  0.1086E+01
    -16.732  0.7624E+01  0.1633E+01
    -16.660  0.4597E+01  0.1963E+01
    -16.588  0.1455E+01  0.2068E+01
    -16.516 -0.1549E+00  0.2056E+01
    -16.445 -0.4319E+00  0.2025E+01
    -16.373 -0.2461E+00  0.2008E+01
    -16.301 -0.8472E-01  0.2002E+01
    -16.229 -0.2019E-01  0.2000E+01
    -16.157 -0.3493E-02  0.2000E+01
    -16.086 -0.4484E-03  0.2000E+01
    -16.014 -0.4325E-04  0.2000E+01
    -15.942 -0.3157E-05  0.2000E+01
    -15.870 -0.1754E-06  0.2000E+01
    -15.798 -0.7434E-08  0.2000E+01
    -15.727 -0.2412E-09  0.2000E+01
    -15.655 -0.5996E-11  0.2000E+01
    -15.583 -0.1175E-12  0.2000E+01
    -15.511  0.0000E+00  0.2000E+01
    -15.439  0.0000E+00  0.2000E+01
    -15.368  0.0000E+00  0.2000E+01
    -15.296  0.0000E+00  0.2000E+01
    -15.224  0.0000E+00  0.2000E+01
    -15.152  0.0000E+00  0.2000E+01
    -15.081  0.0000E+00  0.2000E+01
    -15.009  0.0000E+00  0.2000E+01
    -14.937  0.0000E+00  0.2000E+01
    -14.865  0.0000E+00  0.2000E+01
    -14.793  0.0000E+00  0.2000E+01
    -14.722  0.0000E+00  0.2000E+01
    -14.650  0.0000E+00  0.2000E+01
    -14.578  0.0000E+00  0.2000E+01
    -14.506  0.0000E+00  0.2000E+01
    -14.434  0.0000E+00  0.2000E+01
    -14.363  0.0000E+00  0.2000E+01
    -14.291  0.0000E+00  0.2000E+01
    -14.219  0.0000E+00  0.2000E+01
    -14.147  0.0000E+00  0.2000E+01
    -14.075  0.0000E+00  0.2000E+01
    -14.004  0.0000E+00  0.2000E+01
    -13.932  0.0000E+00  0.2000E+01
    -13.860  0.0000E+00  0.2000E+01
    -13.788  0.0000E+00  0.2000E+01
    -13.716  0.0000E+00  0.2000E+01
    -13.645  0.0000E+00  0.2000E+01
    -13.573  0.0000E+00  0.2000E+01
    -13.501  0.0000E+00  0.2000E+01
    -13.429  0.0000E+00  0.2000E+01
    -13.358  0.0000E+00  0.2000E+01
    -13.286  0.0000E+00  0.2000E+01
    -13.214  0.0000E+00  0.2000E+01
    -13.142  0.0000E+00  0.2000E+01
    -13.070  0.0000E+00  0.2000E+01
    -12.999  0.0000E+00  0.2000E+01
    -12.927  0.0000E+00  0.2000E+01
    -12.855  0.0000E+00  0.2000E+01
    -12.783  0.0000E+00  0.2000E+01
    -12.711  0.0000E+00  0.2000E+01
    -12.640  0.0000E+00  0.2000E+01
    -12.568  0.0000E+00  0.2000E+01
    -12.496  0.0000E+00  0.2000E+01
    -12.424  0.0000E+00  0.2000E+01
    -12.352  0.0000E+00  0.2000E+01
    -12.281  0.0000E+00  0.2000E+01
    -12.209  0.0000E+00  0.2000E+01
    -12.137  0.0000E+00  0.2000E+01
    -12.065  0.0000E+00  0.2000E+01
    -11.993  0.0000E+00  0.2000E+01
    -11.922  0.0000E+00  0.2000E+01
    -11.850  0.0000E+00  0.2000E+01
    -11.778  0.0000E+00  0.2000E+01
    -11.706  0.0000E+00  0.2000E+01
    -11.635  0.0000E+00  0.2000E+01
    -11.563  0.0000E+00  0.2000E+01
    -11.491  0.0000E+00  0.2000E+01
    -11.419  0.0000E+00  0.2000E+01
    -11.347  0.0000E+00  0.2000E+01
    -11.276  0.0000E+00  0.2000E+01
    -11.204 -0.5509E-28  0.2000E+01
    -11.132 -0.1816E-25  0.2000E+01
    -11.060 -0.4629E-23  0.2000E+01
    -10.988 -0.9094E-21  0.2000E+01
    -10.917 -0.1377E-18  0.2000E+01
    -10.845 -0.1606E-16  0.2000E+01
    -10.773 -0.1442E-14  0.2000E+01
    -10.701 -0.9661E-13  0.2000E+01
    -10.629 -0.5124E-11  0.2000E+01
    -10.558 -0.2083E-09  0.2000E+01
    -10.486 -0.6490E-08  0.2000E+01
    -10.414 -0.1548E-06  0.2000E+01
    -10.342 -0.2818E-05  0.2000E+01
    -10.270 -0.3905E-04  0.2000E+01
    -10.199 -0.4096E-03  0.2000E+01
    -10.127 -0.3229E-02  0.2000E+01
    -10.055 -0.1890E-01  0.1998E+01
     -9.983 -0.8041E-01  0.1993E+01
     -9.912 -0.2375E+00  0.1976E+01
     -9.840 -0.4282E+00  0.1945E+01
     -9.768 -0.1872E+00  0.1931E+01
     -9.696  0.1350E+01  0.2028E+01
     -9.624  0.4427E+01  0.2346E+01
     -9.553  0.7418E+01  0.2879E+01
     -9.481  0.7765E+01  0.3436E+01
     -9.409  0.4956E+01  0.3792E+01
     -9.337  0.1735E+01  0.3917E+01
     -9.265  0.1832E+01  0.4048E+01
     -9.194  0.6620E+01  0.4523E+01
     -9.122  0.1322E+02  0.5472E+01
     -9.050  0.1623E+02  0.6638E+01
     -8.978  0.1303E+02  0.7573E+01
     -8.906  0.6496E+01  0.8039E+01
     -8.835  0.1340E+01  0.8136E+01
     -8.763 -0.6766E+00  0.8087E+01
     -8.691 -0.7345E+00  0.8034E+01
     -8.619 -0.3455E+00  0.8010E+01
     -8.547 -0.1055E+00  0.8002E+01
     -8.476 -0.2287E-01  0.8000E+01
     -8.404 -0.3647E-02  0.8000E+01
     -8.332 -0.4352E-03  0.8000E+01
     -8.260 -0.3926E-04  0.8000E+01
     -8.188 -0.2694E-05  0.8000E+01
     -8.117 -0.1412E-06  0.8000E+01
     -8.045 -0.5671E-08  0.8000E+01
     -7.973 -0.1747E-09  0.8000E+01
     -7.901 -0.4134E-11  0.8000E+01
     -7.830 -0.8042E-13  0.8000E+01
     -7.758  0.0000E+00  0.8000E+01
     -7.686  0.0000E+00  0.8000E+01
     -7.614  0.0000E+00  0.8000E+01
     -7.542  0.0000E+00  0.8000E+01
     -7.471  0.0000E+00  0.8000E+01
     -7.399  0.0000E+00  0.8000E+01
     -7.327  0.0000E+00  0.8000E+01
     -7.255  0.0000E+00  0.8000E+01
     -7.183  0.0000E+00  0.8000E+01
     -7.112  0.0000E+00  0.8000E+01
     -7.040  0.0000E+00  0.8000E+01
     -6.968  0.0000E+00  0.8000E+01
     -6.896  0.0000E+00  0.8000E+01
     -6.824  0.0000E+00  0.8000E+01
     -6.753  0.0000E+00  0.8000E+01
     -6.681  0.0000E+00  0.8000E+01
     -6.609  0.0000E+00  0.8000E+01
     -6.537  0.0000E+00  0.8000E+01
     -6.465  0.0000E+00  0.8000E+01
     -6.394  0.0000E+00  0.8000E+01
     -6.322  0.0000E+00  0.8000E+01
     -6.250  0.0000E+00  0.8000E+01
     -6.178  0.0000E+00  0.8000E+01
     -6.107  0.0000E+00  0.8000E+01
     -6.035  0.0000E+00  0.8000E+01
     -5.963  0.0000E+00  0.8000E+01
     -5.891  0.0000E+00  0.8000E+01
     -5.819  0.0000E+00  0.8000E+01
     -5.748  0.0000E+00  0.8000E+01
     -5.676  0.0000E+00  0.8000E+01
     -5.604  0.0000E+00  0.8000E+01
     -5.532  0.0000E+00  0.8000E+01
     -5.460  0.0000E+00  0.8000E+01
     -5.389  0.0000E+00  0.8000E+01
     -5.317  0.0000E+00  0.8000E+01
     -5.245  0.0000E+00  0.8000E+01
     -5.173  0.0000E+00  0.8000E+01
     -5.101  0.0000E+00  0.8000E+01
     -5.030  0.0000E+00  0.8000E+01
     -4.958  0.0000E+00  0.8000E+01
     -4.886  0.0000E+00  0.8000E+01
     -4.814  0.0000E+00  0.8000E+01
     -4.742  0.0000E+00  0.8000E+01
     -4.671  0.0000E+00  0.8000E+01
     -4.599  0.0000E+00  0.8000E+01
     -4.527  0.0000E+00  0.8000E+01
     -4.455  0.0000E+00  0.8000E+01
     -4.384  0.0000E+00  0.8000E+01
     -4.312  0.0000E+00  0.8000E+01
     -4.240  0.0000E+00  0.8000E+01
     -4.168  0.0000E+00  0.8000E+01
     -4.096  0.0000E+00  0.8000E+01
     -4.025  0.0000E+00  0.8000E+01
     -3.953  0.0000E+00  0.8000E+01
     -3.881  0.0000E+00  0.8000E+01
     -3.809  0.0000E+00  0.8000E+01
     -3.737  0.0000E+00  0.8000E+01
     -3.666  0.0000E+00  0.8000E+01
     -3.594  0.0000E+00  0.8000E+01
     -3.522  0.0000E+00  0.8000E+01
     -3.450  0.0000E+00  0.8000E+01
     -3.378  0.0000E+00  0.8000E+01
     -3.307  0.0000E+00  0.8000E+01
     -3.235  0.0000E+00  0.8000E+01
     -3.163  0.0000E+00  0.8000E+01
     -3.091  0.0000E+00  0.8000E+01
     -3.019  0.0000E+00  0.8000E+01
     -2.948  0.0000E+00  0.8000E+01
     -2.876  0.0000E+00  0.8000E+01
     -2.804  0.0000E+00  0.8000E+01
     -2.732  0.0000E+00  0.8000E+01
     -2.661  0.0000E+00  0.8000E+01
     -2.589  0.0000E+00  0.8000E+01
     -2.517  0.0000E+00  0.8000E+01
     -2.445  0.0000E+00  0.8000E+01
     -2.373  0.0000E+00  0.8000E+01
     -2.302  0.0000E+00  0.8000E+01
     -2.230  0.0000E+00  0.8000E+01
     -2.158  0.0000E+00  0.8000E+01
     -2.086  0.0000E+00  0.8000E+01
     -2.014  0.0000E+00  0.8000E+01
     -1.943 -0.3725E-26  0.8000E+01
     -1.871 -0.1016E-23  0.8000E+01
     -1.799 -0.2142E-21  0.8000E+01
     -1.727 -0.3482E-19  0.8000E+01
     -1.655 -0.4362E-17  0.8000E+01
     -1.584 -0.4208E-15  0.8000E+01
     -1.512 -0.3010E-13  0.8000E+01
     -1.440 -0.1729E-11  0.8000E+01
     -1.368 -0.7561E-10  0.8000E+01
     -1.296 -0.2536E-08  0.8000E+01
     -1.225 -0.6515E-07  0.8000E+01
     -1.153 -0.1279E-05  0.8000E+01
     -1.081 -0.1913E-04  0.8000E+01
     -1.009 -0.2170E-03  0.8000E+01
     -0.937 -0.1855E-02  0.8000E+01
     -0.866 -0.1182E-01  0.7999E+01
     -0.794 -0.5519E-01  0.7995E+01
     -0.722 -0.1820E+00  0.7982E+01
     -0.650 -0.3868E+00  0.7954E+01
     -0.579 -0.3470E+00  0.7929E+01
     -0.507  0.7416E+00  0.7983E+01
     -0.435  0.3466E+01  0.8231E+01
     -0.363  0.6812E+01  0.8720E+01
     -0.291  0.8307E+01  0.9317E+01
     -0.220  0.6624E+01  0.9792E+01
     -0.148  0.3249E+01  0.1003E+02
     -0.076  0.6214E+00  0.1007E+02
     -0.004 -0.3761E+00  0.1004E+02
      0.068 -0.4035E+00  0.1001E+02
      0.139 -0.2908E+00  0.9993E+01
      0.211 -0.4129E+00  0.9964E+01
      0.283 -0.7340E+00  0.9911E+01
      0.355 -0.6677E+00  0.9863E+01
      0.427  0.1110E+01  0.9943E+01
      0.498  0.5914E+01  0.1037E+02
      0.570  0.1324E+02  0.1132E+02
      0.642  0.1973E+02  0.1273E+02
      0.714  0.2114E+02  0.1425E+02
      0.786  0.1622E+02  0.1542E+02
      0.857  0.8303E+01  0.1601E+02
      0.929  0.2050E+01  0.1616E+02
      1.001 -0.6386E+00  0.1611E+02
      1.073 -0.9040E+00  0.1605E+02
      1.144 -0.4732E+00  0.1601E+02
      1.216 -0.1582E+00  0.1600E+02
      1.288 -0.3741E-01  0.1600E+02
      1.360 -0.6498E-02  0.1600E+02
      1.432 -0.8443E-03  0.1600E+02
      1.503 -0.8290E-04  0.1600E+02
      1.575 -0.6191E-05  0.1600E+02
      1.647 -0.3531E-06  0.1600E+02
      1.719 -0.1543E-07  0.1600E+02
      1.791 -0.5172E-09  0.1600E+02
      1.862 -0.1333E-10  0.1600E+02
      1.934 -0.2644E-12  0.1600E+02
      2.006 -0.4639E-14  0.1600E+02
      2.078  0.0000E+00  0.1600E+02
      2.150  0.0000E+00  0.1600E+02
      2.221  0.0000E+00  0.1600E+02
      2.293  0.0000E+00  0.1600E+02
      2.365  0.0000E+00  0.1600E+02
      2.437  0.0000E+00  0.1600E+02
      2.509  0.0000E+00  0.1600E+02
      2.580  0.0000E+00  0.1600E+02
      2.652  0.0000E+00  0.1600E+02
      2.724  0.0000E+00  0.1600E+02
      2.72421395    -18.73827648  301     -8.67956804      1.00000000
    -18.738  0.0000E+00  0.0000E+00
    -18.667  0.0000E+00  0.0000E+00
    -18.595  0.0000E+00  0.0000E+00
    -18.524  0.0000E+00  0.0000E+00
    -18.452  0.0000E+00  0.0000E+00
    -18.381 -0.3363E-27 -0.2406E-28
    -18.309 -0.1004E-24 -0.7206E-26
    -18.237 -0.2321E-22 -0.1668E-23
    -18.166 -0.4143E-20 -0.2981E-21
    -18.094 -0.5710E-18 -0.4115E-19
    -18.023 -0.6073E-16 -0.4386E-17
    -17.951 -0.4982E-14 -0.3608E-15
    -17.880 -0.3057E-12 -0.2223E-13
    -17.808 -0.1482E-10 -0.1082E-11
    -17.737 -0.5526E-09 -0.4061E-10
    -17.665 -0.1582E-07 -0.1172E-08
    -17.594 -0.3471E-06 -0.2600E-07
    -17.522 -0.5820E-05 -0.4424E-06
    -17.451 -0.7431E-04 -0.5759E-05
    -17.379 -0.7186E-03 -0.5717E-04
    -17.307 -0.5219E-02 -0.4306E-03
    -17.236 -0.2809E-01 -0.2440E-02
    -17.164 -0.1092E+00 -0.1025E-01
    -17.093 -0.2899E+00 -0.3099E-01
    -17.021 -0.4391E+00 -0.6241E-01
    -16.950  0.3072E-01 -0.6021E-01
    -16.878  0.1966E+01  0.8044E-01
    -16.807  0.5263E+01  0.4569E+00
    -16.735  0.7962E+01  0.1027E+01
    -16.664  0.7817E+01  0.1586E+01
    -16.592  0.4958E+01  0.1941E+01
    -16.520  0.1727E+01  0.2064E+01
    -16.449 -0.5879E-01  0.2060E+01
    -16.377 -0.4385E+00  0.2029E+01
    -16.306 -0.2710E+00  0.2009E+01
    -16.234 -0.9832E-01  0.2002E+01
    -16.163 -0.2454E-01  0.2000E+01
    -16.091 -0.4438E-02  0.2000E+01
    -16.020 -0.5956E-03  0.2000E+01
    -15.948 -0.6009E-04  0.2000E+01
    -15.877 -0.4594E-05  0.2000E+01
    -15.805 -0.2676E-06  0.2000E+01
    -15.734 -0.1191E-07  0.2000E+01
    -15.662 -0.4065E-09  0.2000E+01
    -15.590 -0.1065E-10  0.2000E+01
    -15.519 -0.2111E-12  0.2000E+01
    -15.447 -0.6207E-14  0.2000E+01
    -15.376  0.0000E+00  0.2000E+01
    -15.304  0.0000E+00  0.2000E+01
    -15.233  0.0000E+00  0.2000E+01
    -15.161  0.0000E+00  0.2000E+01
    -15.090  0.0000E+00  0.2000E+01
    -15.018  0.0000E+00  0.2000E+01
    -14.947  0.0000E+00  0.2000E+01
    -14.875  0.0000E+00  0.2000E+01
    -14.803  0.0000E+00  0.2000E+01
    -14.732  0.0000E+00  0.2000E+01
    -14.660  0.0000E+00  0.2000E+01
    -14.589  0.0000E+00  0.2000E+01
    -14.517  0.0000E+00  0.2000E+01
    -14.446  0.0000E+00  0.2000E+01
    -14.374  0.0000E+00  0.2000E+01
    -14.303  0.0000E+00  0.2000E+01
    -14.231  0.0000E+00  0.2000E+01
    -14.160  0.0000E+00  0.2000E+01
    -14.088  0.0000E+00  0.2000E+01
    -14.017  0.0000E+00  0.2000E+01
    -13.945  0.0000E+00  0.2000E+01
    -13.873  0.0000E+00  0.2000E+01
    -13.802  0.0000E+00  0.2000E+01
    -13.730  0.0000E+00  0.2000E+01
    -13.659  0.0000E+00  0.2000E+01
    -13.587  0.0000E+00  0.2000E+01
    -13.516  0.0000E+00  0.2000E+01
    -13.444  0.0000E+00  0.2000E+01
    -13.373  0.0000E+00  0.2000E+01
    -13.301  0.0000E+00  0.2000E+01
    -13.230  0.0000E+00  0.2000E+01
    -13.158  0.0000E+00  0.2000E+01
    -13.086  0.0000E+00  0.2000E+01
    -13.015  0.0000E+00  0.2000E+01
    -12.943  0.0000E+00  0.2000E+01
    -12.872  0.0000E+00  0.2000E+01
    -12.800  0.0000E+00  0.2000E+01
    -12.729  0.0000E+00  0.2000E+01
    -12.657  0.0000E+00  0.2000E+01
    -12.586  0.0000E+00  0.2000E+01
    -12.514  0.0000E+00  0.2000E+01
    -12.443  0.0000E+00  0.2000E+01
    -12.371  0.0000E+00  0.2000E+01
    -12.300  0.0000E+00  0.2000E+01
    -12.228  0.0000E+00  0.2000E+01
    -12.156  0.0000E+00  0.2000E+01
    -12.085  0.0000E+00  0.2000E+01
    -12.013  0.0000E+00  0.2000E+01
    -11.942  0.0000E+00  0.2000E+01
    -11.870  0.0000E+00  0.2000E+01
    -11.799  0.0000E+00  0.2000E+01
    -11.727  0.0000E+00  0.2000E+01
    -11.656  0.0000E+00  0.2000E+01
    -11.584  0.0000E+00  0.2000E+01
    -11.513  0.0000E+00  0.2000E+01
    -11.441  0.0000E+00  0.2000E+01
    -11.369  0.0000E+00  0.2000E+01
    -11.298  0.0000E+00  0.2000E+01
    -11.226 -0.4154E-28  0.2000E+01
    -11.155 -0.1360E-25  0.2000E+01
    -11.083 -0.3446E-23  0.2000E+01
    -11.012 -0.6745E-21  0.2000E+01
    -10.940 -0.1019E-18  0.2000E+01
    -10.869 -0.1189E-16  0.2000E+01
    -10.797 -0.1070E-14  0.2000E+01
    -10.726 -0.7266E-13  0.2000E+01
    -10.654 -0.3837E-11  0.2000E+01
    -10.583 -0.1571E-09  0.2000E+01
    -10.511 -0.4944E-08  0.2000E+01
    -10.439 -0.1193E-06  0.2000E+01
    -10.368 -0.2201E-05  0.2000E+01
    -10.296 -0.3099E-04  0.2000E+01
    -10.225 -0.3310E-03  0.2000E+01
    -10.153 -0.2665E-02  0.2000E+01
    -10.082 -0.1599E-01  0.1999E+01
    -10.010 -0.7009E-01  0.1994E+01
     -9.939 -0.2153E+00  0.1978E+01
     -9.867 -0.4149E+00  0.1949E+01
     -9.796 -0.2661E+00  0.1929E+01
     -9.724  0.1069E+01  0.2006E+01
     -9.652  0.3979E+01  0.2291E+01
     -9.581  0.7088E+01  0.2798E+01
     -9.509  0.7901E+01  0.3363E+01
     -9.438  0.5750E+01  0.3774E+01
     -9.366  0.3168E+01  0.4001E+01
     -9.295  0.3151E+01  0.4226E+01
     -9.223  0.5602E+01  0.4627E+01
     -9.152  0.7500E+01  0.5164E+01
     -9.080  0.6795E+01  0.5650E+01
     -9.009  0.5083E+01  0.6013E+01
     -8.937  0.5211E+01  0.6386E+01
     -8.866  0.7082E+01  0.6893E+01
     -8.794  0.7806E+01  0.7451E+01
     -8.722  0.5785E+01  0.7865E+01
     -8.651  0.2541E+01  0.8047E+01
     -8.579  0.2900E+00  0.8068E+01
     -8.508 -0.4225E+00  0.8038E+01
     -8.436 -0.3372E+00  0.8013E+01
     -8.365 -0.1400E+00  0.8003E+01
     -8.293 -0.3887E-01  0.8001E+01
     -8.222 -0.7730E-02  0.8000E+01
     -8.150 -0.1134E-02  0.8000E+01
     -8.079 -0.1248E-03  0.8000E+01
     -8.007 -0.1037E-04  0.8000E+01
     -7.935 -0.6563E-06  0.8000E+01
     -7.864 -0.3171E-07  0.8000E+01
     -7.792 -0.1173E-08  0.8000E+01
     -7.721 -0.3333E-10  0.8000E+01
     -7.649 -0.7263E-12  0.8000E+01
     -7.578 -0.1241E-13  0.8000E+01
     -7.506  0.0000E+00  0.8000E+01
     -7.435  0.0000E+00  0.8000E+01
     -7.363  0.0000E+00  0.8000E+01
     -7.292  0.0000E+00  0.8000E+01
     -7.220  0.0000E+00  0.8000E+01
     -7.149  0.0000E+00  0.8000E+01
     -7.077  0.0000E+00  0.8000E+01
     -7.005  0.0000E+00  0.8000E+01
     -6.934  0.0000E+00  0.8000E+01
     -6.862  0.0000E+00  0.8000E+01
     -6.791  0.0000E+00  0.8000E+01
     -6.719  0.0000E+00  0.8000E+01
     -6.648  0.0000E+00  0.8000E+01
     -6.576  0.0000E+00  0.8000E+01
     -6.505  0.0000E+00  0.8000E+01
     -6.433  0.0000E+00  0.8000E+01
     -6.362  0.0000E+00  0.8000E+01
     -6.290  0.0000E+00  0.8000E+01
     -6.218  0.0000E+00  0.8000E+01
     -6.147  0.0000E+00  0.8000E+01
     -6.075  0.0000E+00  0.8000E+01
     -6.004  0.0000E+00  0.8000E+01
     -5.932  0.0000E+00  0.8000E+01
     -5.861  0.0000E+00  0.8000E+01
     -5.789  0.0000E+00  0.8000E+01
     -5.718  0.0000E+00  0.8000E+01
     -5.646  0.0000E+00  0.8000E+01
     -5.575  0.0000E+00  0.8000E+01
     -5.503  0.0000E+00  0.8000E+01
     -5.432  0.0000E+00  0.8000E+01
     -5.360  0.0000E+00  0.8000E+01
     -5.288  0.0000E+00  0.8000E+01
     -5.217  0.0000E+00  0.8000E+01
     -5.145  0.0000E+00  0.8000E+01
     -5.074  0.0000E+00  0.8000E+01
     -5.002  0.0000E+00  0.8000E+01
     -4.931  0.0000E+00  0.8000E+01
     -4.859  0.0000E+00  0.8000E+01
     -4.788  0.0000E+00  0.8000E+01
     -4.716  0.0000E+00  0.8000E+01
     -4.645  0.0000E+00  0.8000E+01
     -4.573  0.0000E+00  0.8000E+01
     -4.501  0.0000E+00  0.8000E+01
     -4.430  0.0000E+00  0.8000E+01
     -4.358  0.0000E+00  0.8000E+01
     -4.287  0.0000E+00  0.8000E+01
     -4.215  0.0000E+00  0.8000E+01
     -4.144  0.0000E+00  0.8000E+01
     -4.072  0.0000E+00  0.8000E+01
     -4.001  0.0000E+00  0.8000E+01
     -3.929  0.0000E+00  0.8000E+01
     -3.858  0.0000E+00  0.8000E+01
     -3.786  0.0000E+00  0.8000E+01
     -3.715  0.0000E+00  0.8000E+01
     -3.643  0.0000E+00  0.8000E+01
     -3.571  0.0000E+00  0.8000E+01
     -3.500  0.0000E+00  0.8000E+01
     -3.428  0.0000E+00  0.8000E+01
     -3.357  0.0000E+00  0.8000E+01
     -3.285  0.0000E+00  0.8000E+01
     -3.214  0.0000E+00  0.8000E+01
     -3.142  0.0000E+00  0.8000E+01
     -3.071  0.0000E+00  0.8000E+01