    5    5    1    1
  0.1931000E+03  0.1009056E-08  0.9816043E-09  0.9753506E-09  0.2000000E-14
   50.000000000000000     
  CAR 
 unknown system                          
      8      4      8

  0.2500000E+00  0.2500000E+00  0.2500000E+00  0.2500000E+00
    1      -16.744438   1.000000
    2       -9.383129   1.000000
    3       -9.245854   1.000016
    4       -8.754556   1.000050
    5       -0.300033   0.000000
    6        0.583977   0.000000
    7        0.667405   0.000000
    8        0.724832   0.000000

 -0.2500000E+00  0.2500000E+00  0.2500000E+00  0.2500000E+00
    1      -16.744426   1.000000
    2       -9.383095   1.000000
    3       -9.245614   1.000016
    4       -8.754550   1.000043
    5       -0.306411   0.000000
    6        0.589508   0.000000
    7        0.688630   0.000000
    8        0.740731   0.000000

  0.2500000E+00 -0.2500000E+00  0.2500000E+00  0.2500000E+00
    1      -16.744443   1.000000
    2       -9.383122   1.000000
    3       -9.245726   1.000016
    4       -8.754456   0.999940
    5       -0.302093   0.000000
    6        0.583358   0.000000
    7        0.684998   0.000000
    8        0.724221   0.000000

 -0.2500000E+00 -0.2500000E+00  0.2500000E+00  0.2500000E+00
    1      -16.744381   1.000000
    2       -9.383165   1.000000
    3       -9.245886   1.000016
    4       -8.754423   0.999903
    5       -0.296486   0.000000
    6        0.573278   0.000000
    7        0.665770   0.000000
    8        0.715593   0.000000
