       N       E                     dE             d eps       ncg     rms          rms(c)
DAV:   1     0.991031544254E+01    0.99103E+01   -0.19979E+03   104   0.406E+02
DAV:   2    -0.233552195460E+02   -0.33266E+02   -0.29920E+02    72   0.104E+02
DAV:   3    -0.275031166118E+02   -0.41479E+01   -0.41518E+01    80   0.391E+01
DAV:   4    -0.276767824450E+02   -0.17367E+00   -0.17300E+00   128   0.789E+00
DAV:   5    -0.276768508455E+02   -0.68401E-04   -0.68399E-04    96   0.166E-01    0.892E+00
RMM:   6    -0.246486876013E+02    0.30282E+01   -0.56370E+00    64   0.146E+01    0.435E+00
RMM:   7    -0.241394754358E+02    0.50921E+00   -0.12951E+00    64   0.661E+00    0.237E+00
RMM:   8    -0.240255879433E+02    0.11389E+00   -0.10108E-01    64   0.208E+00    0.125E+00
RMM:   9    -0.239807707435E+02    0.44817E-01   -0.51651E-02    64   0.168E+00    0.312E-01
RMM:  10    -0.239785370239E+02    0.22337E-02   -0.35180E-03    64   0.397E-01    0.195E-01
RMM:  11    -0.239777453875E+02    0.79164E-03   -0.13063E-02    64   0.604E-01    0.187E-01
RMM:  12    -0.239730663743E+02    0.46790E-02   -0.24599E-03    64   0.361E-01    0.796E-02
RMM:  13    -0.239777148261E+02   -0.46485E-02   -0.17393E-03    64   0.283E-01    0.124E-01
RMM:  14    -0.239826350127E+02   -0.49202E-02   -0.11355E-03    64   0.200E-01    0.118E-01
RMM:  15    -0.239838378470E+02   -0.12028E-02   -0.90395E-04    64   0.186E-01    0.683E-02
RMM:  16    -0.239853858595E+02   -0.15480E-02   -0.47856E-04    64   0.131E-01    0.103E-01
RMM:  17    -0.239857838898E+02   -0.39803E-03   -0.23478E-04    64   0.966E-02    0.253E-02
RMM:  18    -0.239859496107E+02   -0.16572E-03   -0.62976E-05    64   0.496E-02    0.499E-03
RMM:  19    -0.239860550090E+02   -0.10540E-03   -0.12321E-05    64   0.234E-02    0.961E-03
RMM:  20    -0.239860686831E+02   -0.13674E-04   -0.96744E-06    64   0.182E-02    0.773E-04
RMM:  21    -0.239860757409E+02   -0.70578E-05   -0.71996E-07    48   0.650E-03    0.144E-03
RMM:  22    -0.239860775337E+02   -0.17928E-05   -0.16340E-07    48   0.306E-03    0.663E-04
RMM:  23    -0.239860780395E+02   -0.50575E-06    0.00000E+00    32   0.144E-03
    1 T=    72. E= -.23948920E+02 F= -.23986078E+02 E0= -.23998369E+02  EK= 0.37143E-01 SP= 0.00E+00 SK= 0.15E-04
       N       E                     dE             d eps       ncg     rms          rms(c)
DAV:   1    -0.239960010570E+02   -0.99235E-02   -0.23025E+00    64   0.143E+01    0.778E-01
RMM:   2    -0.239843010928E+02    0.11700E-01   -0.12476E-01    64   0.218E+00    0.408E-01
RMM:   3    -0.239832917844E+02    0.10093E-02   -0.35014E-02    64   0.109E+00    0.284E-01
RMM:   4    -0.239831854123E+02    0.10637E-03   -0.19686E-03    64   0.300E-01    0.984E-02
RMM:   5    -0.239837899033E+02   -0.60449E-03   -0.24224E-03    64   0.279E-01    0.447E-02
RMM:   6    -0.239839029110E+02   -0.11301E-03   -0.30744E-04    64   0.105E-01    0.228E-02
RMM:   7    -0.239840381687E+02   -0.13526E-03   -0.57498E-05    64   0.461E-02    0.260E-02
RMM:   8    -0.239841042723E+02   -0.66104E-04   -0.23505E-05    64   0.304E-02    0.113E-02
RMM:   9    -0.239841358109E+02   -0.31539E-04   -0.16207E-05    64   0.240E-02    0.527E-03
RMM:  10    -0.239841632552E+02   -0.27444E-04   -0.29017E-05    64   0.321E-02    0.105E-02
RMM:  11    -0.239841695792E+02   -0.63240E-05   -0.95944E-06    64   0.178E-02    0.301E-03
RMM:  12    -0.239841743546E+02   -0.47754E-05   -0.45337E-06    60   0.136E-02    0.187E-03
RMM:  13    -0.239841760615E+02   -0.17070E-05   -0.25053E-07    48   0.400E-03    0.151E-03
RMM:  14    -0.239841767795E+02   -0.71801E-06   -0.12992E-07    48   0.223E-03
    2 T=   136. E= -.23912894E+02 F= -.23984177E+02 E0= -.23992184E+02  EK= 0.70459E-01 SP= 0.28E-03 SK= 0.55E-03
       N       E                     dE             d eps       ncg     rms          rms(c)
DAV:   1    -0.239676281803E+02    0.16548E-01   -0.45324E+00    64   0.209E+01    0.797E-01
RMM:   2    -0.240510274159E+02   -0.83399E-01   -0.49198E-01    64   0.464E+00    0.166E+00
RMM:   3    -0.240022353515E+02    0.48792E-01   -0.74929E-02    64   0.185E+00    0.107E+00
RMM:   4    -0.239771135589E+02    0.25122E-01   -0.23272E-01    64   0.279E+00    0.480E-01
RMM:   5    -0.239742636680E+02    0.28499E-02   -0.87562E-03    64   0.710E-01    0.349E-01
RMM:   6    -0.239716359584E+02    0.26277E-02   -0.53868E-03    64   0.443E-01    0.198E-01
RMM:   7    -0.239715680613E+02    0.67897E-04   -0.10410E-04    64   0.856E-02    0.188E-01
RMM:   8    -0.239709044326E+02    0.66363E-03   -0.66576E-04    64   0.163E-01    0.129E-01
RMM:   9    -0.239706337601E+02    0.27067E-03   -0.30675E-04    64   0.108E-01    0.965E-02
RMM:  10    -0.239704929624E+02    0.14080E-03   -0.16454E-04    64   0.815E-02    0.699E-02
RMM:  11    -0.239703786352E+02    0.11433E-03   -0.26929E-04    64   0.105E-01    0.333E-02
RMM:  12    -0.239703643979E+02    0.14237E-04   -0.11632E-04    64   0.674E-02    0.131E-02
RMM:  13    -0.239703776720E+02   -0.13274E-04   -0.17375E-05    64   0.290E-02    0.920E-03
RMM:  14    -0.239703889491E+02   -0.11277E-04   -0.10736E-05    64   0.195E-02    0.580E-03
RMM:  15    -0.239703917211E+02   -0.27720E-05   -0.10558E-06    48   0.752E-03    0.443E-03
RMM:  16    -0.239703940027E+02   -0.22816E-05   -0.38108E-06    60   0.124E-02    0.194E-03
RMM:  17    -0.239703945753E+02   -0.57260E-06   -0.39401E-07    48   0.468E-03
    3 T=   106. E= -.23911487E+02 F= -.23970395E+02 E0= -.23974570E+02  EK= 0.54876E-01 SP= 0.17E-02 SK= 0.24E-02
       N       E                     dE             d eps       ncg     rms          rms(c)
DAV:   1    -0.239899322089E+02   -0.19538E-01   -0.10370E+00    64   0.999E+00    0.401E-01
RMM:   2    -0.239939542818E+02   -0.40221E-02   -0.36468E-02    64   0.151E+00    0.470E-01
RMM:   3    -0.239964968653E+02   -0.25426E-02   -0.24679E-02    64   0.984E-01    0.436E-01
RMM:   4    -0.239907026307E+02    0.57942E-02   -0.11451E-02    64   0.624E-01    0.176E-01
RMM:   5    -0.239901301884E+02    0.57244E-03   -0.18823E-03    64   0.287E-01    0.105E-01
RMM:   6    -0.239898530854E+02    0.27710E-03   -0.67143E-04    64   0.171E-01    0.535E-02
RMM:   7    -0.239898381084E+02    0.14977E-04   -0.94474E-05    64   0.686E-02    0.404E-02
RMM:   8    -0.239898239236E+02    0.14185E-04   -0.59064E-05    64   0.521E-02    0.229E-02
RMM:   9    -0.239898222781E+02    0.16456E-05   -0.38491E-05    64   0.389E-02    0.129E-02
RMM:  10    -0.239898233544E+02   -0.10763E-05   -0.60398E-06    64   0.172E-02    0.814E-03
RMM:  11    -0.239898243217E+02   -0.96729E-06   -0.71126E-06    64   0.169E-02
    4 T=   117. E= -.23920368E+02 F= -.23989824E+02 E0= -.23993711E+02  EK= 0.60671E-01 SP= 0.37E-02 SK= 0.50E-02
       N       E                     dE             d eps       ncg     rms          rms(c)
DAV:   1    -0.239924980516E+02   -0.26747E-02   -0.74510E-01    64   0.856E+00    0.428E-01
RMM:   2    -0.240035088943E+02   -0.11011E-01   -0.11110E-01    64   0.230E+00    0.662E-01
RMM:   3    -0.239959751985E+02    0.75337E-02   -0.10834E-02    64   0.733E-01    0.356E-01
RMM:   4    -0.239951087657E+02    0.86643E-03   -0.13413E-02    64   0.715E-01    0.231E-01
RMM:   5    -0.239931542187E+02    0.19545E-02   -0.42748E-03    64   0.432E-01    0.688E-02
RMM:   6    -0.239930434703E+02    0.11075E-03   -0.95287E-04    64   0.200E-01    0.325E-02
RMM:   7    -0.239930661236E+02   -0.22653E-04   -0.16562E-04    64   0.852E-02    0.929E-03
RMM:   8    -0.239930900513E+02   -0.23928E-04   -0.36743E-05    64   0.415E-02    0.418E-03
RMM:   9    -0.239931063379E+02   -0.16287E-04   -0.94424E-06    64   0.203E-02    0.431E-03
RMM:  10    -0.239931111696E+02   -0.48316E-05   -0.25038E-06    52   0.105E-02    0.129E-03
RMM:  11    -0.239931132815E+02   -0.21120E-05   -0.56129E-07    48   0.648E-03    0.212E-03
RMM:  12    -0.239931146754E+02   -0.13939E-05   -0.27029E-07    48   0.376E-03    0.816E-04
RMM:  13    -0.239931151875E+02   -0.51214E-06   -0.22378E-07    48   0.312E-03
    5 T=   197. E= -.23872590E+02 F= -.23993115E+02 E0= -.23996983E+02  EK= 0.10163E+00 SP= 0.67E-02 SK= 0.12E-01
       N       E                     dE             d eps       ncg     rms          rms(c)
DAV:   1    -0.239362430379E+02    0.56872E-01   -0.27877E+00    64   0.165E+01    0.803E-01
RMM:   2    -0.242452506057E+02   -0.30901E+00   -0.10042E+00    64   0.652E+00    0.268E+00
RMM:   3    -0.239632244476E+02    0.28203E+00   -0.66784E-01    64   0.509E+00    0.970E-01
RMM:   4    -0.239336321646E+02    0.29592E-01   -0.84139E-02    64   0.182E+00    0.511E-01
RMM:   5    -0.239322312021E+02    0.14010E-02   -0.52718E-02    64   0.139E+00    0.133E-01
RMM:   6    -0.239346245042E+02   -0.23933E-02   -0.45874E-03    64   0.475E-01    0.570E-02
RMM:   7    -0.239362741083E+02   -0.16496E-02   -0.57925E-03    64   0.454E-01    0.142E-01
RMM:   8    -0.239359130185E+02    0.36109E-03   -0.14260E-03    64   0.228E-01    0.431E-02
RMM:   9    -0.239360479771E+02   -0.13496E-03   -0.90629E-04    64   0.189E-01    0.189E-02
RMM:  10    -0.239360580082E+02   -0.10031E-04   -0.52325E-05    64   0.510E-02    0.447E-03
RMM:  11    -0.239361037221E+02   -0.45714E-04   -0.13842E-05    64   0.221E-02    0.670E-03
RMM:  12    -0.239361134030E+02   -0.96809E-05   -0.14575E-05    64   0.220E-02    0.286E-03
RMM:  13    -0.239361163721E+02   -0.29691E-05   -0.14537E-06    48   0.832E-03    0.764E-04
RMM:  14    -0.239361191303E+02   -0.27582E-05   -0.24400E-07    48   0.364E-03    0.241E-04
RMM:  15    -0.239361200833E+02   -0.95294E-06   -0.23271E-07    48   0.291E-03
    6 T=   192. E= -.23798908E+02 F= -.23936120E+02 E0= -.23940440E+02  EK= 0.99190E-01 SP= 0.11E-01 SK= 0.27E-01
       N       E                     dE             d eps       ncg     rms          rms(c)
DAV:   1    -0.240374002370E+02   -0.10128E+00   -0.34102E+00    64   0.176E+01    0.120E+00
RMM:   2    -0.240148036353E+02    0.22597E-01   -0.12696E-01    64   0.263E+00    0.568E-01
RMM:   3    -0.240453933019E+02   -0.30590E-01   -0.10186E-01    64   0.193E+00    0.925E-01
RMM:   4    -0.240197774340E+02    0.25616E-01   -0.80547E-02    64   0.168E+00    0.398E-01
RMM:   5    -0.240166870030E+02    0.30904E-02   -0.37422E-03    64   0.435E-01    0.134E-01
RMM:   6    -0.240180602347E+02   -0.13732E-02   -0.82124E-04    64   0.188E-01    0.164E-01
RMM:   7    -0.240180218300E+02    0.38405E-04   -0.21903E-04    64   0.936E-02    0.126E-01
RMM:   8    -0.240177506939E+02    0.27114E-03   -0.33516E-03    64   0.338E-01    0.504E-02
RMM:   9    -0.240177615936E+02   -0.10900E-04   -0.17181E-04    64   0.857E-02    0.364E-02
RMM:  10    -0.240178257092E+02   -0.64116E-04   -0.49725E-05    64   0.440E-02    0.232E-02
RMM:  11    -0.240178835662E+02   -0.57857E-04   -0.32659E-05    64   0.349E-02    0.134E-02
RMM:  12    -0.240179164076E+02   -0.32841E-04   -0.67589E-05    64   0.478E-02    0.123E-02
RMM:  13    -0.240179249975E+02   -0.85899E-05   -0.36605E-06    60   0.130E-02    0.527E-03
RMM:  14    -0.240179323976E+02   -0.74001E-05   -0.50597E-06    60   0.130E-02    0.191E-03
RMM:  15    -0.240179355854E+02   -0.31878E-05   -0.81465E-07    48   0.659E-03    0.158E-03
RMM:  16    -0.240179381336E+02   -0.25482E-05   -0.55905E-07    48   0.481E-03    0.591E-04
RMM:  17    -0.240179386042E+02   -0.47059E-06   -0.66155E-08    44   0.210E-03
    7 T=   285. E= -.23797224E+02 F= -.24017939E+02 E0= -.24026984E+02  EK= 0.14750E+00 SP= 0.18E-01 SK= 0.55E-01
       N       E                     dE             d eps       ncg     rms          rms(c)
DAV:   1    -0.239894460964E+02    0.28492E-01   -0.22345E+00    64   0.142E+01    0.966E-01
RMM:   2    -0.240250838458E+02   -0.35638E-01   -0.25181E-01    64   0.336E+00    0.119E+00
RMM:   3    -0.239958924416E+02    0.29191E-01   -0.19183E-02    64   0.897E-01    0.882E-01
RMM:   4    -0.239781285064E+02    0.17764E-01   -0.11989E-01    64   0.203E+00    0.282E-01
RMM:   5    -0.239799798083E+02   -0.18513E-02   -0.10778E-02    64   0.633E-01    0.321E-01
RMM:   6    -0.239784985901E+02    0.14812E-02   -0.15349E-03    64   0.254E-01    0.242E-01
RMM:   7    -0.239774722132E+02    0.10264E-02   -0.50242E-03    64   0.411E-01    0.134E-01
RMM:   8    -0.239773862643E+02    0.85949E-04   -0.24226E-04    64   0.115E-01    0.121E-01
RMM:   9    -0.239772037629E+02    0.18250E-03   -0.19861E-04    64   0.907E-02    0.105E-01
RMM:  10    -0.239770261411E+02    0.17762E-03   -0.10031E-04    64   0.633E-02    0.942E-02
RMM:  11    -0.239768861567E+02    0.13998E-03   -0.87890E-05    64   0.594E-02    0.870E-02
RMM:  12    -0.239765511196E+02    0.33504E-03   -0.67796E-04    64   0.162E-01    0.660E-02
RMM:  13    -0.239763527976E+02    0.19832E-03   -0.73818E-04    64   0.170E-01    0.346E-02
RMM:  14    -0.239763532499E+02   -0.45234E-06   -0.82977E-05    64   0.623E-02    0.227E-02
RMM:  15    -0.239763891322E+02   -0.35882E-04   -0.52814E-05    64   0.486E-02    0.272E-02
RMM:  16    -0.239763865464E+02    0.25858E-05   -0.11579E-04    64   0.675E-02    0.117E-02
RMM:  17    -0.239763923265E+02   -0.57800E-05   -0.37268E-06    60   0.170E-02    0.745E-03
RMM:  18    -0.239764202177E+02   -0.27891E-04   -0.33963E-06    56   0.124E-02    0.442E-03
RMM:  19    -0.239764304072E+02   -0.10190E-04   -0.92111E-07    48   0.711E-03    0.338E-03
RMM:  20    -0.239764331759E+02   -0.27686E-05   -0.14947E-06    48   0.840E-03    0.187E-03
RMM:  21    -0.239764344334E+02   -0.12575E-05   -0.62362E-07    48   0.623E-03    0.242E-03
RMM:  22    -0.239764352325E+02   -0.79908E-06   -0.65404E-07    48   0.510E-03
    8 T=   206. E= -.23748673E+02 F= -.23976435E+02 E0= -.23984829E+02  EK= 0.10654E+00 SP= 0.28E-01 SK= 0.94E-01
       N       E                     dE             d eps       ncg     rms          rms(c)
DAV:   1    -0.240687699752E+02   -0.92336E-01   -0.26981E+00    64   0.156E+01    0.922E-01
RMM:   2    -0.240808102755E+02   -0.12040E-01   -0.35280E-01    64   0.374E+00    0.102E+00
RMM:   3    -0.241317097591E+02   -0.50899E-01   -0.61310E-01    64   0.486E+00    0.163E+00
RMM:   4    -0.240692153386E+02    0.62494E-01   -0.54218E-02    64   0.159E+00    0.826E-01
RMM:   5    -0.240536552908E+02    0.15560E-01   -0.26365E-02    64   0.104E+00    0.423E-01
RMM:   6    -0.240525095355E+02    0.11458E-02   -0.11637E-02    64   0.677E-01    0.330E-01
RMM:   7    -0.240500604740E+02    0.24491E-02   -0.10418E-02    64   0.608E-01    0.128E-01
RMM:   8    -0.240501594196E+02   -0.98946E-04   -0.15651E-03    64   0.274E-01    0.894E-02
RMM:   9    -0.240502486231E+02   -0.89204E-04   -0.40805E-04    64   0.145E-01    0.257E-02
RMM:  10    -0.240502801914E+02   -0.31568E-04   -0.50687E-05    64   0.484E-02    0.140E-02
RMM:  11    -0.240502965942E+02   -0.16403E-04   -0.15372E-05    64   0.263E-02    0.670E-03
RMM:  12    -0.240503164831E+02   -0.19889E-04   -0.19648E-05    64   0.277E-02    0.519E-03
RMM:  13    -0.240503264681E+02   -0.99850E-05   -0.78983E-06    64   0.174E-02    0.472E-03
RMM:  14    -0.240503320875E+02   -0.56194E-05   -0.24318E-06    56   0.109E-02    0.326E-03
RMM:  15    -0.240503330058E+02   -0.91832E-06   -0.25442E-06    56   0.103E-02
    9 T=   223. E= -.23758596E+02 F= -.24050333E+02 E0= -.24055033E+02  EK= 0.11521E+00 SP= 0.39E-01 SK= 0.14E+00
       N       E                     dE             d eps       ncg     rms          rms(c)
DAV:   1    -0.240163157145E+02    0.34016E-01   -0.57257E-01    64   0.804E+00    0.555E-01
RMM:   2    -0.240541939859E+02   -0.37878E-01   -0.25961E-01    64   0.348E+00    0.111E+00
RMM:   3    -0.240206448095E+02    0.33549E-01   -0.18624E-01    64   0.288E+00    0.580E-01
RMM:   4    -0.240130887396E+02    0.75561E-02   -0.14800E-02    64   0.777E-01    0.224E-01
RMM:   5    -0.240129479129E+02    0.14083E-03   -0.72627E-03    64   0.521E-01    0.181E-01
RMM:   6    -0.240126159299E+02    0.33198E-03   -0.12272E-03    64   0.221E-01    0.124E-01
RMM:   7    -0.240124908786E+02    0.12505E-03   -0.35718E-04    64   0.135E-01    0.651E-02
RMM:   8    -0.240124890729E+02    0.18057E-05   -0.49631E-04    64   0.148E-01    0.188E-02
RMM:   9    -0.240125178398E+02   -0.28767E-04   -0.29707E-05    64   0.392E-02    0.999E-03
RMM:  10    -0.240125468793E+02   -0.29039E-04   -0.16851E-05    64   0.279E-02    0.537E-03
RMM:  11    -0.240125544139E+02   -0.75346E-05   -0.38912E-06    60   0.130E-02    0.204E-03
RMM:  12    -0.240125580841E+02   -0.36702E-05   -0.56803E-07    48   0.587E-03    0.155E-03
RMM:  13    -0.240125594246E+02   -0.13406E-05   -0.61365E-07    48   0.533E-03    0.987E-04
RMM:  14    -0.240125599709E+02   -0.54629E-06   -0.91708E-08    48   0.242E-03
   10 T=   117. E= -.23728129E+02 F= -.24012560E+02 E0= -.24016688E+02  EK= 0.60239E-01 SP= 0.53E-01 SK= 0.17E+00
