 vasp.5.4.4.18Apr17-6-g9f103f2a35 (build Jul 12 2018 13:43:46) complex           
 executed on             LinuxGNU date 2019.06.22  02:17:36
 running on    1 total cores
 distrk:  each k-point on    1 cores,    1 groups
 distr:  one band on NCORES_PER_BAND=   1 cores,    1 groups


--------------------------------------------------------------------------------------------------------


 INCAR:
 POTCAR:    PAW_PBE H 15Jun2001                   
 POTCAR:    PAW_PBE C 08Apr2002                   
 POTCAR:    PAW_PBE H 15Jun2001                   
   VRHFIN =H: ultrasoft test                                                    
   LEXCH  = PE                                                                  
   EATOM  =    12.4884 eV,    0.9179 Ry                                         
                                                                                
   TITEL  = PAW_PBE H 15Jun2001                                                 
   LULTRA =        F    use ultrasoft PP ?                                      
   IUNSCR =        0    unscreen: 0-lin 1-nonlin 2-no                           
   RPACOR =    0.000    partial core radius                                     
   POMASS =    1.000; ZVAL   =    1.000    mass and valenz                      
   RCORE  =    1.100    outmost cutoff radius                                   
   RWIGS  =    0.700; RWIGS  =    0.370    wigner-seitz radius (au A)           
   ENMAX  =  250.000; ENMIN  =  200.000 eV                                      
   RCLOC  =    0.701    cutoff for local pot                                    
   LCOR   =        T    correct aug charges                                     
   LPAW   =        T    paw PP                                                  
   EAUG   =  400.000                                                            
   RMAX   =    1.123    core radius for proj-oper                               
   RAUG   =    1.200    factor for augmentation sphere                          
   RDEP   =    1.112    radius for radial grids                                 
   RDEPT  =    0.926    core radius for aug-charge                              
                                                                                
   Atomic configuration                                                         
    2 entries                                                                   
     n  l   j            E        occ.                                          
     1  0  0.50        -6.4927   1.0000                                         
     2  1  0.50        -3.4015   0.0000                                         
   Description                                                                  
     l       E           TYP  RCUT    TYP  RCUT                                 
     0     -6.4927494     23  1.100                                             
     0      6.8029130     23  1.100                                             
     1     -4.0817478     23  1.100                                             
  local pseudopotential read in
  atomic valenz-charges read in
  non local Contribution for L=           0  read in
    real space projection operators read in
  non local Contribution for L=           0  read in
    real space projection operators read in
  non local Contribution for L=           1  read in
    real space projection operators read in
    PAW grid and wavefunctions read in

   number of l-projection  operators is LMAX  =           3
   number of lm-projection operators is LMMAX =           5

 POTCAR:    PAW_PBE C 08Apr2002                   
   VRHFIN =C: s2p2                                                              
   LEXCH  = PE                                                                  
   EATOM  =   147.1560 eV,   10.8157 Ry                                         
                                                                                
   TITEL  = PAW_PBE C 08Apr2002                                                 
   LULTRA =        F    use ultrasoft PP ?                                      
   IUNSCR =        1    unscreen: 0-lin 1-nonlin 2-no                           
   RPACOR =    1.200    partial core radius                                     
   POMASS =   12.011; ZVAL   =    4.000    mass and valenz                      
   RCORE  =    1.500    outmost cutoff radius                                   
   RWIGS  =    1.630; RWIGS  =    0.863    wigner-seitz radius (au A)           
   ENMAX  =  400.000; ENMIN  =  300.000 eV                                      
   ICORE  =        2    local potential                                         
   LCOR   =        T    correct aug charges                                     
   LPAW   =        T    paw PP                                                  
   EAUG   =  644.873                                                            
   DEXC   =    0.000                                                            
   RMAX   =    1.529    core radius for proj-oper                               
   RAUG   =    1.300    factor for augmentation sphere                          
   RDEP   =    1.501    radius for radial grids                                 
   RDEPT  =    1.300    core radius for aug-charge                              
                                                                                
   Atomic configuration                                                         
    4 entries                                                                   
     n  l   j            E        occ.                                          
     1  0  0.50      -273.3789   2.0000                                         
     2  0  0.50       -13.7508   2.0000                                         
     2  1  0.50        -5.2854   2.0000                                         
     3  2  1.50        -5.4423   0.0000                                         
   Description                                                                  
     l       E           TYP  RCUT    TYP  RCUT                                 
     0    -13.7508458     23  1.200                                             
     0     -8.2022199     23  1.200                                             
     1     -5.2854383     23  1.500                                             
     1     34.0145650     23  1.500                                             
     2     -5.4423304      7  1.500                                             
  local pseudopotential read in
  partial core-charges read in
  partial kinetic energy density read in
  atomic valenz-charges read in
  non local Contribution for L=           0  read in
    real space projection operators read in
  non local Contribution for L=           0  read in
    real space projection operators read in
  non local Contribution for L=           1  read in
    real space projection operators read in
  non local Contribution for L=           1  read in
    real space projection operators read in
    PAW grid and wavefunctions read in

   number of l-projection  operators is LMAX  =           4
   number of lm-projection operators is LMMAX =           8


 ----------------------------------------------------------------------------- 
|                                                                             |
|  ADVICE TO THIS USER RUNNING 'VASP/VAMP'   (HEAR YOUR MASTER'S VOICE ...):  |
|                                                                             |
|      You have a (more or less) 'small supercell' and for smaller cells      |
|      it is recommended  to use the reciprocal-space projection scheme!      |
|      The real space optimization is not  efficient for small cells and it   |
|      is also less accurate ...                                              |
|      Therefore set LREAL=.FALSE. in the  INCAR file                         |
|                                                                             |
 ----------------------------------------------------------------------------- 


 ----------------------------------------------------------------------------- 
|                                                                             |
|           W    W    AA    RRRRR   N    N  II  N    N   GGGG   !!!           |
|           W    W   A  A   R    R  NN   N  II  NN   N  G    G  !!!           |
|           W    W  A    A  R    R  N N  N  II  N N  N  G       !!!           |
|           W WW W  AAAAAA  RRRRR   N  N N  II  N  N N  G  GGG   !            |
|           WW  WW  A    A  R   R   N   NN  II  N   NN  G    G                |
|           W    W  A    A  R    R  N    N  II  N    N   GGGG   !!!           |
|                                                                             |
|     The real-space-projection scheme for the treatment of the nonlocal      |
|     pseudopotentials has been switched on -- but on file POTCAR I have      |
|     not found any entries signalling me that you have ever performed a      |
|     real-space optimization of all nonlocal projectors! BE WARNED that      |
|     a calculation using the real-space-projection scheme together with      |
|     nonlocal projectors which were not real-space-optimized (according      |
|     to the plane-wave-cutoff used in this calculation) might give more      |
|     or less inaccurate results                                              |
|     I hope you know what you are doing                                      |
|                                                                             |
 ----------------------------------------------------------------------------- 

  PAW_PBE H 15Jun2001                   :
 energy of atom  1       EATOM=  -12.4884
 kinetic energy error for atom=    0.0098 (will be added to EATOM!!)
  PAW_PBE C 08Apr2002                   :
 energy of atom  2       EATOM= -147.1560
 kinetic energy error for atom=    0.0288 (will be added to EATOM!!)


 POSCAR:  H  C                                   
  positions in cartesian coordinates
  No initial velocities read in
 exchange correlation table for  LEXCH =        8
   RHO(1)=    0.500       N(1)  =     2000
   RHO(2)=  100.500       N(2)  =     4000



--------------------------------------------------------------------------------------------------------


 ion  position               nearest neighbor table
   1  0.538  0.407  0.361-   5 1.08
   2  0.395  0.480  0.439-   5 1.11
   3  0.553  0.566  0.443-   5 1.08
   4  0.529  0.416  0.540-   5 1.08
   5  0.503  0.467  0.445-   4 1.08   3 1.08   1 1.08   2 1.11


IMPORTANT INFORMATION: All symmetrisations will be switched off!
NOSYMM: (Re-)initialisation of all symmetry stuff for point group C_1.




Automatic generation of k-mesh.
 generate k-points for:    2    2    2
Space group operators:
 irot       det(A)        alpha          n_x          n_y          n_z        tau_x        tau_y        tau_z
    1     1.000000     0.000000     1.000000     0.000000     0.000000     0.000000     0.000000     0.000000
 
 Subroutine IBZKPT returns following result:
 ===========================================
 
 Found      4 irreducible k-points:
 
 Following reciprocal coordinates:
            Coordinates               Weight
  0.250000  0.250000  0.250000      2.000000
 -0.250000  0.250000  0.250000      2.000000
  0.250000 -0.250000  0.250000      2.000000
 -0.250000 -0.250000  0.250000      2.000000
 
 Following cartesian coordinates:
            Coordinates               Weight
  0.024776  0.026223  0.025225      2.000000
 -0.024776  0.024737  0.025168      2.000000
  0.024776 -0.024737  0.026103      2.000000
 -0.024776 -0.026223  0.026047      2.000000
 


--------------------------------------------------------------------------------------------------------




 Dimension of arrays:
   k-points           NKPTS =      4   k-points in BZ     NKDIM =      4   number of bands    NBANDS=      8
   number of dos      NEDOS =    301   number of ions     NIONS =      5
   non local maximal  LDIM  =      4   non local SUM 2l+1 LMDIM =      8
   total plane-waves  NPLWV = 286720
   max r-space proj   IRMAX =    708   max aug-charges    IRDMAX=   3704
   dimension x,y,z NGX =    70 NGY =   64 NGZ =   64
   dimension x,y,z NGXF=   140 NGYF=  128 NGZF=  128
   support grid    NGXF=   140 NGYF=  128 NGZF=  128
   ions per type =               4   1
   NGX,Y,Z   is equivalent  to a cutoff of  11.53, 10.84, 10.91 a.u.
   NGXF,Y,Z  is equivalent  to a cutoff of  23.07, 21.68, 21.82 a.u.

 SYSTEM =  unknown system                          
 POSCAR =   H  C                                   

 Startparameter for this run:
   NWRITE =      2    write-flag & timer
   PREC   = a         normal or accurate (medium, high low for compatibility)
   ISTART =      0    job   : 0-new  1-cont  2-samecut
   ICHARG =      2    charge: 1-file 2-atom 10-const
   ISPIN  =      1    spin polarized calculation?
   LNONCOLLINEAR =      F non collinear calculations
   LSORBIT =      F    spin-orbit coupling
   INIWAV =      1    electr: 0-lowe 1-rand  2-diag
   LASPH  =      F    aspherical Exc in radial PAW
   METAGGA=      F    non-selfconsistent MetaGGA calc.

 Electronic Relaxation 1
   ENCUT  =  400.0 eV  29.40 Ry    5.42 a.u.  16.46 16.01 15.91*2*pi/ulx,y,z
   ENINI  =  400.0     initial cutoff
   ENAUG  =  644.9 eV  augmentation charge cutoff
   NELM   =     60;   NELMIN=  2; NELMDL= -5     # of ELM steps 
   EDIFF  = 0.1E-05   stopping-criterion for ELM
   LREAL  =      T    real-space projection
   NLSPLINE    = F    spline interpolate recip. space projectors
   LCOMPAT=      F    compatible to vasp.4.4
   GGA_COMPAT  = T    GGA compatible to vasp.4.4-vasp.4.6
   LMAXPAW     = -100 max onsite density
   LMAXMIX     =    2 max onsite mixed and CHGCAR
   VOSKOWN=      0    Vosko Wilk Nusair interpolation
   ROPT   =    0.00000   0.00000
 Ionic relaxation
   EDIFFG = 0.1E-04   stopping-criterion for IOM
   NSW    =     10    number of steps for IOM
   NBLOCK =      1;   KBLOCK =      1    inner block; outer block 
   IBRION =      0    ionic relax: 0-MD 1-quasi-New 2-CG
   NFREE  =      0    steps in history (QN), initial steepest desc. (CG)
   ISIF   =      2    stress and relaxation
   IWAVPR =     12    prediction:  0-non 1-charg 2-wave 3-comb
   ISYM   =      0    0-nonsym 1-usesym 2-fastsym
   LCORR  =      T    Harris-Foulkes like correction to forces

   POTIM  = 2.0000    time-step for ionic-motion
   TEIN   =   50.0    initial temperature
   TEBEG  =   50.0;   TEEND  =  50.0 temperature during run
   SMASS  =   0.00    Nose mass-parameter (am)
   estimated Nose-frequenzy (Omega)   =  0.79E+14 period in steps = 40.00 mass=   0.123E-29a.u.
   SCALEE = 1.0000    scale energy and forces
   NPACO  =    256;   APACO  = 16.0  distance and # of slots for P.C.
   PSTRESS=    0.0 pullay stress

  Mass of Ions in am
   POMASS =   1.00 12.01
  Ionic Valenz
   ZVAL   =   1.00  4.00
  Atomic Wigner-Seitz radii
   RWIGS  =  -1.00 -1.00
  virtual crystal weights 
   VCA    =   1.00  1.00
   NELECT =       8.0000    total number of electrons
   NUPDOWN=      -1.0000    fix difference up-down

 DOS related values:
   EMIN   =  10.00;   EMAX   =-10.00  energy-range for DOS
   EFERMI =   0.00
   ISMEAR =     1;   SIGMA  =   0.20  broadening in eV -4-tet -1-fermi 0-gaus

 Electronic relaxation 2 (details)
   IALGO  =     68    algorithm
   LDIAG  =      T    sub-space diagonalisation (order eigenvalues)
   LSUBROT=      F    optimize rotation matrix (better conditioning)
   TURBO    =      0    0=normal 1=particle mesh
   IRESTART =      0    0=no restart 2=restart with 2 vectors
   NREBOOT  =      0    no. of reboots
   NMIN     =      0    reboot dimension
   EREF     =   0.00    reference energy to select bands
   IMIX   =      4    mixing-type and parameters
     AMIX     =   0.40;   BMIX     =  1.00
     AMIX_MAG =   1.60;   BMIX_MAG =  1.00
     AMIN     =   0.10
     WC   =   100.;   INIMIX=   1;  MIXPRE=   1;  MAXMIX=  50

 Intra band minimization:
   WEIMIN = 0.0010     energy-eigenvalue tresh-hold
   EBREAK =  0.31E-07  absolut break condition
   DEPER  =   0.30     relativ break condition  

   TIME   =   0.40     timestep for ELM

  volume/ion in A,a.u.               =     193.10      1303.10
  Fermi-wavevector in a.u.,A,eV,Ry     =   0.331274  0.626017  1.493137  0.109742
  Thomas-Fermi vector in A             =   1.227291

 Write flags
   LWAVE        =      F    write WAVECAR
   LDOWNSAMPLE  =      F    k-point downsampling of WAVECAR
   LCHARG       =      F    write CHGCAR
   LVTOT        =      F    write LOCPOT, total local potential
   LVHAR        =      F    write LOCPOT, Hartree potential only
   LELF         =      F    write electronic localiz. function (ELF)
   LORBIT       =      0    0 simple, 1 ext, 2 COOP (PROOUT), +10 PAW based schemes


 Dipole corrections
   LMONO  =      F    monopole corrections only (constant potential shift)
   LDIPOL =      F    correct potential (dipole corrections)
   IDIPOL =      0    1-x, 2-y, 3-z, 4-all directions 
   EPSILON=  1.0000000 bulk dielectric constant

 Exchange correlation treatment:
   GGA     =    --    GGA type
   LEXCH   =     8    internal setting for exchange type
   VOSKOWN=      0    Vosko Wilk Nusair interpolation
   LHFCALC =     F    Hartree Fock is set to
   LHFONE  =     F    Hartree Fock one center treatment
   AEXX    =    0.0000 exact exchange contribution

 Linear response parameters
   LEPSILON=     F    determine dielectric tensor
   LRPA    =     F    only Hartree local field effects (RPA)
   LNABLA  =     F    use nabla operator in PAW spheres
   LVEL    =     F    velocity operator in full k-point grid
   LINTERFAST=   F  fast interpolation
   KINTER  =     0    interpolate to denser k-point grid
   CSHIFT  =0.1000    complex shift for real part using Kramers Kronig
   OMEGAMAX=  -1.0    maximum frequency
   DEG_THRESHOLD= 0.2000000E-02 threshold for treating states as degnerate
   RTIME   =   -0.100 relaxation time in fs
  (WPLASMAI=    0.000 imaginary part of plasma frequency in eV, 0.658/RTIME)
   DFIELD  = 0.0000000 0.0000000 0.0000000 field for delta impulse in time

 Orbital magnetization related:
   ORBITALMAG=     F  switch on orbital magnetization
   LCHIMAG   =     F  perturbation theory with respect to B field
   DQ        =  0.001000  dq finite difference perturbation B field
   LLRAUG    =     F  two centre corrections for induced B field



--------------------------------------------------------------------------------------------------------


 molecular dynamics for ions
   using nose mass (canonical ensemble)
 charge density and potential will be updated during run
 non-spin polarized calculation
 RMM-DIIS sequential band-by-band and
  variant of blocked Davidson during initial phase
 perform sub-space diagonalisation
    before iterative eigenvector-optimisation
 modified Broyden-mixing scheme, WC =      100.0
 initial mixing is a Kerker type mixing with AMIX =  0.4000 and BMIX =      1.0000
 Hartree-type preconditioning will be used
 using additional bands            4
 real space projection scheme for non local part
 use partial core corrections
 calculate Harris-corrections to forces   (improved forces if not selfconsistent)
 use gradient corrections 
 use of overlap-Matrix (Vanderbilt PP)
 Methfessel and Paxton  Order N= 1 SIGMA  =   0.20


--------------------------------------------------------------------------------------------------------


  energy-cutoff  :      400.00
  volume of cell :      965.50
      direct lattice vectors                 reciprocal lattice vectors
    10.090562823  0.000000000  0.000000000     0.099102500  0.002971913  0.000112695
    -0.294233864  9.811631716  0.000000000     0.000000000  0.101919847 -0.001757257
    -0.016131876  0.168140456  9.752043306     0.000000000 -0.000000000  0.102542613

  length of vectors
    10.090562823  9.816042507  9.753506041     0.099147115  0.101934994  0.102542613



 k-points in units of 2pi/SCALE and weight: read from INCAR                         
   0.02477562  0.02622294  0.02522451       0.250
  -0.02477562  0.02473698  0.02516817       0.250
   0.02477562 -0.02473698  0.02610314       0.250
  -0.02477562 -0.02622294  0.02604679       0.250

 k-points in reciprocal lattice and weights: read from INCAR                         
   0.25000000  0.25000000  0.25000000       0.250
  -0.25000000  0.25000000  0.25000000       0.250
   0.25000000 -0.25000000  0.25000000       0.250
  -0.25000000 -0.25000000  0.25000000       0.250

 position of ions in fractional coordinates (direct lattice) 
   0.53829499  0.40733482  0.36059984
   0.39470001  0.48043433  0.43855220
   0.55275021  0.56587591  0.44299648
   0.52856722  0.41614404  0.53961099
   0.50341169  0.46695428  0.44468397

 position of ions in cartesian coordinates  (Angst):
   5.30603058  4.05725065  3.51658528
   3.83431052  4.78758309  4.27678007
   5.40391450  5.62665170  4.32012086
   5.20239218  4.17378248  5.26230971
   4.93513998  4.65635280  4.33657729



--------------------------------------------------------------------------------------------------------


 k-point  1 :   0.2500 0.2500 0.2500  plane waves:   17556
 k-point  2 :  -0.2500 0.2500 0.2500  plane waves:   17558
 k-point  3 :   0.2500-0.2500 0.2500  plane waves:   17552
 k-point  4 :  -0.2500-0.2500 0.2500  plane waves:   17538

 maximum and minimum number of plane-waves per node :     17558    17538

 maximum number of plane-waves:     17558
 maximum index in each direction: 
   IXMAX=   16   IYMAX=   16   IZMAX=   15
   IXMIN=  -16   IYMIN=  -16   IZMIN=  -16


 serial   3D FFT for wavefunctions
 parallel 3D FFT for charge:
    minimum data exchange during FFTs selected (reduces bandwidth)


 total amount of memory used by VASP MPI-rank0   259859. kBytes
=======================================================================

   base      :      30000. kBytes
   nonlr-proj:        144. kBytes
   fftplans  :      79272. kBytes
   grid      :     141424. kBytes
   one-center:         15. kBytes
   wavefun   :       9004. kBytes

     INWAV:  cpu time    0.0000: real time    0.0000
 Broyden mixing: mesh for mixing (old mesh)
   NGX = 33   NGY = 31   NGZ = 31
  (NGX  =140   NGY  =128   NGZ  =128)
  gives a total of  31713 points

 initial charge density was supplied:
 charge density of overlapping atoms calculated
 number of electron       8.0000000 magnetization 
 keeping initial charge density in first step


--------------------------------------------------------------------------------------------------------


 Maximum index for non-local projection operator          631
 Maximum index for augmentation-charges         3394 (set IRDMAX)


--------------------------------------------------------------------------------------------------------


 First call to EWALD:  gamma=   0.179
 Maximum number of real-space cells 3x 3x 3
 Maximum number of reciprocal cells 3x 3x 3

    FEWALD:  cpu time    0.0007: real time    0.0007


--------------------------------------- Iteration      1(   1)  ---------------------------------------


    POTLOK:  cpu time    1.5006: real time    1.5044
    SETDIJ:  cpu time    0.0066: real time    0.0066
     EDDAV:  cpu time    2.4989: real time    2.5049
       DOS:  cpu time    0.0003: real time    0.0003
    --------------------------------------------
      LOOP:  cpu time    4.0064: real time    4.0161

 eigenvalue-minimisations  :   104
 total energy-change (2. order) : 0.9910315E+01  (-0.1997860E+03)
 number of electron       8.0000000 magnetization 
 augmentation part        8.0000000 magnetization 

 Free energy of the ion-electron system (eV)
  ---------------------------------------------------
  alpha Z        PSCENC =         0.25090710
  Ewald energy   TEWEN  =       129.68627230
  -Hartree energ DENC   =      -243.81173393
  -exchange      EXHF   =         0.00000000
  -V(xc)+E(xc)   XCENC  =        22.06749085
  PAW double counting   =       117.05815612     -117.66307307
  entropy T*S    EENTRO =        -0.02199283
  eigenvalues    EBANDS =       -94.69746564
  atomic energy  EATOM  =       197.04175453
  Solvation  Ediel_sol  =         0.00000000
  ---------------------------------------------------
  free energy    TOTEN  =         9.91031544 eV

  energy without entropy =        9.93230827  energy(sigma->0) =        9.91764639


--------------------------------------------------------------------------------------------------------




--------------------------------------- Iteration      1(   2)  ---------------------------------------


     EDDAV:  cpu time    1.8240: real time    1.8284
       DOS:  cpu time    0.0002: real time    0.0002
    --------------------------------------------
      LOOP:  cpu time    1.8242: real time    1.8286

 eigenvalue-minimisations  :    72
 total energy-change (2. order) :-0.3326553E+02  (-0.2992016E+02)
 number of electron       8.0000000 magnetization 
 augmentation part        8.0000000 magnetization 

 Free energy of the ion-electron system (eV)
  ---------------------------------------------------
  alpha Z        PSCENC =         0.25090710
  Ewald energy   TEWEN  =       129.68627230
  -Hartree energ DENC   =      -243.81173393
  -exchange      EXHF   =         0.00000000
  -V(xc)+E(xc)   XCENC  =        22.06749085
  PAW double counting   =       117.05815612     -117.66307307
  entropy T*S    EENTRO =         0.00289895
  eigenvalues    EBANDS =      -127.98789241
  atomic energy  EATOM  =       197.04175453
  Solvation  Ediel_sol  =         0.00000000
  ---------------------------------------------------
  free energy    TOTEN  =       -23.35521955 eV

  energy without entropy =      -23.35811850  energy(sigma->0) =      -23.35618586


--------------------------------------------------------------------------------------------------------




--------------------------------------- Iteration      1(   3)  ---------------------------------------


     EDDAV:  cpu time    1.9942: real time    1.9989
       DOS:  cpu time    0.0002: real time    0.0002
    --------------------------------------------
      LOOP:  cpu time    1.9944: real time    1.9991

 eigenvalue-minimisations  :    80
 total energy-change (2. order) :-0.4147897E+01  (-0.4151840E+01)
 number of electron       8.0000000 magnetization 
 augmentation part        8.0000000 magnetization 

 Free energy of the ion-electron system (eV)
  ---------------------------------------------------
  alpha Z        PSCENC =         0.25090710
  Ewald energy   TEWEN  =       129.68627230
  -Hartree energ DENC   =      -243.81173393
  -exchange      EXHF   =         0.00000000
  -V(xc)+E(xc)   XCENC  =        22.06749085
  PAW double counting   =       117.05815612     -117.66307307
  entropy T*S    EENTRO =         0.02190992
  eigenvalues    EBANDS =      -132.15480045
  atomic energy  EATOM  =       197.04175453
  Solvation  Ediel_sol  =         0.00000000
  ---------------------------------------------------
  free energy    TOTEN  =       -27.50311661 eV

  energy without entropy =      -27.52502653  energy(sigma->0) =      -27.51041992


--------------------------------------------------------------------------------------------------------




--------------------------------------- Iteration      1(   4)  ---------------------------------------


     EDDAV:  cpu time    3.0007: real time    3.0079
       DOS:  cpu time    0.0002: real time    0.0002
    --------------------------------------------
      LOOP:  cpu time    3.0010: real time    3.0081

 eigenvalue-minimisations  :   128
 total energy-change (2. order) :-0.1736658E+00  (-0.1730043E+00)
 number of electron       8.0000000 magnetization 
 augmentation part        8.0000000 magnetization 

 Free energy of the ion-electron system (eV)
  ---------------------------------------------------
  alpha Z        PSCENC =         0.25090710
  Ewald energy   TEWEN  =       129.68627230
  -Hartree energ DENC   =      -243.81173393
  -exchange      EXHF   =         0.00000000
  -V(xc)+E(xc)   XCENC  =        22.06749085
  PAW double counting   =       117.05815612     -117.66307307
  entropy T*S    EENTRO =         0.03414812
  eigenvalues    EBANDS =      -132.34070448
  atomic energy  EATOM  =       197.04175453
  Solvation  Ediel_sol  =         0.00000000
  ---------------------------------------------------
  free energy    TOTEN  =       -27.67678245 eV

  energy without entropy =      -27.71093056  energy(sigma->0) =      -27.68816515


--------------------------------------------------------------------------------------------------------




--------------------------------------- Iteration      1(   5)  ---------------------------------------


     EDDAV:  cpu time    2.2792: real time    2.2846
       DOS:  cpu time    0.0002: real time    0.0002
    CHARGE:  cpu time    0.1586: real time    0.1590
    MIXING:  cpu time    0.0362: real time    0.0363
    --------------------------------------------
      LOOP:  cpu time    2.4742: real time    2.4801

 eigenvalue-minimisations  :    96
 total energy-change (2. order) :-0.6840052E-04  (-0.6839898E-04)
 number of electron       8.0000002 magnetization 
 augmentation part        0.2288845 magnetization 

 Broyden mixing:
  rms(total) = 0.89247E+00    rms(broyden)= 0.89220E+00
  rms(prec ) = 0.12649E+01
  weight for this iteration     100.00

 Free energy of the ion-electron system (eV)
  ---------------------------------------------------
  alpha Z        PSCENC =         0.25090710
  Ewald energy   TEWEN  =       129.68627230
  -Hartree energ DENC   =      -243.81173393
  -exchange      EXHF   =         0.00000000
  -V(xc)+E(xc)   XCENC  =        22.06749085
  PAW double counting   =       117.05815612     -117.66307307
  entropy T*S    EENTRO =         0.03414970
  eigenvalues    EBANDS =      -132.34077446
  atomic energy  EATOM  =       197.04175453
  Solvation  Ediel_sol  =         0.00000000
  ---------------------------------------------------
  free energy    TOTEN  =       -27.67685085 eV

  energy without entropy =      -27.71100055  energy(sigma->0) =      -27.68823408


--------------------------------------------------------------------------------------------------------




--------------------------------------- Iteration      1(   6)  ---------------------------------------


    POTLOK:  cpu time    1.5208: real time    1.5244
    SETDIJ:  cpu time    0.0066: real time    0.0066
    EDDIAG:  cpu time    0.3476: real time    0.3485
  RMM-DIIS:  cpu time    1.2171: real time    1.2200
    ORTHCH:  cpu time    0.0112: real time    0.0113
       DOS:  cpu time    0.0002: real time    0.0002
    CHARGE:  cpu time    0.1457: real time    0.1461
    MIXING:  cpu time    0.0361: real time    0.0361
    --------------------------------------------
      LOOP:  cpu time    3.2854: real time    3.2932

 eigenvalue-minimisations  :    64
 total energy-change (2. order) : 0.3028163E+01  (-0.5637000E+00)
 number of electron       8.0000001 magnetization 
 augmentation part        0.2015347 magnetization 

 Broyden mixing:
  rms(total) = 0.43466E+00    rms(broyden)= 0.43452E+00
  rms(prec ) = 0.56785E+00
  weight for this iteration     100.00

 eigenvalues of (default mixing * dielectric matrix)
  average eigenvalue GAMMA=   1.2903
  1.2903

 Free energy of the ion-electron system (eV)
  ---------------------------------------------------
  alpha Z        PSCENC =         0.25090710
  Ewald energy   TEWEN  =       129.68627230
  -Hartree energ DENC   =      -263.97519417
  -exchange      EXHF   =         0.00000000
  -V(xc)+E(xc)   XCENC  =        23.29200613
  PAW double counting   =       237.52092064     -238.30592142
  entropy T*S    EENTRO =         0.03756960
  eigenvalues    EBANDS =      -110.19700231
  atomic energy  EATOM  =       197.04175453
  Solvation  Ediel_sol  =         0.00000000
  ---------------------------------------------------
  free energy    TOTEN  =       -24.64868760 eV

  energy without entropy =      -24.68625720  energy(sigma->0) =      -24.66121080


--------------------------------------------------------------------------------------------------------




--------------------------------------- Iteration      1(   7)  ---------------------------------------


    POTLOK:  cpu time    1.5170: real time    1.5206
    SETDIJ:  cpu time    0.0064: real time    0.0064
    EDDIAG:  cpu time    0.3341: real time    0.3349
  RMM-DIIS:  cpu time    1.2299: real time    1.2328
    ORTHCH:  cpu time    0.0115: real time    0.0115
       DOS:  cpu time    0.0002: real time    0.0002
    CHARGE:  cpu time    0.1493: real time    0.1497
    MIXING:  cpu time    0.0377: real time    0.0378
    --------------------------------------------
      LOOP:  cpu time    3.2861: real time    3.2939

 eigenvalue-minimisations  :    64
 total energy-change (2. order) : 0.5092122E+00  (-0.1295052E+00)
 number of electron       8.0000001 magnetization 
 augmentation part        0.1910048 magnetization 

 Broyden mixing:
  rms(total) = 0.23725E+00    rms(broyden)= 0.23716E+00
  rms(prec ) = 0.28977E+00
  weight for this iteration     100.00

 eigenvalues of (default mixing * dielectric matrix)
  average eigenvalue GAMMA=   1.4856
  1.4856  1.4856

 Free energy of the ion-electron system (eV)
  ---------------------------------------------------
  alpha Z        PSCENC =         0.25090710
  Ewald energy   TEWEN  =       129.68627230
  -Hartree energ DENC   =      -275.83921163
  -exchange      EXHF   =         0.00000000
  -V(xc)+E(xc)   XCENC  =        24.15967598
  PAW double counting   =       361.53894814     -362.36507319
  entropy T*S    EENTRO =         0.04042678
  eigenvalues    EBANDS =       -98.65317546
  atomic energy  EATOM  =       197.04175453
  Solvation  Ediel_sol  =         0.00000000
  ---------------------------------------------------
  free energy    TOTEN  =       -24.13947544 eV

  energy without entropy =      -24.17990222  energy(sigma->0) =      -24.15295103


--------------------------------------------------------------------------------------------------------




--------------------------------------- Iteration      1(   8)  ---------------------------------------


    POTLOK:  cpu time    1.5215: real time    1.5251
    SETDIJ:  cpu time    0.0064: real time    0.0065
    EDDIAG:  cpu time    0.3399: real time    0.3407
  RMM-DIIS:  cpu time    1.2505: real time    1.2535
    ORTHCH:  cpu time    0.0123: real time    0.0123
       DOS:  cpu time    0.0002: real time    0.0002
    CHARGE:  cpu time    0.1533: real time    0.1536
    MIXING:  cpu time    0.0380: real time    0.0380
    --------------------------------------------
      LOOP:  cpu time    3.3221: real time    3.3300

 eigenvalue-minimisations  :    64
 total energy-change (2. order) : 0.1138875E+00  (-0.1010813E-01)
 number of electron       8.0000001 magnetization 
 augmentation part        0.1892729 magnetization 

 Broyden mixing:
  rms(total) = 0.12512E+00    rms(broyden)= 0.12496E+00
  rms(prec ) = 0.16666E+00
  weight for this iteration     100.00

 eigenvalues of (default mixing * dielectric matrix)
  average eigenvalue GAMMA=   1.4258
  2.2143  1.4685  0.5946

 Free energy of the ion-electron system (eV)
  ---------------------------------------------------
  alpha Z        PSCENC =         0.25090710
  Ewald energy   TEWEN  =       129.68627230
  -Hartree energ DENC   =      -279.75493152
  -exchange      EXHF   =         0.00000000
  -V(xc)+E(xc)   XCENC  =        24.53220987
  PAW double counting   =       432.98389135     -433.79099206
  entropy T*S    EENTRO =         0.04073890
  eigenvalues    EBANDS =       -95.01543841
  atomic energy  EATOM  =       197.04175453
  Solvation  Ediel_sol  =         0.00000000
  ---------------------------------------------------
  free energy    TOTEN  =       -24.02558794 eV

  energy without entropy =      -24.06632684  energy(sigma->0) =      -24.03916758


--------------------------------------------------------------------------------------------------------




--------------------------------------- Iteration      1(   9)  ---------------------------------------


    POTLOK:  cpu time    1.5171: real time    1.5207
    SETDIJ:  cpu time    0.0065: real time    0.0065
    EDDIAG:  cpu time    0.3335: real time    0.3342
  RMM-DIIS:  cpu time    1.2436: real time    1.2465
    ORTHCH:  cpu time    0.0114: real time    0.0115
       DOS:  cpu time    0.0002: real time    0.0002
    CHARGE:  cpu time    0.1621: real time    0.1625
    MIXING:  cpu time    0.0404: real time    0.0405
    --------------------------------------------
      LOOP:  cpu time    3.3148: real time    3.3226

 eigenvalue-minimisations  :    64
 total energy-change (2. order) : 0.4481720E-01  (-0.5165115E-02)
 number of electron       8.0000001 magnetization 
 augmentation part        0.1888619 magnetization 

 Broyden mixing:
  rms(total) = 0.31164E-01    rms(broyden)= 0.31026E-01
  rms(prec ) = 0.55368E-01
  weight for this iteration     100.00

 eigenvalues of (default mixing * dielectric matrix)
  average eigenvalue GAMMA=   1.2337
  2.1982  1.4468  0.6449  0.6449

 Free energy of the ion-electron system (eV)
  ---------------------------------------------------
  alpha Z        PSCENC =         0.25090710
  Ewald energy   TEWEN  =       129.68627230
  -Hartree energ DENC   =      -282.01174595
  -exchange      EXHF   =         0.00000000
  -V(xc)+E(xc)   XCENC  =        24.74262941
  PAW double counting   =       472.19751877     -472.99202288
  entropy T*S    EENTRO =         0.03716869
  eigenvalues    EBANDS =       -92.93325274
  atomic energy  EATOM  =       197.04175453
  Solvation  Ediel_sol  =         0.00000000
  ---------------------------------------------------
  free energy    TOTEN  =       -23.98077074 eV

  energy without entropy =      -24.01793944  energy(sigma->0) =      -23.99316031


--------------------------------------------------------------------------------------------------------




--------------------------------------- Iteration      1(  10)  ---------------------------------------


    POTLOK:  cpu time    1.5212: real time    1.5249
    SETDIJ:  cpu time    0.0068: real time    0.0068
    EDDIAG:  cpu time    0.3361: real time    0.3369
  RMM-DIIS:  cpu time    1.1966: real time    1.1994
    ORTHCH:  cpu time    0.0113: real time    0.0113
       DOS:  cpu time    0.0002: real time    0.0002
    CHARGE:  cpu time    0.1560: real time    0.1564
    MIXING:  cpu time    0.0409: real time    0.0410
    --------------------------------------------
      LOOP:  cpu time    3.2691: real time    3.2769

 eigenvalue-minimisations  :    64
 total energy-change (2. order) : 0.2233720E-02  (-0.3518034E-03)
 number of electron       8.0000001 magnetization 
 augmentation part        0.1887265 magnetization 

 Broyden mixing:
  rms(total) = 0.19522E-01    rms(broyden)= 0.19493E-01
  rms(prec ) = 0.40677E-01
  weight for this iteration     100.00

 eigenvalues of (default mixing * dielectric matrix)
  average eigenvalue GAMMA=   1.2365
  1.9724  1.4721  1.4721  0.6330  0.6330

 Free energy of the ion-electron system (eV)
  ---------------------------------------------------
  alpha Z        PSCENC =         0.25090710
  Ewald energy   TEWEN  =       129.68627230
  -Hartree energ DENC   =      -282.63559626
  -exchange      EXHF   =         0.00000000
  -V(xc)+E(xc)   XCENC  =        24.77260619
  PAW double counting   =       472.04280030     -472.83885279
  entropy T*S    EENTRO =         0.03680036
  eigenvalues    EBANDS =       -92.33522876
  atomic energy  EATOM  =       197.04175453
  Solvation  Ediel_sol  =         0.00000000
  ---------------------------------------------------
  free energy    TOTEN  =       -23.97853702 eV

  energy without entropy =      -24.01533738  energy(sigma->0) =      -23.99080381


--------------------------------------------------------------------------------------------------------




--------------------------------------- Iteration      1(  11)  ---------------------------------------


    POTLOK:  cpu time    1.5384: real time    1.5422
    SETDIJ:  cpu time    0.0064: real time    0.0064
    EDDIAG:  cpu time    0.3550: real time    0.3559
  RMM-DIIS:  cpu time    1.1494: real time    1.1521
    ORTHCH:  cpu time    0.0114: real time    0.0114
       DOS:  cpu time    0.0002: real time    0.0002
    CHARGE:  cpu time    0.1413: real time    0.1416
    MIXING:  cpu time    0.0393: real time    0.0394
    --------------------------------------------
      LOOP:  cpu time    3.2414: real time    3.2491

 eigenvalue-minimisations  :    64
 total energy-change (2. order) : 0.7916364E-03  (-0.1306277E-02)
 number of electron       8.0000001 magnetization 
 augmentation part        0.1878539 magnetization 

 Broyden mixing:
  rms(total) = 0.18717E-01    rms(broyden)= 0.18699E-01
  rms(prec ) = 0.30960E-01
  weight for this iteration     100.00

 eigenvalues of (default mixing * dielectric matrix)
  average eigenvalue GAMMA=   1.4836
  2.6975  2.6975  1.1222  1.1222  0.6488  0.6134

 Free energy of the ion-electron system (eV)
  ---------------------------------------------------
  alpha Z        PSCENC =         0.25090710
  Ewald energy   TEWEN  =       129.68627230
  -Hartree energ DENC   =      -284.11897236
  -exchange      EXHF   =         0.00000000
  -V(xc)+E(xc)   XCENC  =        24.82846729
  PAW double counting   =       465.60026292     -466.39996863
  entropy T*S    EENTRO =         0.03713405
  eigenvalues    EBANDS =       -90.90360260
  atomic energy  EATOM  =       197.04175453
  Solvation  Ediel_sol  =         0.00000000
  ---------------------------------------------------
  free energy    TOTEN  =       -23.97774539 eV

  energy without entropy =      -24.01487944  energy(sigma->0) =      -23.99012340


--------------------------------------------------------------------------------------------------------




--------------------------------------- Iteration      1(  12)  ---------------------------------------


    POTLOK:  cpu time    1.4817: real time    1.4852
    SETDIJ:  cpu time    0.0065: real time    0.0065
    EDDIAG:  cpu time    0.3748: real time    0.3757
  RMM-DIIS:  cpu time    1.1730: real time    1.1757
    ORTHCH:  cpu time    0.0111: real time    0.0112
       DOS:  cpu time    0.0002: real time    0.0002
    CHARGE:  cpu time    0.1457: real time    0.1461
    MIXING:  cpu time    0.0403: real time    0.0404
    --------------------------------------------
      LOOP:  cpu time    3.2333: real time    3.2409

 eigenvalue-minimisations  :    64
 total energy-change (2. order) : 0.4679013E-02  (-0.2459883E-03)
 number of electron       8.0000001 magnetization 
 augmentation part        0.1878722 magnetization 

 Broyden mixing:
  rms(total) = 0.79551E-02    rms(broyden)= 0.79347E-02
  rms(prec ) = 0.14490E-01
  weight for this iteration     100.00

 eigenvalues of (default mixing * dielectric matrix)
  average eigenvalue GAMMA=   1.4984
  3.1682  2.3354  1.3731  1.3731  0.5896  0.7070  0.9422

 Free energy of the ion-electron system (eV)
  ---------------------------------------------------
  alpha Z        PSCENC =         0.25090710
  Ewald energy   TEWEN  =       129.68627230
  -Hartree energ DENC   =      -284.77327835
  -exchange      EXHF   =         0.00000000
  -V(xc)+E(xc)   XCENC  =        24.85602888
  PAW double counting   =       463.27507461     -464.06999848
  entropy T*S    EENTRO =         0.03685200
  eigenvalues    EBANDS =       -90.27667896
  atomic energy  EATOM  =       197.04175453
  Solvation  Ediel_sol  =         0.00000000
  ---------------------------------------------------
  free energy    TOTEN  =       -23.97306637 eV

  energy without entropy =      -24.00991838  energy(sigma->0) =      -23.98535038


--------------------------------------------------------------------------------------------------------




--------------------------------------- Iteration      1(  13)  ---------------------------------------


    POTLOK:  cpu time    1.4159: real time    1.4192
    SETDIJ:  cpu time    0.0065: real time    0.0065
    EDDIAG:  cpu time    0.3777: real time    0.3786
  RMM-DIIS:  cpu time    1.2664: real time    1.2694
    ORTHCH:  cpu time    0.0111: real time    0.0111
       DOS:  cpu time    0.0002: real time    0.0002
    CHARGE:  cpu time    0.1395: real time    0.1398
    MIXING:  cpu time    0.0398: real time    0.0399
    --------------------------------------------
      LOOP:  cpu time    3.2571: real time    3.2648

 eigenvalue-minimisations  :    64
 total energy-change (2. order) :-0.4648452E-02  (-0.1739284E-03)
 number of electron       8.0000001 magnetization 
 augmentation part        0.1880257 magnetization 

 Broyden mixing:
  rms(total) = 0.12421E-01    rms(broyden)= 0.12403E-01
  rms(prec ) = 0.17485E-01
  weight for this iteration     100.00

 eigenvalues of (default mixing * dielectric matrix)
  average eigenvalue GAMMA=   1.7469
  4.4341  2.5442  2.4996  1.1604  1.1604  0.5820  0.7971  0.7971

 Free energy of the ion-electron system (eV)
  ---------------------------------------------------
  alpha Z        PSCENC =         0.25090710
  Ewald energy   TEWEN  =       129.68627230
  -Hartree energ DENC   =      -285.05989363
  -exchange      EXHF   =         0.00000000
  -V(xc)+E(xc)   XCENC  =        24.86764169
  PAW double counting   =       464.97869486     -465.77190252
  entropy T*S    EENTRO =         0.03710241
  eigenvalues    EBANDS =       -90.00829157
  atomic energy  EATOM  =       197.04175453
  Solvation  Ediel_sol  =         0.00000000
  ---------------------------------------------------
  free energy    TOTEN  =       -23.97771483 eV

  energy without entropy =      -24.01481724  energy(sigma->0) =      -23.99008230


--------------------------------------------------------------------------------------------------------




--------------------------------------- Iteration      1(  14)  ---------------------------------------


    POTLOK:  cpu time    1.3116: real time    1.3147
    SETDIJ:  cpu time    0.0064: real time    0.0064
    EDDIAG:  cpu time    0.3662: real time    0.3671
  RMM-DIIS:  cpu time    1.3006: real time    1.3036
    ORTHCH:  cpu time    0.0111: real time    0.0111
       DOS:  cpu time    0.0002: real time    0.0002
    CHARGE:  cpu time    0.1432: real time    0.1435
    MIXING:  cpu time    0.0422: real time    0.0423
    --------------------------------------------
      LOOP:  cpu time    3.1814: real time    3.1889

 eigenvalue-minimisations  :    64
 total energy-change (2. order) :-0.4920187E-02  (-0.1135481E-03)
 number of electron       8.0000001 magnetization 
 augmentation part        0.1879425 magnetization 

 Broyden mixing:
  rms(total) = 0.11848E-01    rms(broyden)= 0.11804E-01
  rms(prec ) = 0.15969E-01
  weight for this iteration     100.00

 eigenvalues of (default mixing * dielectric matrix)
  average eigenvalue GAMMA=   1.6907
  4.8612  2.7821  2.1391  1.2906  1.2906  0.9340  0.5688  0.6747  0.6747

 Free energy of the ion-electron system (eV)
  ---------------------------------------------------
  alpha Z        PSCENC =         0.25090710
  Ewald energy   TEWEN  =       129.68627230
  -Hartree energ DENC   =      -285.22866062
  -exchange      EXHF   =         0.00000000
  -V(xc)+E(xc)   XCENC  =        24.86430254
  PAW double counting   =       463.74307863     -464.53732137
  entropy T*S    EENTRO =         0.03681564
  eigenvalues    EBANDS =       -89.83978377
  atomic energy  EATOM  =       197.04175453
  Solvation  Ediel_sol  =         0.00000000
  ---------------------------------------------------
  free energy    TOTEN  =       -23.98263501 eV

  energy without entropy =      -24.01945065  energy(sigma->0) =      -23.99490689


--------------------------------------------------------------------------------------------------------




--------------------------------------- Iteration      1(  15)  ---------------------------------------


    POTLOK:  cpu time    1.3480: real time    1.3512
    SETDIJ:  cpu time    0.0064: real time    0.0065
    EDDIAG:  cpu time    0.3625: real time    0.3633
  RMM-DIIS:  cpu time    1.2514: real time    1.2543
    ORTHCH:  cpu time    0.0113: real time    0.0113
       DOS:  cpu time    0.0002: real time    0.0002
    CHARGE:  cpu time    0.1584: real time    0.1587
    MIXING:  cpu time    0.0434: real time    0.0435
    --------------------------------------------
      LOOP:  cpu time    3.1814: real time    3.1889

 eigenvalue-minimisations  :    64
 total energy-change (2. order) :-0.1202834E-02  (-0.9039505E-04)
 number of electron       8.0000001 magnetization 
 augmentation part        0.1878170 magnetization 

 Broyden mixing:
  rms(total) = 0.68313E-02    rms(broyden)= 0.68026E-02
  rms(prec ) = 0.89384E-02
  weight for this iteration     100.00

 eigenvalues of (default mixing * dielectric matrix)
  average eigenvalue GAMMA=   1.7757
  5.2221  3.1782  2.0599  2.0599  1.2106  1.2106  0.9371  0.6598  0.6598  0.5590

 Free energy of the ion-electron system (eV)
  ---------------------------------------------------
  alpha Z        PSCENC =         0.25090710
  Ewald energy   TEWEN  =       129.68627230
  -Hartree energ DENC   =      -285.25796673
  -exchange      EXHF   =         0.00000000
  -V(xc)+E(xc)   XCENC  =        24.85901406
  PAW double counting   =       462.00626307     -462.80204251
  entropy T*S    EENTRO =         0.03695645
  eigenvalues    EBANDS =       -89.80499612
  atomic energy  EATOM  =       197.04175453
  Solvation  Ediel_sol  =         0.00000000
  ---------------------------------------------------
  free energy    TOTEN  =       -23.98383785 eV

  energy without entropy =      -24.02079430  energy(sigma->0) =      -23.99615666


--------------------------------------------------------------------------------------------------------




--------------------------------------- Iteration      1(  16)  ---------------------------------------


    POTLOK:  cpu time    1.3335: real time    1.3366
    SETDIJ:  cpu time    0.0065: real time    0.0066
    EDDIAG:  cpu time    0.3667: real time    0.3676
  RMM-DIIS:  cpu time    1.2371: real time    1.2400
    ORTHCH:  cpu time    0.0118: real time    0.0118
       DOS:  cpu time    0.0002: real time    0.0002
    CHARGE:  cpu time    0.1579: real time    0.1583
    MIXING:  cpu time    0.0457: real time    0.0458
    --------------------------------------------
      LOOP:  cpu time    3.1593: real time    3.1668

 eigenvalue-minimisations  :    64
 total energy-change (2. order) :-0.1548013E-02  (-0.4785626E-04)
 number of electron       8.0000001 magnetization 
 augmentation part        0.1878812 magnetization 

 Broyden mixing:
  rms(total) = 0.10333E-01    rms(broyden)= 0.10324E-01
  rms(prec ) = 0.13807E-01
  weight for this iteration     100.00

 eigenvalues of (default mixing * dielectric matrix)
  average eigenvalue GAMMA=   1.9469
  6.3276  4.1050  2.5177  2.1732  1.2362  1.2362  0.9258  0.9258  0.5724  0.6979
  0.6979

 Free energy of the ion-electron system (eV)
  ---------------------------------------------------
  alpha Z        PSCENC =         0.25090710
  Ewald energy   TEWEN  =       129.68627230
  -Hartree energ DENC   =      -285.18384679
  -exchange      EXHF   =         0.00000000
  -V(xc)+E(xc)   XCENC  =        24.85469091
  PAW double counting   =       463.28512207     -464.07966162
  entropy T*S    EENTRO =         0.03709162
  eigenvalues    EBANDS =       -89.87771598
  atomic energy  EATOM  =       197.04175453
  Solvation  Ediel_sol  =         0.00000000
  ---------------------------------------------------
  free energy    TOTEN  =       -23.98538586 eV

  energy without entropy =      -24.02247748  energy(sigma->0) =      -23.99774973


--------------------------------------------------------------------------------------------------------




--------------------------------------- Iteration      1(  17)  ---------------------------------------


    POTLOK:  cpu time    1.3172: real time    1.3203
    SETDIJ:  cpu time    0.0065: real time    0.0065
    EDDIAG:  cpu time    0.3648: real time    0.3657
  RMM-DIIS:  cpu time    1.2774: real time    1.2804
    ORTHCH:  cpu time    0.0113: real time    0.0113
       DOS:  cpu time    0.0002: real time    0.0002
    CHARGE:  cpu time    0.1523: real time    0.1527
    MIXING:  cpu time    0.0457: real time    0.0458
    --------------------------------------------
      LOOP:  cpu time    3.1754: real time    3.1829

 eigenvalue-minimisations  :    64
 total energy-change (2. order) :-0.3980303E-03  (-0.2347766E-04)
 number of electron       8.0000001 magnetization 
 augmentation part        0.1879114 magnetization 

 Broyden mixing:
  rms(total) = 0.25315E-02    rms(broyden)= 0.24745E-02
  rms(prec ) = 0.32479E-02
  weight for this iteration     100.00

 eigenvalues of (default mixing * dielectric matrix)
  average eigenvalue GAMMA=   1.9412
  6.7631  4.1333  2.5895  2.2093  1.4216  1.0316  1.0316  1.1378  1.0006  0.5729
  0.7017  0.7017

 Free energy of the ion-electron system (eV)
  ---------------------------------------------------
  alpha Z        PSCENC =         0.25090710
  Ewald energy   TEWEN  =       129.68627230
  -Hartree energ DENC   =      -285.17163863
  -exchange      EXHF   =         0.00000000
  -V(xc)+E(xc)   XCENC  =        24.85425884
  PAW double counting   =       463.88338099     -464.67748717
  entropy T*S    EENTRO =         0.03685522
  eigenvalues    EBANDS =       -89.89008707
  atomic energy  EATOM  =       197.04175453
  Solvation  Ediel_sol  =         0.00000000
  ---------------------------------------------------
  free energy    TOTEN  =       -23.98578389 eV

  energy without entropy =      -24.02263911  energy(sigma->0) =      -23.99806896


--------------------------------------------------------------------------------------------------------




--------------------------------------- Iteration      1(  18)  ---------------------------------------


    POTLOK:  cpu time    1.3065: real time    1.3096
    SETDIJ:  cpu time    0.0066: real time    0.0066
    EDDIAG:  cpu time    0.3444: real time    0.3453
  RMM-DIIS:  cpu time    1.2779: real time    1.2809
    ORTHCH:  cpu time    0.0116: real time    0.0116
       DOS:  cpu time    0.0002: real time    0.0002
    CHARGE:  cpu time    0.1431: real time    0.1435
    MIXING:  cpu time    0.0465: real time    0.0466
    --------------------------------------------
      LOOP:  cpu time    3.1369: real time    3.1443

 eigenvalue-minimisations  :    64
 total energy-change (2. order) :-0.1657209E-03  (-0.6297640E-05)
 number of electron       8.0000001 magnetization 
 augmentation part        0.1878694 magnetization 

 Broyden mixing:
  rms(total) = 0.49931E-03    rms(broyden)= 0.49907E-03
  rms(prec ) = 0.75358E-03
  weight for this iteration     100.00

 eigenvalues of (default mixing * dielectric matrix)
  average eigenvalue GAMMA=   2.0620
  7.4802  4.4612  3.0810  2.5401  1.9623  1.1627  1.1627  1.0518  0.9627  0.9627
  0.5730  0.7025  0.7025

 Free energy of the ion-electron system (eV)
  ---------------------------------------------------
  alpha Z        PSCENC =         0.25090710
  Ewald energy   TEWEN  =       129.68627230
  -Hartree energ DENC   =      -285.22108818
  -exchange      EXHF   =         0.00000000
  -V(xc)+E(xc)   XCENC  =        24.85584138
  PAW double counting   =       463.52964674     -464.32434519
  entropy T*S    EENTRO =         0.03687374
  eigenvalues    EBANDS =       -89.84181203
  atomic energy  EATOM  =       197.04175453
  Solvation  Ediel_sol  =         0.00000000
  ---------------------------------------------------
  free energy    TOTEN  =       -23.98594961 eV

  energy without entropy =      -24.02282335  energy(sigma->0) =      -23.99824086


--------------------------------------------------------------------------------------------------------




--------------------------------------- Iteration      1(  19)  ---------------------------------------


    POTLOK:  cpu time    1.3666: real time    1.3699
    SETDIJ:  cpu time    0.0064: real time    0.0064
    EDDIAG:  cpu time    0.3673: real time    0.3681
  RMM-DIIS:  cpu time    1.2250: real time    1.2279
    ORTHCH:  cpu time    0.0115: real time    0.0115
       DOS:  cpu time    0.0002: real time    0.0002
    CHARGE:  cpu time    0.1494: real time    0.1498
    MIXING:  cpu time    0.0481: real time    0.0482
    --------------------------------------------
      LOOP:  cpu time    3.1745: real time    3.1820

 eigenvalue-minimisations  :    64
 total energy-change (2. order) :-0.1053983E-03  (-0.1232061E-05)
 number of electron       8.0000001 magnetization 
 augmentation part        0.1878496 magnetization 

 Broyden mixing:
  rms(total) = 0.96088E-03    rms(broyden)= 0.96076E-03
  rms(prec ) = 0.12089E-02
  weight for this iteration     100.00

 eigenvalues of (default mixing * dielectric matrix)
  average eigenvalue GAMMA=   2.1137
  8.0350  4.9476  3.3345  2.5655  2.2364  1.0795  1.0795  1.2490  1.1706  0.5730
  0.7023  0.7023  0.9766  0.9405

 Free energy of the ion-electron system (eV)
  ---------------------------------------------------
  alpha Z        PSCENC =         0.25090710
  Ewald energy   TEWEN  =       129.68627230
  -Hartree energ DENC   =      -285.21994383
  -exchange      EXHF   =         0.00000000
  -V(xc)+E(xc)   XCENC  =        24.85537184
  PAW double counting   =       463.26908722     -464.06386282
  entropy T*S    EENTRO =         0.03687735
  eigenvalues    EBANDS =       -89.84251872
  atomic energy  EATOM  =       197.04175453
  Solvation  Ediel_sol  =         0.00000000
  ---------------------------------------------------
  free energy    TOTEN  =       -23.98605501 eV

  energy without entropy =      -24.02293236  energy(sigma->0) =      -23.99834746


--------------------------------------------------------------------------------------------------------




--------------------------------------- Iteration      1(  20)  ---------------------------------------


    POTLOK:  cpu time    1.4232: real time    1.4265
    SETDIJ:  cpu time    0.0064: real time    0.0065
    EDDIAG:  cpu time    0.3484: real time    0.3492
  RMM-DIIS:  cpu time    1.1700: real time    1.1728
    ORTHCH:  cpu time    0.0118: real time    0.0118
       DOS:  cpu time    0.0002: real time    0.0002
    CHARGE:  cpu time    0.1353: real time    0.1356
    MIXING:  cpu time    0.0472: real time    0.0474
    --------------------------------------------
      LOOP:  cpu time    3.1425: real time    3.1499

 eigenvalue-minimisations  :    64
 total energy-change (2. order) :-0.1367413E-04  (-0.9674355E-06)
 number of electron       8.0000001 magnetization 
 augmentation part        0.1878680 magnetization 

 Broyden mixing:
  rms(total) = 0.77280E-04    rms(broyden)= 0.76424E-04
  rms(prec ) = 0.11372E-03
  weight for this iteration     100.00

 eigenvalues of (default mixing * dielectric matrix)
  average eigenvalue GAMMA=   2.1602
  8.2214  5.2972  3.5645  2.5092  2.2423  2.2423  1.2679  1.0918  1.0918  0.5730
  0.7021  0.7021  0.9798  0.9798  0.9379

 Free energy of the ion-electron system (eV)
  ---------------------------------------------------
  alpha Z        PSCENC =         0.25090710
  Ewald energy   TEWEN  =       129.68627230
  -Hartree energ DENC   =      -285.20618634
  -exchange      EXHF   =         0.00000000
  -V(xc)+E(xc)   XCENC  =        24.85506289
  PAW double counting   =       463.39977781     -464.19431522
  entropy T*S    EENTRO =         0.03687329
  eigenvalues    EBANDS =       -89.85621505
  atomic energy  EATOM  =       197.04175453
  Solvation  Ediel_sol  =         0.00000000
  ---------------------------------------------------
  free energy    TOTEN  =       -23.98606868 eV

  energy without entropy =      -24.02294197  energy(sigma->0) =      -23.99835978


--------------------------------------------------------------------------------------------------------




--------------------------------------- Iteration      1(  21)  ---------------------------------------


    POTLOK:  cpu time    1.4520: real time    1.4556
    SETDIJ:  cpu time    0.0065: real time    0.0065
    EDDIAG:  cpu time    0.3890: real time    0.3899
  RMM-DIIS:  cpu time    0.9643: real time    0.9666
    ORTHCH:  cpu time    0.0113: real time    0.0114
       DOS:  cpu time    0.0002: real time    0.0002
    CHARGE:  cpu time    0.1402: real time    0.1405
    MIXING:  cpu time    0.0470: real time    0.0471
    --------------------------------------------
      LOOP:  cpu time    3.0105: real time    3.0178

 eigenvalue-minimisations  :    48
 total energy-change (2. order) :-0.7057804E-05  (-0.7199596E-07)
 number of electron       8.0000001 magnetization 
 augmentation part        0.1878702 magnetization 

 Broyden mixing:
  rms(total) = 0.14370E-03    rms(broyden)= 0.14364E-03
  rms(prec ) = 0.19127E-03
  weight for this iteration     100.00

 eigenvalues of (default mixing * dielectric matrix)
  average eigenvalue GAMMA=   2.1726
  8.3443  5.3274  3.9253  2.9101  2.4388  1.7499  1.7499  1.2969  1.0998  1.0998
  0.5730  0.7023  0.7023  0.9517  0.9517  0.9387

 Free energy of the ion-electron system (eV)
  ---------------------------------------------------
  alpha Z        PSCENC =         0.25090710
  Ewald energy   TEWEN  =       129.68627230
  -Hartree energ DENC   =      -285.20675884
  -exchange      EXHF   =         0.00000000
  -V(xc)+E(xc)   XCENC  =        24.85512070
  PAW double counting   =       463.43832822     -464.23284574
  entropy T*S    EENTRO =         0.03687472
  eigenvalues    EBANDS =       -89.85572874
  atomic energy  EATOM  =       197.04175453
  Solvation  Ediel_sol  =         0.00000000
  ---------------------------------------------------
  free energy    TOTEN  =       -23.98607574 eV

  energy without entropy =      -24.02295046  energy(sigma->0) =      -23.99836731


--------------------------------------------------------------------------------------------------------




--------------------------------------- Iteration      1(  22)  ---------------------------------------


    POTLOK:  cpu time    1.4287: real time    1.4321
    SETDIJ:  cpu time    0.0064: real time    0.0064
    EDDIAG:  cpu time    0.3772: real time    0.3781
  RMM-DIIS:  cpu time    1.0079: real time    1.0103
    ORTHCH:  cpu time    0.0113: real time    0.0113
       DOS:  cpu time    0.0002: real time    0.0002
    CHARGE:  cpu time    0.1462: real time    0.1466
    MIXING:  cpu time    0.0523: real time    0.0525
    --------------------------------------------
      LOOP:  cpu time    3.0303: real time    3.0374

 eigenvalue-minimisations  :    48
 total energy-change (2. order) :-0.1792773E-05  (-0.1634025E-07)
 number of electron       8.0000001 magnetization 
 augmentation part        0.1878706 magnetization 

 Broyden mixing:
  rms(total) = 0.66313E-04    rms(broyden)= 0.66000E-04
  rms(prec ) = 0.83350E-04
  weight for this iteration     100.00

 eigenvalues of (default mixing * dielectric matrix)
  average eigenvalue GAMMA=   2.1004
  8.3746  5.3561  3.8880  2.7389  2.4497  2.1433  1.5516  1.3421  1.1094  1.1094
  0.5730  0.7026  0.7026  0.9808  0.9306  0.9306  0.8230

 Free energy of the ion-electron system (eV)
  ---------------------------------------------------
  alpha Z        PSCENC =         0.25090710
  Ewald energy   TEWEN  =       129.68627230
  -Hartree energ DENC   =      -285.20849003
  -exchange      EXHF   =         0.00000000
  -V(xc)+E(xc)   XCENC  =        24.85518085
  PAW double counting   =       463.43621635     -464.23075001
  entropy T*S    EENTRO =         0.03687307
  eigenvalues    EBANDS =       -89.85404170
  atomic energy  EATOM  =       197.04175453
  Solvation  Ediel_sol  =         0.00000000
  ---------------------------------------------------
  free energy    TOTEN  =       -23.98607753 eV

  energy without entropy =      -24.02295060  energy(sigma->0) =      -23.99836856


--------------------------------------------------------------------------------------------------------




--------------------------------------- Iteration      1(  23)  ---------------------------------------


    POTLOK:  cpu time    1.4372: real time    1.4406
    SETDIJ:  cpu time    0.0065: real time    0.0065
    EDDIAG:  cpu time    0.3682: real time    0.3691
  RMM-DIIS:  cpu time    0.8305: real time    0.8325
    ORTHCH:  cpu time    0.0114: real time    0.0114
       DOS:  cpu time    0.0002: real time    0.0002
    --------------------------------------------
      LOOP:  cpu time    2.6540: real time    2.6603

 eigenvalue-minimisations  :    32
 total energy-change (2. order) :-0.5057479E-06  ( 0.0000000E+00)
 number of electron       8.0000001 magnetization 
 augmentation part        0.1878706 magnetization 

 Free energy of the ion-electron system (eV)
  ---------------------------------------------------
  alpha Z        PSCENC =         0.25090710
  Ewald energy   TEWEN  =       129.68627230
  -Hartree energ DENC   =      -285.20887613
  -exchange      EXHF   =         0.00000000
  -V(xc)+E(xc)   XCENC  =        24.85516392
  PAW double counting   =       463.42489283     -464.21943978
  entropy T*S    EENTRO =         0.03687268
  eigenvalues    EBANDS =       -89.85362550
  atomic energy  EATOM  =       197.04175453
  Solvation  Ediel_sol  =         0.00000000
  ---------------------------------------------------
  free energy    TOTEN  =       -23.98607804 eV

  energy without entropy =      -24.02295072  energy(sigma->0) =      -23.99836893


--------------------------------------------------------------------------------------------------------




 average (electrostatic) potential at core
  the test charge radii are     0.5201  0.6991
  (the norm of the test charge is              1.0000)
       1 -41.4879       2 -41.4396       3 -41.6747       4 -41.6232       5 -57.8966



 E-fermi :  -9.1413     XC(G=0):  -0.7190     alpha+bet : -0.2182


 k-point     1 :       0.2500    0.2500    0.2500
  band No.  band energies     occupation 
      1     -16.9659      2.00000
      2      -9.3644      2.06666
      3      -9.3065      1.99269
      4      -9.2876      1.94063
      5      -0.2982      0.00000
      6       0.5785      0.00000
      7       0.6802      0.00000
      8       0.7269      0.00000

 k-point     2 :      -0.2500    0.2500    0.2500
  band No.  band energies     occupation 
      1     -16.9659      2.00000
      2      -9.3644      2.06666
      3      -9.3064      1.99258
      4      -9.2877      1.94098
      5      -0.3046      0.00000
      6       0.5938      0.00000
      7       0.6963      0.00000
      8       0.7334      0.00000

 k-point     3 :       0.2500   -0.2500    0.2500
  band No.  band energies     occupation 
      1     -16.9659      2.00000
      2      -9.3644      2.06666
      3      -9.3064      1.99263
      4      -9.2876      1.94062
      5      -0.3006      0.00000
      6       0.5866      0.00000
      7       0.6903      0.00000
      8       0.7220      0.00000

 k-point     4 :      -0.2500   -0.2500    0.2500
  band No.  band energies     occupation 
      1     -16.9658      2.00000
      2      -9.3644      2.06666
      3      -9.3064      1.99244
      4      -9.2876      1.94078
      5      -0.2949      0.00000
      6       0.5759      0.00000
      7       0.6723      0.00000
      8       0.7149      0.00000


--------------------------------------------------------------------------------------------------------


 soft charge-density along one line, spin component           1
         0         1         2         3         4         5         6         7         8         9
 total charge-density along one line

 pseudopotential strength for first ion, spin component:           1
 -2.340  -4.033  -0.001  -0.001   0.001
 -4.033  -6.863  -0.003  -0.004   0.002
 -0.001  -0.003  -0.336   0.002  -0.001
 -0.001  -0.004   0.002  -0.334  -0.001
  0.001   0.002  -0.001  -0.001  -0.337
 total augmentation occupancy for first ion, spin component:           1
  4.205  -0.875   0.236   0.362  -0.169
 -0.875   0.195  -0.051  -0.077   0.035
  0.236  -0.051   0.019   0.016  -0.008
  0.362  -0.077   0.016   0.036  -0.013
 -0.169   0.035  -0.008  -0.013   0.015


------------------------ aborting loop because EDIFF is reached ----------------------------------------


    CHARGE:  cpu time    0.1556: real time    0.1560
    FORLOC:  cpu time    0.1006: real time    0.1008
    FORNL :  cpu time    0.4928: real time    0.4940
    STRESS:  cpu time    1.5527: real time    1.5564
    FORCOR:  cpu time    1.5344: real time    1.5380
    FORHAR:  cpu time    0.4999: real time    0.5011
    MIXING:  cpu time    0.0523: real time    0.0524
    OFIELD:  cpu time    0.0000: real time    0.0000

  FORCE on cell =-STRESS in cart. coord.  units (eV):
  Direction    XX          YY          ZZ          XY          YZ          ZX
  --------------------------------------------------------------------------------------
  Alpha Z     0.25091     0.25091     0.25091
  Ewald      40.72459    44.59842    44.36323    -1.87305     1.06537    -0.05994
  Hartree    92.85215    96.05468    96.30308    -1.26762     0.64435     0.02929
  E(xc)     -27.32453   -27.33529   -27.34017    -0.01072     0.00603    -0.00014
  Local    -192.29534  -199.31721  -199.17287     3.44109    -1.80549    -0.05469
  n-local   -15.51334   -16.15173   -15.58289    -0.06235    -0.12669     0.18464
  augment     0.11350     0.11275     0.10725    -0.00378     0.00225     0.00072
  Kinetic   100.93299   102.70399   101.99178    -0.37384     0.03847     0.22678
  Fock        0.00000     0.00000     0.00000     0.00000     0.00000     0.00000
  -------------------------------------------------------------------------------------
  Total      -0.25907     0.91652     0.92032    -0.15027    -0.17572     0.32667
  in kB      -0.42990     1.52090     1.52721    -0.24936    -0.29160     0.54209
  external pressure =        0.87 kB  Pullay stress =        0.00 kB

  kinetic pressure (ideal gas correction) =      0.03 kB
  total pressure  =      0.90 kB
  Total+kin.    -0.403       1.575       1.532      -0.258      -0.304       0.542

 VOLUME and BASIS-vectors are now :
 -----------------------------------------------------------------------------
  energy-cutoff  :      400.00
  volume of cell :      965.50
      direct lattice vectors                 reciprocal lattice vectors
    10.090562823  0.000000000  0.000000000     0.099102500  0.002971913  0.000112695
    -0.294233864  9.811631716  0.000000000     0.000000000  0.101919847 -0.001757257
    -0.016131876  0.168140456  9.752043306     0.000000000 -0.000000000  0.102542613

  length of vectors
    10.090562823  9.816042507  9.753506041     0.099147115  0.101934994  0.102542613


 FORCES acting on ions
    electron-ion (+dipol)            ewald-force                    non-local-force                 convergence-correction
 -----------------------------------------------------------------------------------------------
   -.183E+02 0.296E+02 0.409E+02   0.203E+02 -.332E+02 -.456E+02   -.271E+01 0.321E+01 0.487E+01   0.848E-04 -.793E-04 -.697E-04
   0.520E+02 -.592E+01 0.287E+01   -.568E+02 0.662E+01 -.321E+01   0.466E+01 -.207E+00 0.351E+00   -.102E-03 -.175E-04 0.120E-04
   -.236E+02 -.484E+02 0.104E+01   0.262E+02 0.543E+02 -.110E+01   -.228E+01 -.499E+01 0.362E+00   0.101E-03 0.719E-04 -.104E-04
   -.131E+02 0.241E+02 -.463E+02   0.148E+02 -.271E+02 0.518E+02   -.156E+01 0.232E+01 -.486E+01   0.556E-04 -.967E-04 0.108E-03
   0.391E+01 0.344E+00 0.160E+01   -.446E+01 -.637E+00 -.195E+01   -.608E+00 0.643E+00 0.468E+00   0.824E-03 -.737E-03 0.281E-03
 -----------------------------------------------------------------------------------------------
   0.847E+00 -.175E+00 0.965E-01   -.355E-14 -.355E-14 0.000E+00   -.250E+01 0.979E+00 0.119E+01   0.963E-03 -.859E-03 0.321E-03


 POSITION                                       TOTAL-FORCE (eV/Angst)
 -----------------------------------------------------------------------------------
      5.30603      4.05725      3.51659        -0.683890     -0.351120      0.223073
      3.83431      4.78758      4.27678        -0.169186      0.487818      0.010179
      5.40391      5.62665      4.32012         0.301895      0.994954      0.305794
      5.20239      4.17378      5.26231         0.055414     -0.678021      0.630873
      4.93514      4.65635      4.33658        -1.156631      0.349779      0.117828
 -----------------------------------------------------------------------------------
    total drift:                               -1.652399      0.803411      1.287747


--------------------------------------------------------------------------------------------------------



  FREE ENERGIE OF THE ION-ELECTRON SYSTEM (eV)
  ---------------------------------------------------
  free  energy   TOTEN  =       -23.98607804 eV

  energy  without entropy=      -24.02295072  energy(sigma->0) =      -23.99836893



--------------------------------------------------------------------------------------------------------


    POTLOK:  cpu time    1.4575: real time    1.4609


--------------------------------------------------------------------------------------------------------


           RANDOM_SEED =         578496062                0                0
           RANDOM_SEED =         578496062               30                0
   IONSTEP:  cpu time    0.0016: real time    0.0017

  ENERGY OF THE ELECTRON-ION-THERMOSTAT SYSTEM (eV)
  ---------------------------------------------------
% ion-electron   TOTEN  =       -23.986078  see above
  kinetic energy EKIN   =         0.037143
  kin. lattice  EKIN_LAT=         0.000000  (temperature   71.84 K)
  nose potential ES     =         0.000000
  nose kinetic   EPS    =         0.000015
  ---------------------------------------------------
  total energy   ETOTAL =       -23.948920 eV

  maximum distance moved by ions :      0.52E-02


 mean value of Nose-termostat <S>:     1.005 mean value of <T> :    71.838
 mean temperature <T/S>/<1/S>  :    71.838

    WAVPRE:  cpu time    0.4010: real time    0.4058
    FEWALD:  cpu time    0.0003: real time    0.0003
    ORTHCH:  cpu time    0.1610: real time    0.1614
     LOOP+:  cpu time   76.7752: real time   76.9627


--------------------------------------- Iteration      2(   1)  ---------------------------------------


    POTLOK:  cpu time    1.4549: real time    1.4585
    SETDIJ:  cpu time    0.0065: real time    0.0065
     EDDAV:  cpu time    1.6262: real time    1.6301
       DOS:  cpu time    0.0002: real time    0.0002
    CHARGE:  cpu time    0.1465: real time    0.1469
    MIXING:  cpu time    0.0384: real time    0.0385
    --------------------------------------------
      LOOP:  cpu time    3.2729: real time    3.2808

 eigenvalue-minimisations  :    64
 total energy-change (2. order) :-0.9923523E-02  (-0.2302540E+00)
 number of electron       8.0000002 magnetization 
 augmentation part        0.1808404 magnetization 

 Broyden mixing:
  rms(total) = 0.77761E-01    rms(broyden)= 0.77657E-01
  rms(prec ) = 0.99699E-01
  weight for this iteration     100.00

 Free energy of the ion-electron system (eV)
  ---------------------------------------------------
  alpha Z        PSCENC =         0.25090710
  Ewald energy   TEWEN  =       124.80803507
  -Hartree energ DENC   =      -282.35235339
  -exchange      EXHF   =         0.00000000
  -V(xc)+E(xc)   XCENC  =        24.71107456
  PAW double counting   =       463.41974484     -464.21431179
  entropy T*S    EENTRO =         0.02583555
  eigenvalues    EBANDS =       -87.68668754
  atomic energy  EATOM  =       197.04175453
  Solvation  Ediel_sol  =         0.00000000
  ---------------------------------------------------
  free energy    TOTEN  =       -23.99600106 eV

  energy without entropy =      -24.02183661  energy(sigma->0) =      -24.00461291


--------------------------------------------------------------------------------------------------------




--------------------------------------- Iteration      2(   2)  ---------------------------------------


    POTLOK:  cpu time    1.3346: real time    1.3378
    SETDIJ:  cpu time    0.0066: real time    0.0067
    EDDIAG:  cpu time    0.3508: real time    0.3517
  RMM-DIIS:  cpu time    1.2399: real time    1.2429
    ORTHCH:  cpu time    0.0113: real time    0.0113
       DOS:  cpu time    0.0002: real time    0.0002
    CHARGE:  cpu time    0.1374: real time    0.1377
    MIXING:  cpu time    0.0529: real time    0.0530
    --------------------------------------------
      LOOP:  cpu time    3.1337: real time    3.1412

 eigenvalue-minimisations  :    64
 total energy-change (2. order) : 0.1169996E-01  (-0.1247616E-01)
 number of electron       8.0000002 magnetization 
 augmentation part        0.1832536 magnetization 

 Broyden mixing:
  rms(total) = 0.40828E-01    rms(broyden)= 0.40811E-01
  rms(prec ) = 0.51720E-01
  weight for this iteration     100.00

 eigenvalues of (default mixing * dielectric matrix)
  average eigenvalue GAMMA=   2.1531
  8.3873  5.3887  4.1589  2.8951  2.8951  2.3569  2.2676  2.0555  1.3253  1.3253
  1.1119  1.1119  0.5730  0.7023  0.7023  0.9504  0.9504  0.9450  0.8065

 Free energy of the ion-electron system (eV)
  ---------------------------------------------------
  alpha Z        PSCENC =         0.25090710
  Ewald energy   TEWEN  =       124.80803507
  -Hartree energ DENC   =      -279.91260777
  -exchange      EXHF   =         0.00000000
  -V(xc)+E(xc)   XCENC  =        24.57823345
  PAW double counting   =       444.88648378     -445.65766710
  entropy T*S    EENTRO =         0.02449080
  eigenvalues    EBANDS =       -90.00393095
  atomic energy  EATOM  =       197.04175453
  Solvation  Ediel_sol  =         0.00000000
  ---------------------------------------------------
  free energy    TOTEN  =       -23.98430109 eV

  energy without entropy =      -24.00879189  energy(sigma->0) =      -23.99246469


--------------------------------------------------------------------------------------------------------




--------------------------------------- Iteration      2(   3)  ---------------------------------------


    POTLOK:  cpu time    1.3225: real time    1.3256
    SETDIJ:  cpu time    0.0065: real time    0.0066
    EDDIAG:  cpu time    0.3476: real time    0.3484
  RMM-DIIS:  cpu time    1.1916: real time    1.1945
    ORTHCH:  cpu time    0.0113: real time    0.0113
       DOS:  cpu time    0.0002: real time    0.0002
    CHARGE:  cpu time    0.1299: real time    0.1302
    MIXING:  cpu time    0.0560: real time    0.0562
    --------------------------------------------
      LOOP:  cpu time    3.0656: real time    3.0729

 eigenvalue-minimisations  :    64
 total energy-change (2. order) : 0.1009308E-02  (-0.3501433E-02)
 number of electron       8.0000002 magnetization 
 augmentation part        0.1820423 magnetization 

 Broyden mixing:
  rms(total) = 0.28380E-01    rms(broyden)= 0.28328E-01
  rms(prec ) = 0.38432E-01
  weight for this iteration     100.00

 eigenvalues of (default mixing * dielectric matrix)
  average eigenvalue GAMMA=   2.1110
  8.3966  5.3845  4.2016  2.9160  2.9160  2.5540  2.3217  2.0734  0.5730  1.2986
  1.2986  1.1123  1.1123  0.7023  0.7023  0.9468  0.9468  0.9823  0.9823  0.7978

 Free energy of the ion-electron system (eV)
  ---------------------------------------------------
  alpha Z        PSCENC =         0.25090710
[...]
  rms(prec ) = 0.68287E-03
  weight for this iteration     100.00

 eigenvalues of (default mixing * dielectric matrix)
  average eigenvalue GAMMA=   2.4534
  6.0577  5.3993  5.3993  5.7444  0.7194  0.7194  3.6332  3.6332  0.9041  0.9041
  1.0549  1.0549  1.2612  1.2612  1.8228  1.8228  1.2332  1.2332  3.2331  3.2331
  1.4018  2.1988  2.1988  1.6273  1.6273  1.8820  1.8820  2.9346  2.9346  2.9738
  2.6575  2.6575  2.1478  2.1478  2.7948  2.7948  2.7512  2.6743  2.6743  2.5950
  2.5950  2.4850  2.4850  2.5411  2.5411  2.4125  2.4125  2.4129

 Free energy of the ion-electron system (eV)
  ---------------------------------------------------
  alpha Z        PSCENC =         0.25090710
  Ewald energy   TEWEN  =       132.50524188
  -Hartree energ DENC   =      -287.65018680
  -exchange      EXHF   =         0.00000000
  -V(xc)+E(xc)   XCENC  =        24.98373377
  PAW double counting   =       474.78231014     -475.58968772
  entropy T*S    EENTRO =         0.01239637
  eigenvalues    EBANDS =       -90.34901615
  atomic energy  EATOM  =       197.04175453
  Solvation  Ediel_sol  =         0.00000000
  ---------------------------------------------------
  free energy    TOTEN  =       -24.01254688 eV

  energy without entropy =      -24.02494325  energy(sigma->0) =      -24.01667900


--------------------------------------------------------------------------------------------------------




--------------------------------------- Iteration     10(  11)  ---------------------------------------


    POTLOK:  cpu time    1.7436: real time    1.7479
    SETDIJ:  cpu time    0.0066: real time    0.0066
    EDDIAG:  cpu time    0.4264: real time    0.4274
  RMM-DIIS:  cpu time    1.5623: real time    1.5788
    ORTHCH:  cpu time    0.0149: real time    0.0150
       DOS:  cpu time    0.0004: real time    0.0004
    CHARGE:  cpu time    0.1760: real time    0.1765
    MIXING:  cpu time    0.2058: real time    0.2062
    --------------------------------------------
      LOOP:  cpu time    4.1361: real time    4.1589

 eigenvalue-minimisations  :    60
 total energy-change (2. order) :-0.7534643E-05  (-0.3891212E-06)
 number of electron       8.0000000 magnetization 
 augmentation part        0.1935286 magnetization 

 Broyden mixing:
  rms(total) = 0.20386E-03    rms(broyden)= 0.20368E-03
  rms(prec ) = 0.27342E-03
  weight for this iteration     100.00

 eigenvalues of (default mixing * dielectric matrix)
  average eigenvalue GAMMA=   2.4596
  6.0186  6.0186  5.4616  5.4616  3.8430  3.8430  0.7064  0.7064  1.0277  1.0277
  0.9097  0.9654  1.0681  1.0681  1.8214  1.8214  1.3712  1.3712  1.3472  1.6719
  1.6719  3.0804  3.0804  2.1925  2.1925  1.7217  1.7217  3.1270  2.9349  2.9349
  2.8962  2.8962  2.5914  2.5914  2.1580  2.1580  2.2224  2.7243  2.7243  2.4251
  2.4251  2.7189  2.5984  2.5984  2.4215  2.5432  2.5432  2.5489  2.5489

 Free energy of the ion-electron system (eV)
  ---------------------------------------------------
  alpha Z        PSCENC =         0.25090710
  Ewald energy   TEWEN  =       132.50524188
  -Hartree energ DENC   =      -287.65773581
  -exchange      EXHF   =         0.00000000
  -V(xc)+E(xc)   XCENC  =        24.98400578
  PAW double counting   =       474.71207933     -475.51953902
  entropy T*S    EENTRO =         0.01238725
  eigenvalues    EBANDS =       -90.34165546
  atomic energy  EATOM  =       197.04175453
  Solvation  Ediel_sol  =         0.00000000
  ---------------------------------------------------
  free energy    TOTEN  =       -24.01255441 eV

  energy without entropy =      -24.02494166  energy(sigma->0) =      -24.01668350


--------------------------------------------------------------------------------------------------------




--------------------------------------- Iteration     10(  12)  ---------------------------------------


    POTLOK:  cpu time    1.7305: real time    1.7606
    SETDIJ:  cpu time    0.0166: real time    0.0167
    EDDIAG:  cpu time    0.5073: real time    0.5104
  RMM-DIIS:  cpu time    1.2398: real time    1.3204
    ORTHCH:  cpu time    0.0213: real time    0.0214
       DOS:  cpu time    0.0003: real time    0.0003
    CHARGE:  cpu time    0.2204: real time    0.2209
    MIXING:  cpu time    0.1910: real time    0.1914
    --------------------------------------------
      LOOP:  cpu time    3.9273: real time    4.0421

 eigenvalue-minimisations  :    48
 total energy-change (2. order) :-0.3670166E-05  (-0.5680323E-07)
 number of electron       8.0000000 magnetization 
 augmentation part        0.1935279 magnetization 

 Broyden mixing:
  rms(total) = 0.15514E-03    rms(broyden)= 0.15511E-03
  rms(prec ) = 0.19958E-03
  weight for this iteration     100.00

 eigenvalues of (default mixing * dielectric matrix)
  average eigenvalue GAMMA=   2.4535
  5.6048  5.6048  5.0842  4.1944  3.7059  0.8566  0.8566  0.7239  0.9531  0.9531
  1.1612  1.1612  1.6048  1.6048  2.1619  2.1619  1.4380  1.4380  3.4232  3.0583
  3.0583  1.8091  2.4924  2.4924  1.9971  1.9971  2.5563  2.5563  2.8602  2.8602
  2.9059  2.2800  2.2800  2.2096  2.4155  2.4155  2.7154  2.7154  2.6990  2.6177
  2.6177  2.4965  2.4965  2.5561  2.5561

 Free energy of the ion-electron system (eV)
  ---------------------------------------------------
  alpha Z        PSCENC =         0.25090710
  Ewald energy   TEWEN  =       132.50524188
  -Hartree energ DENC   =      -287.65796644
  -exchange      EXHF   =         0.00000000
  -V(xc)+E(xc)   XCENC  =        24.98400253
  PAW double counting   =       474.68152880     -475.48896780
  entropy T*S    EENTRO =         0.01238110
  eigenvalues    EBANDS =       -90.34143980
  atomic energy  EATOM  =       197.04175453
  Solvation  Ediel_sol  =         0.00000000
  ---------------------------------------------------
  free energy    TOTEN  =       -24.01255808 eV

  energy without entropy =      -24.02493919  energy(sigma->0) =      -24.01668512


--------------------------------------------------------------------------------------------------------




--------------------------------------- Iteration     10(  13)  ---------------------------------------


    POTLOK:  cpu time    1.8359: real time    1.8959
    SETDIJ:  cpu time    0.0104: real time    0.0159
    EDDIAG:  cpu time    0.5306: real time    0.5777
  RMM-DIIS:  cpu time    1.2422: real time    1.3069
    ORTHCH:  cpu time    0.0205: real time    0.0205
       DOS:  cpu time    0.0003: real time    0.0003
    CHARGE:  cpu time    0.2041: real time    0.2047
    MIXING:  cpu time    0.1969: real time    0.2129
    --------------------------------------------
      LOOP:  cpu time    4.0409: real time    4.2348

 eigenvalue-minimisations  :    48
 total energy-change (2. order) :-0.1340554E-05  (-0.6136506E-07)
 number of electron       8.0000000 magnetization 
 augmentation part        0.1935289 magnetization 

 Broyden mixing:
  rms(total) = 0.98654E-04    rms(broyden)= 0.98640E-04
  rms(prec ) = 0.12629E-03
  weight for this iteration     100.00

 eigenvalues of (default mixing * dielectric matrix)
  average eigenvalue GAMMA=   2.4424
  5.5422  5.5422  5.2010  4.1817  1.0507  1.0507  0.6605  0.6605  3.7432  1.0321
  1.0321  1.0237  1.0237  3.4931  2.0929  2.0929  1.2926  1.3989  3.1143  3.1143
  1.7325  1.9245  1.9245  2.7213  2.7213  2.4302  2.4302  2.0789  2.0789  2.0678
  2.9011  2.9011  2.9152  2.7581  2.6769  2.6769  2.3286  2.3872  2.3872  2.6934
  2.4475  2.5911  2.5911  2.4995  2.5706  2.5706

 Free energy of the ion-electron system (eV)
  ---------------------------------------------------
  alpha Z        PSCENC =         0.25090710
  Ewald energy   TEWEN  =       132.50524188
  -Hartree energ DENC   =      -287.65602229
  -exchange      EXHF   =         0.00000000
  -V(xc)+E(xc)   XCENC  =        24.98393740
  PAW double counting   =       474.72401579     -475.53143690
  entropy T*S    EENTRO =         0.01238585
  eigenvalues    EBANDS =       -90.34334279
  atomic energy  EATOM  =       197.04175453
  Solvation  Ediel_sol  =         0.00000000
  ---------------------------------------------------
  free energy    TOTEN  =       -24.01255942 eV

  energy without entropy =      -24.02494527  energy(sigma->0) =      -24.01668804


--------------------------------------------------------------------------------------------------------




--------------------------------------- Iteration     10(  14)  ---------------------------------------


    POTLOK:  cpu time    1.8817: real time    1.9823
    SETDIJ:  cpu time    0.0114: real time    0.0115
    EDDIAG:  cpu time    0.4207: real time    0.4217
  RMM-DIIS:  cpu time    1.1761: real time    1.1788
    ORTHCH:  cpu time    0.0115: real time    0.0116
       DOS:  cpu time    0.0002: real time    0.0002
    --------------------------------------------
      LOOP:  cpu time    3.5016: real time    3.6061

 eigenvalue-minimisations  :    48
 total energy-change (2. order) :-0.5462859E-06  (-0.9170826E-08)
 number of electron       8.0000000 magnetization 
 augmentation part        0.1935289 magnetization 

 Free energy of the ion-electron system (eV)
  ---------------------------------------------------
  alpha Z        PSCENC =         0.25090710
  Ewald energy   TEWEN  =       132.50524188
  -Hartree energ DENC   =      -287.65609564
  -exchange      EXHF   =         0.00000000
  -V(xc)+E(xc)   XCENC  =        24.98393546
  PAW double counting   =       474.72450452     -475.53192769
  entropy T*S    EENTRO =         0.01238364
  eigenvalues    EBANDS =       -90.34326377
  atomic energy  EATOM  =       197.04175453
  Solvation  Ediel_sol  =         0.00000000
  ---------------------------------------------------
  free energy    TOTEN  =       -24.01255997 eV

  energy without entropy =      -24.02494361  energy(sigma->0) =      -24.01668785


--------------------------------------------------------------------------------------------------------




 average (electrostatic) potential at core
  the test charge radii are     0.5201  0.6991
  (the norm of the test charge is              1.0000)
       1 -41.8130       2 -41.5609       3 -41.4330       4 -41.7556       5 -57.8238



 E-fermi :  -8.8505     XC(G=0):  -0.7097     alpha+bet : -0.2182


 k-point     1 :       0.2500    0.2500    0.2500
  band No.  band energies     occupation 
      1     -17.0699      2.00000
      2      -9.7284      2.00000
      3      -9.3550      2.00209
      4      -9.0179      1.99797
      5      -0.2826      0.00000
      6       0.5934      0.00000
      7       0.6807      0.00000
      8       0.7331      0.00000

 k-point     2 :      -0.2500    0.2500    0.2500
  band No.  band energies     occupation 
      1     -17.0699      2.00000
      2      -9.7285      2.00000
      3      -9.3551      2.00209
      4      -9.0179      1.99783
      5      -0.2896      0.00000
      6       0.6015      0.00000
      7       0.7040      0.00000
      8       0.7491      0.00000

 k-point     3 :       0.2500   -0.2500    0.2500
  band No.  band energies     occupation 
      1     -17.0700      2.00000
      2      -9.7283      2.00000
      3      -9.3551      2.00209
      4      -9.0180      1.99805
      5      -0.2854      0.00000
      6       0.5977      0.00000
      7       0.6944      0.00000
      8       0.7357      0.00000

 k-point     4 :      -0.2500   -0.2500    0.2500
  band No.  band energies     occupation 
      1     -17.0699      2.00000
      2      -9.7284      2.00000
      3      -9.3551      2.00209
      4      -9.0178      1.99779
      5      -0.2791      0.00000
      6       0.5786      0.00000
      7       0.6808      0.00000
      8       0.7296      0.00000


--------------------------------------------------------------------------------------------------------


 soft charge-density along one line, spin component           1
         0         1         2         3         4         5         6         7         8         9
 total charge-density along one line

 pseudopotential strength for first ion, spin component:           1
 -2.343  -4.039  -0.001  -0.001   0.001
 -4.039  -6.874  -0.004  -0.004   0.003
 -0.001  -0.004  -0.335   0.003  -0.001
 -0.001  -0.004   0.003  -0.335  -0.002
  0.001   0.003  -0.001  -0.002  -0.337
 total augmentation occupancy for first ion, spin component:           1
  3.265  -0.502   0.244   0.297  -0.219
 -0.502   0.096  -0.040  -0.048   0.030
  0.244  -0.040   0.025   0.017  -0.014
  0.297  -0.048   0.017   0.033  -0.017
 -0.219   0.030  -0.014  -0.017   0.026


------------------------ aborting loop because EDIFF is reached ----------------------------------------


    CHARGE:  cpu time    0.1806: real time    0.1811
    FORLOC:  cpu time    0.1599: real time    0.1603
    FORNL :  cpu time    0.6742: real time    0.7554
    STRESS:  cpu time    1.9465: real time    1.9512
    FORCOR:  cpu time    1.8698: real time    1.9665
    FORHAR:  cpu time    0.6539: real time    0.6554
    MIXING:  cpu time    0.1453: real time    0.1457
    OFIELD:  cpu time    0.0000: real time    0.0000

  FORCE on cell =-STRESS in cart. coord.  units (eV):
  Direction    XX          YY          ZZ          XY          YZ          ZX
  --------------------------------------------------------------------------------------
  Alpha Z     0.25091     0.25091     0.25091
  Ewald      45.06782    44.59345    42.84394    -2.34258    -0.82871    -7.20132
  Hartree    94.71940    96.79810    96.13800    -0.66881    -0.09407    -1.79543
  E(xc)     -27.44598   -27.47304   -27.49823    -0.00402    -0.00659    -0.03450
  Local    -197.93707  -200.05599  -197.53669     2.43532     0.76177     7.52599
  n-local   -16.29605   -15.86772   -15.40255    -0.28675    -0.07204     0.02449
  augment     0.11823     0.12034     0.11576     0.00505     0.00142     0.01192
  Kinetic   101.29261   102.75384   103.99913     0.17071     0.25035     1.66922
  Fock        0.00000     0.00000     0.00000     0.00000     0.00000     0.00000
  -------------------------------------------------------------------------------------
  Total      -0.23013     1.11988     2.91025    -0.69109     0.01213     0.20037
  in kB      -0.38188     1.85836     4.82935    -1.14681     0.02013     0.33249
  external pressure =        2.10 kB  Pullay stress =        0.00 kB

  kinetic pressure (ideal gas correction) =      0.16 kB
  total pressure  =      2.26 kB
  Total+kin.    -0.233       1.916       5.103      -1.163       0.073       0.324

 VOLUME and BASIS-vectors are now :
 -----------------------------------------------------------------------------
  energy-cutoff  :      400.00
  volume of cell :      965.50
      direct lattice vectors                 reciprocal lattice vectors
    10.090562823  0.000000000  0.000000000     0.099102500  0.002971913  0.000112695
    -0.294233864  9.811631716  0.000000000     0.000000000  0.101919847 -0.001757257
    -0.016131876  0.168140456  9.752043306     0.000000000 -0.000000000  0.102542613

  length of vectors
    10.090562823  9.816042507  9.753506041     0.099147115  0.101934994  0.102542613


 FORCES acting on ions
    electron-ion (+dipol)            ewald-force                    non-local-force                 convergence-correction
 -----------------------------------------------------------------------------------------------
   -.207E+02 0.336E+02 0.382E+02   0.232E+02 -.383E+02 -.436E+02   -.225E+01 0.307E+01 0.378E+01   0.876E-05 -.405E-05 0.119E-03
   0.507E+02 -.155E+02 0.790E+01   -.562E+02 0.172E+02 -.911E+01   0.469E+01 -.176E+01 0.875E+00   0.443E-04 0.392E-04 0.730E-04
   -.321E+02 -.425E+02 -.137E+01   0.353E+02 0.469E+02 0.169E+01   -.377E+01 -.421E+01 -.384E+00   -.737E-04 0.747E-05 -.936E-05
   0.295E+00 0.266E+02 -.481E+02   -.929E-01 -.301E+02 0.548E+02   -.232E+00 0.292E+01 -.519E+01   -.307E-04 -.334E-04 -.375E-04
   0.194E+01 -.348E+01 0.350E+01   -.219E+01 0.436E+01 -.376E+01   -.249E+00 0.100E+01 0.857E+00   -.150E-03 0.142E-03 0.528E-03
 -----------------------------------------------------------------------------------------------
   0.175E+00 -.123E+01 0.109E+00   -.178E-14 0.711E-14 -.711E-14   -.180E+01 0.102E+01 -.592E-01   -.202E-03 0.151E-03 0.673E-03


 POSITION                                       TOTAL-FORCE (eV/Angst)
 -----------------------------------------------------------------------------------
      5.33455      4.00712      3.60172         0.241944     -1.586105     -1.592861
      3.90345      4.96975      4.17838        -0.774376     -0.067250     -0.332686
      5.59669      5.52968      4.36556        -0.570662      0.193524     -0.072349
      4.92945      4.14496      5.26045        -0.029312     -0.625574      1.460029
      4.93368      4.65583      4.33405        -0.491461      1.880221      0.588211
 -----------------------------------------------------------------------------------
    total drift:                               -1.623866     -0.205183      0.050343


--------------------------------------------------------------------------------------------------------



  FREE ENERGIE OF THE ION-ELECTRON SYSTEM (eV)
  ---------------------------------------------------
  free  energy   TOTEN  =       -24.01255997 eV

  energy  without entropy=      -24.02494361  energy(sigma->0) =      -24.01668785

 d Force =-0.3306783E-01[-0.218E+00, 0.152E+00]  d Energy =-0.3777303E-01 0.471E-02
 d Force =-0.6760581E+01[-0.693E+01,-0.659E+01]  d Ewald  =-0.6758084E+01-0.250E-02


--------------------------------------------------------------------------------------------------------


    POTLOK:  cpu time    1.8457: real time    1.8500


--------------------------------------------------------------------------------------------------------


           RANDOM_SEED =         578496062               30                0
   IONSTEP:  cpu time    0.0001: real time    0.0001

  ENERGY OF THE ELECTRON-ION-THERMOSTAT SYSTEM (eV)
  ---------------------------------------------------
% ion-electron   TOTEN  =       -24.012560  see above
  kinetic energy EKIN   =         0.060239
  kin. lattice  EKIN_LAT=         0.000000  (temperature  116.51 K)
  nose potential ES     =         0.053320
  nose kinetic   EPS    =         0.170872
  ---------------------------------------------------
  total energy   ETOTAL =       -23.728129 eV

  maximum distance moved by ions :      0.45E-02


 mean value of Nose-termostat <S>:     3.743 mean value of <T> :   116.506
 mean temperature <T/S>/<1/S>  :   116.506

    WAVPRE:  cpu time    0.5337: real time    0.5886
    FEWALD:  cpu time    0.0007: real time    0.0007
    ORTHCH:  cpu time    0.2296: real time    0.2302
 Prediction of Wavefunctions ALPHA= 0.084 BETA=-0.007
    POTLOK:  cpu time    1.8345: real time    1.8388
    EDDIAG:  cpu time    0.4122: real time    0.4132
     LOOP+:  cpu time   66.8670: real time   68.2461
    4ORBIT:  cpu time    0.0000: real time    0.0000

 total amount of memory used by VASP MPI-rank0   277867. kBytes
=======================================================================

   base      :      30000. kBytes
   nonlr-proj:        144. kBytes
   fftplans  :      79272. kBytes
   grid      :     141424. kBytes
   one-center:         15. kBytes
   wavefun   :      27012. kBytes

  
  
 General timing and accounting informations for this job:
 ========================================================
  
                  Total CPU time used (sec):      607.267
                            User time (sec):      594.399
                          System time (sec):       12.868
                         Elapsed time (sec):      610.816
  
                   Maximum memory used (kb):      429852.
                   Average memory used (kb):           0.
  
                          Minor page faults:      2221521
                          Major page faults:            0
                 Voluntary context switches:          409
