<?xml version="1.0" encoding="ISO-8859-1"?>
<modeling>
 <generator>
  <i name="program" type="string">vasp </i>
  <i name="version" type="string">5.4.4.18Apr17-6-g9f103f2a35  </i>
  <i name="subversion" type="string">(build Jul 12 2018 13:43:46) complex            parallel </i>
  <i name="platform" type="string">LinuxGNU </i>
  <i name="date" type="string">2019 06 22 </i>
  <i name="time" type="string">02:17:36 </i>
 </generator>
 <incar>
  <i type="int" name="ISTART">     0</i>
  <i type="string" name="PREC">a</i>
  <i type="string" name="ALGO">fast</i>
  <i type="int" name="MAXMIX">    50</i>
  <i type="int" name="ICHARG">     2</i>
  <i type="int" name="IBRION">     0</i>
  <i name="EDIFF">      0.00000100</i>
  <i type="int" name="NSW">    10</i>
  <i type="int" name="ISIF">     2</i>
  <i type="int" name="ISYM">     0</i>
  <i type="int" name="NBLOCK">     1</i>
  <i type="int" name="KBLOCK">   100</i>
  <i name="ENCUT">    400.00000000</i>
  <i name="POTIM">      2.00000000</i>
  <i name="TEBEG">     50.00000000</i>
  <i name="TEEND">     50.00000000</i>
  <i name="SMASS">      0.00000000</i>
  <i type="logical" name="LREAL"> T  </i>
  <i type="int" name="ISMEAR">     1</i>
  <i name="SIGMA">      0.20000000</i>
  <i name="KSPACING">      0.50000000</i>
  <i type="logical" name="KGAMMA"> F  </i>
  <i name="PSTRESS">      0.00000000</i>
  <i type="logical" name="LWAVE"> F  </i>
  <i type="logical" name="LCHARG"> F  </i>
  <v type="int" name="KPOINT_BSE">    -1     0     0     0</v>
 </incar>
 <structure name="primitive_cell" >
  <crystal>
   <varray name="basis" >
    <v>      10.09056282       0.00000000       0.00000000 </v>
    <v>      -0.29423386       9.81163172       0.00000000 </v>
    <v>      -0.01613188       0.16814046       9.75204331 </v>
   </varray>
   <i name="volume">    965.49993799 </i>
   <varray name="rec_basis" >
    <v>       0.09910250       0.00297191       0.00011270 </v>
    <v>       0.00000000       0.10191985      -0.00175726 </v>
    <v>       0.00000000      -0.00000000       0.10254261 </v>
   </varray>
  </crystal>
  <varray name="positions" >
   <v>      -0.46170501       0.40733482       0.36059984 </v>
   <v>      -0.49658831       0.46695428       0.44468397 </v>
   <v>      -0.47143278       0.41614404      -0.46038901 </v>
   <v>      -0.44724979      -0.43412409       0.44299648 </v>
   <v>       0.39470001       0.48043433       0.43855220 </v>
  </varray>
 </structure>
 <varray name="primitive_index" >
  <v type="int" >        1 </v>
  <v type="int" >        5 </v>
  <v type="int" >        4 </v>
  <v type="int" >        3 </v>
  <v type="int" >        2 </v>
 </varray>
 <kpoints>
  <generation param="Monkhorst-Pack">
   <v type="int" name="divisions">       2        2        2 </v>
   <v name="usershift">      0.00000000       0.00000000       0.00000000 </v>
   <v name="genvec1">      0.50000000       0.00000000       0.00000000 </v>
   <v name="genvec2">      0.00000000       0.50000000       0.00000000 </v>
   <v name="genvec3">      0.00000000       0.00000000       0.50000000 </v>
   <v name="shift">      0.50000000       0.50000000       0.50000000 </v>
  </generation>
  <varray name="kpointlist" >
   <v>       0.25000000       0.25000000       0.25000000 </v>
   <v>      -0.25000000       0.25000000       0.25000000 </v>
   <v>       0.25000000      -0.25000000       0.25000000 </v>
   <v>      -0.25000000      -0.25000000       0.25000000 </v>
  </varray>
  <varray name="weights" >
   <v>       0.25000000 </v>
   <v>       0.25000000 </v>
   <v>       0.25000000 </v>
   <v>       0.25000000 </v>
  </varray>
 </kpoints>
 <parameters>
  <separator name="general" >
   <i type="string" name="SYSTEM">unknown system</i>
   <i type="logical" name="LCOMPAT"> F  </i>
  </separator>
  <separator name="electronic" >
   <i type="string" name="PREC">a</i>
   <i name="ENMAX">    400.00000000</i>
   <i name="ENAUG">    644.87300000</i>
   <i name="EDIFF">      0.00000100</i>
   <i type="int" name="IALGO">    68</i>
   <i type="int" name="IWAVPR">    12</i>
   <i type="int" name="NBANDS">     8</i>
   <i name="NELECT">      8.00000000</i>
   <i type="int" name="TURBO">     0</i>
   <i type="int" name="IRESTART">     0</i>
   <i type="int" name="NREBOOT">     0</i>
   <i type="int" name="NMIN">     0</i>
   <i name="EREF">      0.00000000</i>
   <separator name="electronic smearing" >
    <i type="int" name="ISMEAR">     1</i>
    <i name="SIGMA">      0.20000000</i>
    <i name="KSPACING">      0.50000000</i>
    <i type="logical" name="KGAMMA"> F  </i>
   </separator>
   <separator name="electronic projectors" >
    <i type="logical" name="LREAL"> T  </i>
    <v name="ROPT">      0.00000000      0.00000000</v>
    <i type="int" name="LMAXPAW">  -100</i>
    <i type="int" name="LMAXMIX">     2</i>
    <i type="logical" name="NLSPLINE"> F  </i>
   </separator>
   <separator name="electronic startup" >
    <i type="int" name="ISTART">     0</i>
    <i type="int" name="ICHARG">     2</i>
    <i type="int" name="INIWAV">     1</i>
   </separator>
   <separator name="electronic spin" >
    <i type="int" name="ISPIN">     1</i>
    <i type="logical" name="LNONCOLLINEAR"> F  </i>
    <v name="MAGMOM">      1.00000000      1.00000000      1.00000000      1.00000000      1.00000000</v>
    <i name="NUPDOWN">     -1.00000000</i>
    <i type="logical" name="LSORBIT"> F  </i>
    <v name="SAXIS">      0.00000000      0.00000000      1.00000000</v>
    <i type="logical" name="LSPIRAL"> F  </i>
    <v name="QSPIRAL">      0.00000000      0.00000000      0.00000000</v>
    <i type="logical" name="LZEROZ"> F  </i>
   </separator>
   <separator name="electronic exchange-correlation" >
    <i type="logical" name="LASPH"> F  </i>
    <i type="logical" name="LMETAGGA"> F  </i>
   </separator>
   <separator name="electronic convergence" >
    <i type="int" name="NELM">    60</i>
    <i type="int" name="NELMDL">    -5</i>
    <i type="int" name="NELMIN">     2</i>
    <i name="ENINI">    400.00000000</i>
    <separator name="electronic convergence detail" >
     <i type="logical" name="LDIAG"> T  </i>
     <i type="logical" name="LSUBROT"> F  </i>
     <i name="WEIMIN">      0.00100000</i>
     <i name="EBREAK">      0.00000003</i>
     <i name="DEPER">      0.30000000</i>
     <i type="int" name="NRMM">     4</i>
     <i name="TIME">      0.40000000</i>
    </separator>
   </separator>
   <separator name="electronic mixer" >
    <i name="AMIX">      0.40000000</i>
    <i name="BMIX">      1.00000000</i>
    <i name="AMIN">      0.10000000</i>
    <i name="AMIX_MAG">      1.60000000</i>
    <i name="BMIX_MAG">      1.00000000</i>
    <separator name="electronic mixer details" >
     <i type="int" name="IMIX">     4</i>
     <i type="logical" name="MIXFIRST"> F  </i>
     <i type="int" name="MAXMIX">    50</i>
     <i name="WC">    100.00000000</i>
     <i type="int" name="INIMIX">     1</i>
     <i type="int" name="MIXPRE">     1</i>
     <i type="int" name="MREMOVE">     5</i>
    </separator>
   </separator>
   <separator name="electronic dipolcorrection" >
    <i type="logical" name="LDIPOL"> F  </i>
    <i type="logical" name="LMONO"> F  </i>
    <i type="int" name="IDIPOL">     0</i>
    <i name="EPSILON">      1.00000000</i>
    <v name="DIPOL">   -100.00000000   -100.00000000   -100.00000000</v>
    <i name="EFIELD">      0.00000000</i>
   </separator>
  </separator>
  <separator name="grids" >
   <i type="int" name="NGX">    70</i>
   <i type="int" name="NGY">    64</i>
   <i type="int" name="NGZ">    64</i>
   <i type="int" name="NGXF">   140</i>
   <i type="int" name="NGYF">   128</i>
   <i type="int" name="NGZF">   128</i>
   <i type="logical" name="ADDGRID"> F  </i>
  </separator>
  <separator name="ionic" >
   <i type="int" name="NSW">    10</i>
   <i type="int" name="IBRION">     0</i>
   <i type="int" name="MDALGO">     0</i>
   <i type="int" name="ISIF">     2</i>
   <i name="PSTRESS">      0.00000000</i>
   <i name="EDIFFG">      0.00001000</i>
   <i type="int" name="NFREE">     0</i>
   <i name="POTIM">      2.00000000</i>
   <i name="SMASS">      0.00158857</i>
   <i name="SCALEE">      1.00000000</i>
  </separator>
  <separator name="ionic md" >
   <i name="TEBEG">     50.00000000</i>
   <i name="TEEND">     50.00000000</i>
   <i type="int" name="NBLOCK">     1</i>
   <i type="int" name="KBLOCK">     1</i>
   <i type="int" name="NPACO">   256</i>
   <i name="APACO">     16.00000000</i>
  </separator>
  <separator name="symmetry" >
   <i type="int" name="ISYM">     0</i>
   <i name="SYMPREC">      0.00001000</i>
  </separator>
  <separator name="dos" >
   <i type="int" name="LORBIT">     0</i>
   <v name="RWIGS">     -1.00000000     -1.00000000</v>
   <i type="int" name="NEDOS">   301</i>
   <i name="EMIN">     10.00000000</i>
   <i name="EMAX">    -10.00000000</i>
   <i name="EFERMI">      0.00000000</i>
  </separator>
  <separator name="writing" >
   <i type="int" name="NWRITE">     2</i>
   <i type="logical" name="LWAVE"> F  </i>
   <i type="logical" name="LDOWNSAMPLE"> F  </i>
   <i type="logical" name="LCHARG"> F  </i>
   <i type="logical" name="LPARD"> F  </i>
   <i type="logical" name="LVTOT"> F  </i>
   <i type="logical" name="LVHAR"> F  </i>
   <i type="logical" name="LELF"> F  </i>
   <i type="logical" name="LOPTICS"> F  </i>
   <v name="STM">      0.00000000      0.00000000      0.00000000      0.00000000      0.00000000      0.00000000      0.00000000</v>
  </separator>
  <separator name="performance" >
   <i type="int" name="NPAR">     1</i>
   <i type="int" name="NSIM">     4</i>
   <i type="int" name="NBLK">    -1</i>
   <i type="logical" name="LPLANE"> T  </i>
   <i type="logical" name="LSCALAPACK"> T  </i>
   <i type="logical" name="LSCAAWARE"> F  </i>
   <i type="logical" name="LSCALU"> F  </i>
   <i type="logical" name="LASYNC"> F  </i>
   <i type="logical" name="LORBITALREAL"> F  </i>
  </separator>
  <separator name="miscellaneous" >
   <i type="int" name="IDIOT">     3</i>
   <i type="int" name="ISPECIAL">     0</i>
   <i type="logical" name="LMUSIC"> F  </i>
   <v name="POMASS">      1.00000000     12.01100000</v>
   <v name="DARWINR">      0.00000000      0.00000000</v>
   <v name="DARWINV">      1.00000000      1.00000000</v>
   <i type="logical" name="LCORR"> T  </i>
  </separator>
  <i type="logical" name="GGA_COMPAT"> T  </i>
  <i type="logical" name="LBERRY"> F  </i>
  <i type="int" name="ICORELEVEL">     0</i>
  <i type="logical" name="LDAU"> F  </i>
  <i type="int" name="I_CONSTRAINED_M">     0</i>
  <separator name="electronic exchange-correlation" >
   <i type="string" name="GGA">--</i>
   <i type="int" name="VOSKOWN">     0</i>
   <i type="logical" name="LHFCALC"> F  </i>
   <i type="string" name="PRECFOCK"></i>
   <i type="logical" name="LSYMGRAD"> F  </i>
   <i type="logical" name="LHFONE"> F  </i>
   <i type="logical" name="LRHFCALC"> F  </i>
   <i type="logical" name="LTHOMAS"> F  </i>
   <i type="logical" name="LMODELHF"> F  </i>
   <i name="ENCUT4O">     -1.00000000</i>
   <i type="int" name="EXXOEP">     0</i>
   <i type="int" name="FOURORBIT">     0</i>
   <i name="AEXX">      0.00000000</i>
   <i name="HFALPHA">      0.00000000</i>
   <i name="MCALPHA">      0.00000000</i>
   <i name="ALDAX">      1.00000000</i>
   <i name="AGGAX">      1.00000000</i>
   <i name="ALDAC">      1.00000000</i>
   <i name="AGGAC">      1.00000000</i>
   <i type="int" name="NKREDX">     1</i>
   <i type="int" name="NKREDY">     1</i>
   <i type="int" name="NKREDZ">     1</i>
   <i type="logical" name="SHIFTRED"> F  </i>
   <i type="logical" name="ODDONLY"> F  </i>
   <i type="logical" name="EVENONLY"> F  </i>
   <i type="int" name="LMAXFOCK">     0</i>
   <i type="int" name="NMAXFOCKAE">     0</i>
   <i type="logical" name="LFOCKAEDFT"> F  </i>
   <i name="HFSCREEN">      0.00000000</i>
   <i name="HFSCREENC">      0.00000000</i>
   <i type="int" name="NBANDSGWLOW">     0</i>
  </separator>
  <separator name="vdW DFT" >
   <i type="logical" name="LUSE_VDW"> F  </i>
   <i name="Zab_VDW">     -0.84910000</i>
   <i name="PARAM1">      0.12340000</i>
   <i name="PARAM2">      1.00000000</i>
   <i name="PARAM3">      0.00000000</i>
  </separator>
  <separator name="model GW" >
   <i type="int" name="MODEL_GW">     0</i>
   <i name="MODEL_EPS0">    115.85999256</i>
   <i name="MODEL_ALPHA">      1.00000000</i>
  </separator>
  <separator name="linear response parameters" >
   <i type="logical" name="LEPSILON"> F  </i>
   <i type="logical" name="LRPA"> F  </i>
   <i type="logical" name="LNABLA"> F  </i>
   <i type="logical" name="LVEL"> F  </i>
   <i type="int" name="KINTER">     0</i>
   <i name="CSHIFT">      0.10000000</i>
   <i name="OMEGAMAX">     -1.00000000</i>
   <i name="DEG_THRESHOLD">      0.00200000</i>
   <i name="RTIME">     -0.10000000</i>
   <i name="WPLASMAI">      0.00000000</i>
   <v name="DFIELD">      0.00000000      0.00000000      0.00000000</v>
   <v name="WPLASMA">      0.00000000      0.00000000      0.00000000      0.00000000      0.00000000      0.00000000      0.00000000      0.00000000      0.00000000</v>
  </separator>
  <separator name="orbital magnetization" >
   <i type="logical" name="NUCIND"> F  </i>
   <v name="MAGPOS">      0.00000000      0.00000000      0.00000000</v>
   <i type="logical" name="LNICSALL"> T  </i>
   <i type="logical" name="ORBITALMAG"> F  </i>
   <i type="logical" name="LMAGBLOCH"> F  </i>
   <i type="logical" name="LCHIMAG"> F  </i>
   <i type="logical" name="LGAUGE"> T  </i>
   <i type="int" name="MAGATOM">     0</i>
   <v name="MAGDIPOL">      0.00000000      0.00000000      0.00000000</v>
   <v name="AVECCONST">      0.00000000      0.00000000      0.00000000</v>
  </separator>
  <separator name="response functions" >
   <i type="logical" name="LADDER"> F  </i>
   <i type="logical" name="LRPAFORCE"> F  </i>
   <i type="logical" name="LFXC"> F  </i>
   <i type="logical" name="LHARTREE"> T  </i>
   <i type="int" name="IBSE">     0</i>
   <v type="int" name="KPOINT">    -1     0     0     0</v>
   <i type="logical" name="LTCTE"> F  </i>
   <i type="logical" name="LTETE"> F  </i>
   <i type="logical" name="LTRIPLET"> F  </i>
   <i type="logical" name="LFXCEPS"> F  </i>
   <i type="logical" name="LFXHEG"> F  </i>
   <i type="int" name="NATURALO">     2</i>
   <i type="logical" name="L2ORDER"> F  </i>
   <i type="logical" name="LMP2LT"> F  </i>
   <i type="logical" name="LUSEW"> F  </i>
   <i name="ENCUTGW">     -2.00000000</i>
   <i name="ENCUTGWSOFT">     -2.00000000</i>
   <i name="ENCUTLF">     -1.00000000</i>
   <i type="int" name="LMAXMP2">    -1</i>
   <i name="SCISSOR">      0.00000000</i>
   <i type="int" name="NOMEGA">     0</i>
   <i type="int" name="NOMEGAR">     0</i>
   <i type="int" name="NBANDSGW">    -1</i>
   <i type="int" name="NBANDSO">    -1</i>
   <i type="int" name="NBANDSV">    -1</i>
   <i type="int" name="NELM">     1</i>
   <i type="int" name="NELMHF">     1</i>
   <i type="int" name="DIM">     3</i>
   <i type="int" name="ANTIRES">     0</i>
   <i name="OMEGAMAX">    -30.00000000</i>
   <i name="OMEGAMIN">    -30.00000000</i>
   <i name="OMEGATL">   -200.00000000</i>
   <i type="int" name="OMEGAGRID">   140</i>
   <i name="CSHIFT">     -0.10000000</i>
   <i type="logical" name="SELFENERGY"> F  </i>
   <i type="logical" name="LSPECTRAL"> F  </i>
   <i type="logical" name="LSPECTRALGW"> F  </i>
   <i type="logical" name="LSINGLES"> F  </i>
   <i type="logical" name="LFERMIGW"> F  </i>
   <i type="logical" name="ODDONLYGW"> F  </i>
   <i type="logical" name="EVENONLYGW"> F  </i>
   <i type="int" name="NKREDLFX">     1</i>
   <i type="int" name="NKREDLFY">     1</i>
   <i type="int" name="NKREDLFZ">     1</i>
   <i type="int" name="MAXMEM">  2800</i>
   <i type="int" name="TELESCOPE">     0</i>
   <i type="int" name="TAUPAR">     1</i>
   <i type="int" name="OMEGAPAR">    -1</i>
   <i name="LAMBDA">      1.00000000</i>
  </separator>
  <separator name="External order field" >
   <i name="OFIELD_KAPPA">      0.00000000</i>
   <v name="OFIELD_K">      0.00000000      0.00000000      0.00000000</v>
   <i name="OFIELD_Q6_NEAR">      0.00000000</i>
   <i name="OFIELD_Q6_FAR">      0.00000000</i>
   <i name="OFIELD_A">      0.00000000</i>
  </separator>
 </parameters>
 <atominfo>
  <atoms>       5 </atoms>
  <types>       2 </types>
  <array name="atoms" >
   <dimension dim="1">ion</dimension>
   <field type="string">element</field>
   <field type="int">atomtype</field>
   <set>
    <rc><c>H </c><c>   1</c></rc>
    <rc><c>H </c><c>   1</c></rc>
    <rc><c>H </c><c>   1</c></rc>
    <rc><c>H </c><c>   1</c></rc>
    <rc><c>C </c><c>   2</c></rc>
   </set>
  </array>
  <array name="atomtypes" >
   <dimension dim="1">type</dimension>
   <field type="int">atomspertype</field>
   <field type="string">element</field>
   <field>mass</field>
   <field>valence</field>
   <field type="string">pseudopotential</field>
   <set>
    <rc><c>   4</c><c>H </c><c>      1.00000000</c><c>      1.00000000</c><c>  PAW_PBE H 15Jun2001                   </c></rc>
    <rc><c>   1</c><c>C </c><c>     12.01100000</c><c>      4.00000000</c><c>  PAW_PBE C 08Apr2002                   </c></rc>
   </set>
  </array>
 </atominfo>
 <structure name="initialpos" >
  <crystal>
   <varray name="basis" >
    <v>      10.09056282       0.00000000       0.00000000 </v>
    <v>      -0.29423386       9.81163172       0.00000000 </v>
    <v>      -0.01613188       0.16814046       9.75204331 </v>
   </varray>
   <i name="volume">    965.49993799 </i>
   <varray name="rec_basis" >
    <v>       0.09910250       0.00297191       0.00011270 </v>
    <v>       0.00000000       0.10191985      -0.00175726 </v>
    <v>       0.00000000      -0.00000000       0.10254261 </v>
   </varray>
  </crystal>
  <varray name="positions" >
   <v>       0.53829499       0.40733482       0.36059984 </v>
   <v>       0.39470001       0.48043433       0.43855220 </v>
   <v>       0.55275021       0.56587591       0.44299648 </v>
   <v>       0.52856722       0.41614404       0.53961099 </v>
   <v>       0.50341169       0.46695428       0.44468397 </v>
  </varray>
  <varray name="velocities" >
   <v>       0.00126108      -0.00099629       0.00052405 </v>
   <v>      -0.00173039       0.00175465      -0.00012491 </v>
   <v>      -0.00116095      -0.00224235       0.00082230 </v>
   <v>       0.00015300      -0.00177527       0.00007267 </v>
   <v>       0.00012299       0.00027136      -0.00010774 </v>
  </varray>
 </structure>
 <calculation>
  <scstep>
   <time name="dav">    2.50    2.50</time>
   <time name="total">    4.01    4.02</time>
   <energy>
    <i name="alphaZ">      0.25090710 </i>
    <i name="ewald">    129.68627230 </i>
    <i name="hartreedc">   -243.81173393 </i>
    <i name="XCdc">     22.06749085 </i>
    <i name="pawpsdc">    117.05815612 </i>
    <i name="pawaedc">   -117.66307307 </i>
    <i name="eentropy">     -0.02199283 </i>
    <i name="bandstr">    -94.69746564 </i>
    <i name="atom">    197.04175453 </i>
    <i name="e_fr_energy">      9.91031544 </i>
    <i name="e_wo_entrp">      9.93230827 </i>
    <i name="e_0_energy">      9.91764639 </i>
   </energy>
  </scstep>
  <scstep>
   <time name="dav">    1.82    1.83</time>
   <time name="total">    1.82    1.83</time>
   <energy>
    <i name="e_fr_energy">    -23.35521955 </i>
    <i name="e_wo_entrp">    -23.35811850 </i>
    <i name="e_0_energy">    -23.35618586 </i>
   </energy>
  </scstep>
  <scstep>
   <time name="dav">    1.99    2.00</time>
   <time name="total">    1.99    2.00</time>
   <energy>
    <i name="e_fr_energy">    -27.50311661 </i>
    <i name="e_wo_entrp">    -27.52502653 </i>
    <i name="e_0_energy">    -27.51041992 </i>
   </energy>
  </scstep>
  <scstep>
   <time name="dav">    3.00    3.01</time>
   <time name="total">    3.00    3.01</time>
   <energy>
    <i name="e_fr_energy">    -27.67678245 </i>
    <i name="e_wo_entrp">    -27.71093056 </i>
    <i name="e_0_energy">    -27.68816515 </i>
   </energy>
  </scstep>
  <scstep>
   <time name="dav">    2.28    2.28</time>
   <time name="total">    2.47    2.48</time>
   <energy>
    <i name="e_fr_energy">    -27.67685085 </i>
    <i name="e_wo_entrp">    -27.71100055 </i>
    <i name="e_0_energy">    -27.68823408 </i>
   </energy>
  </scstep>
  <scstep>
   <time name="diag">    0.35    0.35</time>
   <time name="diis">    1.22    1.22</time>
   <time name="orth">    0.01    0.01</time>
   <time name="total">    3.29    3.29</time>
   <energy>
    <i name="e_fr_energy">    -24.64868760 </i>
    <i name="e_wo_entrp">    -24.68625720 </i>
    <i name="e_0_energy">    -24.66121080 </i>
   </energy>
  </scstep>
  <scstep>
   <time name="diag">    0.33    0.33</time>
   <time name="diis">    1.23    1.23</time>
   <time name="orth">    0.01    0.01</time>
   <time name="total">    3.29    3.29</time>
   <energy>
    <i name="e_fr_energy">    -24.13947544 </i>
    <i name="e_wo_entrp">    -24.17990222 </i>
    <i name="e_0_energy">    -24.15295103 </i>
   </energy>
  </scstep>
  <scstep>
   <time name="diag">    0.34    0.34</time>
   <time name="diis">    1.25    1.25</time>
   <time name="orth">    0.01    0.01</time>
   <time name="total">    3.32    3.33</time>
   <energy>
    <i name="e_fr_energy">    -24.02558794 </i>
    <i name="e_wo_entrp">    -24.06632684 </i>
    <i name="e_0_energy">    -24.03916758 </i>
   </energy>
  </scstep>
  <scstep>
   <time name="diag">    0.33    0.33</time>
   <time name="diis">    1.24    1.25</time>
   <time name="orth">    0.01    0.01</time>
   <time name="total">    3.31    3.32</time>
   <energy>
    <i name="e_fr_energy">    -23.98077074 </i>
    <i name="e_wo_entrp">    -24.01793944 </i>
    <i name="e_0_energy">    -23.99316031 </i>
   </energy>
  </scstep>
  <scstep>
   <time name="diag">    0.34    0.34</time>
   <time name="diis">    1.20    1.20</time>
   <time name="orth">    0.01    0.01</time>
   <time name="total">    3.27    3.28</time>
   <energy>
    <i name="e_fr_energy">    -23.97853702 </i>
    <i name="e_wo_entrp">    -24.01533738 </i>
    <i name="e_0_energy">    -23.99080381 </i>
   </energy>
  </scstep>
  <scstep>
   <time name="diag">    0.36    0.36</time>
   <time name="diis">    1.15    1.15</time>
   <time name="orth">    0.01    0.01</time>
   <time name="total">    3.24    3.25</time>
   <energy>
    <i name="e_fr_energy">    -23.97774539 </i>
    <i name="e_wo_entrp">    -24.01487944 </i>
    <i name="e_0_energy">    -23.99012340 </i>
   </energy>
  </scstep>
  <scstep>
   <time name="diag">    0.37    0.38</time>
   <time name="diis">    1.17    1.18</time>
   <time name="orth">    0.01    0.01</time>
   <time name="total">    3.23    3.24</time>
   <energy>
    <i name="e_fr_energy">    -23.97306637 </i>
    <i name="e_wo_entrp">    -24.00991838 </i>
    <i name="e_0_energy">    -23.98535038 </i>
   </energy>
  </scstep>
  <scstep>
   <time name="diag">    0.38    0.38</time>
   <time name="diis">    1.27    1.27</time>
   <time name="orth">    0.01    0.01</time>
   <time name="total">    3.26    3.26</time>
   <energy>
    <i name="e_fr_energy">    -23.97771483 </i>
    <i name="e_wo_entrp">    -24.01481724 </i>
    <i name="e_0_energy">    -23.99008230 </i>
   </energy>
  </scstep>
  <scstep>
   <time name="diag">    0.37    0.37</time>
   <time name="diis">    1.30    1.30</time>
   <time name="orth">    0.01    0.01</time>
   <time name="total">    3.18    3.19</time>
   <energy>
    <i name="e_fr_energy">    -23.98263501 </i>
    <i name="e_wo_entrp">    -24.01945065 </i>
    <i name="e_0_energy">    -23.99490689 </i>
   </energy>
  </scstep>
  <scstep>
   <time name="diag">    0.36    0.36</time>
   <time name="diis">    1.25    1.25</time>
   <time name="orth">    0.01    0.01</time>
   <time name="total">    3.18    3.19</time>
   <energy>
    <i name="e_fr_energy">    -23.98383785 </i>
    <i name="e_wo_entrp">    -24.02079430 </i>
    <i name="e_0_energy">    -23.99615666 </i>
   </energy>
  </scstep>
  <scstep>
   <time name="diag">    0.37    0.37</time>
   <time name="diis">    1.24    1.24</time>
   <time name="orth">    0.01    0.01</time>
   <time name="total">    3.16    3.17</time>
   <energy>
    <i name="e_fr_energy">    -23.98538586 </i>
    <i name="e_wo_entrp">    -24.02247748 </i>
    <i name="e_0_energy">    -23.99774973 </i>
   </energy>
  </scstep>
  <scstep>
   <time name="diag">    0.36    0.37</time>
   <time name="diis">    1.28    1.28</time>
   <time name="orth">    0.01    0.01</time>
   <time name="total">    3.18    3.18</time>
   <energy>
    <i name="e_fr_energy">    -23.98578389 </i>
    <i name="e_wo_entrp">    -24.02263911 </i>
    <i name="e_0_energy">    -23.99806896 </i>
   </energy>
  </scstep>
  <scstep>
   <time name="diag">    0.34    0.35</time>
   <time name="diis">    1.28    1.28</time>
   <time name="orth">    0.01    0.01</time>
   <time name="total">    3.14    3.14</time>
   <energy>
    <i name="e_fr_energy">    -23.98594961 </i>
    <i name="e_wo_entrp">    -24.02282335 </i>
    <i name="e_0_energy">    -23.99824086 </i>
   </energy>
  </scstep>
  <scstep>
   <time name="diag">    0.37    0.37</time>
   <time name="diis">    1.22    1.23</time>
   <time name="orth">    0.01    0.01</time>
   <time name="total">    3.17    3.18</time>
   <energy>
    <i name="e_fr_energy">    -23.98605501 </i>
    <i name="e_wo_entrp">    -24.02293236 </i>
    <i name="e_0_energy">    -23.99834746 </i>
   </energy>
  </scstep>
  <scstep>
   <time name="diag">    0.35    0.35</time>
   <time name="diis">    1.17    1.17</time>
   <time name="orth">    0.01    0.01</time>
   <time name="total">    3.14    3.15</time>
   <energy>
    <i name="e_fr_energy">    -23.98606868 </i>
    <i name="e_wo_entrp">    -24.02294197 </i>
    <i name="e_0_energy">    -23.99835978 </i>
   </energy>
  </scstep>
  <scstep>
   <time name="diag">    0.39    0.39</time>
   <time name="diis">    0.96    0.97</time>
   <time name="orth">    0.01    0.01</time>
   <time name="total">    3.01    3.02</time>
   <energy>
    <i name="e_fr_energy">    -23.98607574 </i>
    <i name="e_wo_entrp">    -24.02295046 </i>
    <i name="e_0_energy">    -23.99836731 </i>
   </energy>
  </scstep>
  <scstep>
   <time name="diag">    0.38    0.38</time>
   <time name="diis">    1.01    1.01</time>
   <time name="orth">    0.01    0.01</time>
   <time name="total">    3.03    3.04</time>
   <energy>
    <i name="e_fr_energy">    -23.98607753 </i>
    <i name="e_wo_entrp">    -24.02295060 </i>
    <i name="e_0_energy">    -23.99836856 </i>
   </energy>
  </scstep>
  <scstep>
   <time name="diag">    0.37    0.37</time>
   <time name="diis">    0.83    0.83</time>
   <time name="orth">    0.01    0.01</time>
   <time name="total">    2.65    2.66</time>
   <energy>
    <i name="alphaZ">      0.25090710 </i>
    <i name="ewald">    129.68627230 </i>
    <i name="hartreedc">   -285.20887613 </i>
    <i name="XCdc">     24.85516392 </i>
    <i name="pawpsdc">    463.42489283 </i>
    <i name="pawaedc">   -464.21943978 </i>
    <i name="eentropy">      0.03687268 </i>
    <i name="bandstr">    -89.85362550 </i>
    <i name="atom">    197.04175453 </i>
    <i name="e_fr_energy">    -23.98607804 </i>
    <i name="e_wo_entrp">    -24.02295072 </i>
    <i name="e_0_energy">    -23.99836893 </i>
   </energy>
  </scstep>
  <structure>
   <crystal>
    <varray name="basis" >
     <v>      10.09056282       0.00000000       0.00000000 </v>
     <v>      -0.29423386       9.81163172       0.00000000 </v>
     <v>      -0.01613188       0.16814046       9.75204331 </v>
    </varray>
    <i name="volume">    965.49993799 </i>
    <varray name="rec_basis" >
     <v>       0.09910250       0.00297191       0.00011270 </v>
     <v>       0.00000000       0.10191985      -0.00175726 </v>
     <v>       0.00000000      -0.00000000       0.10254261 </v>
    </varray>
   </crystal>
   <varray name="positions" >
    <v>       0.53829499       0.40733482       0.36059984 </v>
    <v>       0.39470001       0.48043433       0.43855220 </v>
    <v>       0.55275021       0.56587591       0.44299648 </v>
    <v>       0.52856722       0.41614404       0.53961099 </v>
    <v>       0.50341169       0.46695428       0.44468397 </v>
   </varray>
  </structure>
  <varray name="forces" >
   <v>      -0.68389044      -0.35111951       0.22307255 </v>
   <v>      -0.16918591       0.48781832       0.01017947 </v>
   <v>       0.30189485       0.99495420       0.30579382 </v>
   <v>       0.05541404      -0.67802148       0.63087290 </v>
   <v>      -1.15663124       0.34977922       0.11782839 </v>
  </varray>
  <varray name="stress" >
   <v>      -0.42990326      -0.24935923       0.54208913 </v>
   <v>      -0.24935923       1.52090227      -0.29159926 </v>
   <v>       0.54208913      -0.29159926       1.52720828 </v>
  </varray>
  <energy>
   <i name="e_fr_energy">    -23.98607804 </i>
   <i name="e_wo_entrp">    -23.99836893 </i>
   <i name="e_0_energy">      0.03687268 </i>
   <i name="kinetic">      0.03714317 </i>
   <i name="lattice kinetic">      0.00000000 </i>
   <i name="nosepot">      0.00000000 </i>
   <i name="nosekinetic">      0.00001525 </i>
   <i name="total">    -23.94891962 </i>
  </energy>
  <dos>
   <i name="efermi">     -9.14132546 </i>
   <total>
    <array>
     <dimension dim="1">gridpoints</dimension>
     <dimension dim="2">spin</dimension>
     <field>energy</field>
     <field>total</field>
     <field>integrated</field>
     <set>
      <set comment="spin 1">
       <r>   -18.9659     0.0000     0.0000 </r>
       <r>   -18.8936     0.0000     0.0000 </r>
       <r>   -18.8212     0.0000     0.0000 </r>
       <r>   -18.7489     0.0000     0.0000 </r>
       <r>   -18.6766     0.0000     0.0000 </r>
       <r>   -18.6042    -0.0000    -0.0000 </r>
       <r>   -18.5319    -0.0000    -0.0000 </r>
       <r>   -18.4596    -0.0000    -0.0000 </r>
       <r>   -18.3872    -0.0000    -0.0000 </r>
       <r>   -18.3149    -0.0000    -0.0000 </r>
       <r>   -18.2426    -0.0000    -0.0000 </r>
       <r>   -18.1703    -0.0000    -0.0000 </r>
       <r>   -18.0979    -0.0000    -0.0000 </r>
       <r>   -18.0256    -0.0000    -0.0000 </r>
       <r>   -17.9533    -0.0000    -0.0000 </r>
       <r>   -17.8809    -0.0000    -0.0000 </r>
       <r>   -17.8086    -0.0000    -0.0000 </r>
       <r>   -17.7363    -0.0000    -0.0000 </r>
       <r>   -17.6639    -0.0001    -0.0000 </r>
       <r>   -17.5916    -0.0011    -0.0001 </r>
       <r>   -17.5193    -0.0077    -0.0006 </r>
       <r>   -17.4469    -0.0394    -0.0035 </r>
       <r>   -17.3746    -0.1431    -0.0138 </r>
       <r>   -17.3023    -0.3432    -0.0387 </r>
       <r>   -17.2300    -0.4117    -0.0684 </r>
       <r>   -17.1576     0.3850    -0.0406 </r>
       <r>   -17.0853     2.8090     0.1626 </r>
       <r>   -17.0130     6.2338     0.6135 </r>
       <r>   -16.9406     8.2711     1.2117 </r>
       <r>   -16.8683     7.1198     1.7267 </r>
       <r>   -16.7960     3.8240     2.0033 </r>
       <r>   -16.7236     0.9340     2.0709 </r>
       <r>   -16.6513    -0.3071     2.0486 </r>
       <r>   -16.5790    -0.4010     2.0196 </r>
       <r>   -16.5066    -0.1958     2.0055 </r>
       <r>   -16.4343    -0.0604     2.0011 </r>
       <r>   -16.3620    -0.0131     2.0002 </r>
       <r>   -16.2897    -0.0021     2.0000 </r>
       <r>   -16.2173    -0.0002     2.0000 </r>
       <r>   -16.1450    -0.0000     2.0000 </r>
       <r>   -16.0727    -0.0000     2.0000 </r>
       <r>   -16.0003    -0.0000     2.0000 </r>
       <r>   -15.9280    -0.0000     2.0000 </r>
       <r>   -15.8557    -0.0000     2.0000 </r>
       <r>   -15.7833    -0.0000     2.0000 </r>
       <r>   -15.7110    -0.0000     2.0000 </r>
       <r>   -15.6387     0.0000     2.0000 </r>
       <r>   -15.5663     0.0000     2.0000 </r>
       <r>   -15.4940     0.0000     2.0000 </r>
       <r>   -15.4217     0.0000     2.0000 </r>
       <r>   -15.3494     0.0000     2.0000 </r>
       <r>   -15.2770     0.0000     2.0000 </r>
       <r>   -15.2047     0.0000     2.0000 </r>
       <r>   -15.1324     0.0000     2.0000 </r>
       <r>   -15.0600     0.0000     2.0000 </r>
       <r>   -14.9877     0.0000     2.0000 </r>
       <r>   -14.9154     0.0000     2.0000 </r>
       <r>   -14.8430     0.0000     2.0000 </r>
       <r>   -14.7707     0.0000     2.0000 </r>
       <r>   -14.6984     0.0000     2.0000 </r>
       <r>   -14.6260     0.0000     2.0000 </r>
       <r>   -14.5537     0.0000     2.0000 </r>
       <r>   -14.4814     0.0000     2.0000 </r>
       <r>   -14.4091     0.0000     2.0000 </r>
       <r>   -14.3367     0.0000     2.0000 </r>
       <r>   -14.2644     0.0000     2.0000 </r>
       <r>   -14.1921     0.0000     2.0000 </r>
       <r>   -14.1197     0.0000     2.0000 </r>
       <r>   -14.0474     0.0000     2.0000 </r>
       <r>   -13.9751     0.0000     2.0000 </r>
       <r>   -13.9027     0.0000     2.0000 </r>
       <r>   -13.8304     0.0000     2.0000 </r>
       <r>   -13.7581     0.0000     2.0000 </r>
       <r>   -13.6857     0.0000     2.0000 </r>
       <r>   -13.6134     0.0000     2.0000 </r>
       <r>   -13.5411     0.0000     2.0000 </r>
       <r>   -13.4688     0.0000     2.0000 </r>
       <r>   -13.3964     0.0000     2.0000 </r>
       <r>   -13.3241     0.0000     2.0000 </r>
       <r>   -13.2518     0.0000     2.0000 </r>
       <r>   -13.1794     0.0000     2.0000 </r>
       <r>   -13.1071     0.0000     2.0000 </r>
       <r>   -13.0348     0.0000     2.0000 </r>
       <r>   -12.9624     0.0000     2.0000 </r>
       <r>   -12.8901     0.0000     2.0000 </r>
       <r>   -12.8178     0.0000     2.0000 </r>
       <r>   -12.7454     0.0000     2.0000 </r>
       <r>   -12.6731     0.0000     2.0000 </r>
       <r>   -12.6008     0.0000     2.0000 </r>
       <r>   -12.5284     0.0000     2.0000 </r>
       <r>   -12.4561     0.0000     2.0000 </r>
       <r>   -12.3838     0.0000     2.0000 </r>
       <r>   -12.3115     0.0000     2.0000 </r>
       <r>   -12.2391     0.0000     2.0000 </r>
       <r>   -12.1668     0.0000     2.0000 </r>
       <r>   -12.0945     0.0000     2.0000 </r>
       <r>   -12.0221     0.0000     2.0000 </r>
       <r>   -11.9498     0.0000     2.0000 </r>
       <r>   -11.8775     0.0000     2.0000 </r>
       <r>   -11.8051     0.0000     2.0000 </r>
       <r>   -11.7328     0.0000     2.0000 </r>
       <r>   -11.6605     0.0000     2.0000 </r>
       <r>   -11.5881     0.0000     2.0000 </r>
       <r>   -11.5158     0.0000     2.0000 </r>
       <r>   -11.4435     0.0000     2.0000 </r>
       <r>   -11.3712     0.0000     2.0000 </r>
       <r>   -11.2988     0.0000     2.0000 </r>
       <r>   -11.2265     0.0000     2.0000 </r>
       <r>   -11.1542     0.0000     2.0000 </r>
       <r>   -11.0818     0.0000     2.0000 </r>
       <r>   -11.0095    -0.0000     2.0000 </r>
       <r>   -10.9372    -0.0000     2.0000 </r>
       <r>   -10.8648    -0.0000     2.0000 </r>
       <r>   -10.7925    -0.0000     2.0000 </r>
       <r>   -10.7202    -0.0000     2.0000 </r>
       <r>   -10.6478    -0.0000     2.0000 </r>
       <r>   -10.5755    -0.0000     2.0000 </r>
       <r>   -10.5032    -0.0000     2.0000 </r>
       <r>   -10.4309    -0.0000     2.0000 </r>
       <r>   -10.3585    -0.0000     2.0000 </r>
       <r>   -10.2862    -0.0000     2.0000 </r>
       <r>   -10.2139    -0.0000     2.0000 </r>
       <r>   -10.1415    -0.0000     2.0000 </r>
       <r>   -10.0692    -0.0001     2.0000 </r>
       <r>    -9.9969    -0.0011     1.9999 </r>
       <r>    -9.9245    -0.0087     1.9993 </r>
       <r>    -9.8522    -0.0495     1.9957 </r>
       <r>    -9.7799    -0.2061     1.9808 </r>
       <r>    -9.7075    -0.6037     1.9371 </r>
       <r>    -9.6352    -1.1017     1.8574 </r>
       <r>    -9.5629    -0.5703     1.8162 </r>
       <r>    -9.4906     3.2401     2.0505 </r>
       <r>    -9.4182    11.4125     2.8760 </r>
       <r>    -9.3459    20.4934     4.3583 </r>
       <r>    -9.2736    23.8095     6.0805 </r>
       <r>    -9.2012    18.4774     7.4170 </r>
       <r>    -9.1289     8.9641     8.0654 </r>
       <r>    -9.0566     1.7478     8.1918 </r>
       <r>    -8.9842    -0.9834     8.1206 </r>
       <r>    -8.9119    -1.0193     8.0469 </r>
       <r>    -8.8396    -0.4712     8.0128 </r>
       <r>    -8.7672    -0.1418     8.0026 </r>
       <r>    -8.6949    -0.0303     8.0004 </r>
       <r>    -8.6226    -0.0047     8.0000 </r>
       <r>    -8.5503    -0.0006     8.0000 </r>
       <r>    -8.4779    -0.0000     8.0000 </r>
       <r>    -8.4056    -0.0000     8.0000 </r>
       <r>    -8.3333    -0.0000     8.0000 </r>
       <r>    -8.2609    -0.0000     8.0000 </r>
       <r>    -8.1886    -0.0000     8.0000 </r>
       <r>    -8.1163    -0.0000     8.0000 </r>
       <r>    -8.0439    -0.0000     8.0000 </r>
       <r>    -7.9716     0.0000     8.0000 </r>
       <r>    -7.8993     0.0000     8.0000 </r>
       <r>    -7.8269     0.0000     8.0000 </r>
       <r>    -7.7546     0.0000     8.0000 </r>
       <r>    -7.6823     0.0000     8.0000 </r>
       <r>    -7.6100     0.0000     8.0000 </r>
       <r>    -7.5376     0.0000     8.0000 </r>
       <r>    -7.4653     0.0000     8.0000 </r>
       <r>    -7.3930     0.0000     8.0000 </r>
       <r>    -7.3206     0.0000     8.0000 </r>
       <r>    -7.2483     0.0000     8.0000 </r>
       <r>    -7.1760     0.0000     8.0000 </r>
       <r>    -7.1036     0.0000     8.0000 </r>
       <r>    -7.0313     0.0000     8.0000 </r>
       <r>    -6.9590     0.0000     8.0000 </r>
       <r>    -6.8866     0.0000     8.0000 </r>
       <r>    -6.8143     0.0000     8.0000 </r>
       <r>    -6.7420     0.0000     8.0000 </r>
       <r>    -6.6697     0.0000     8.0000 </r>
       <r>    -6.5973     0.0000     8.0000 </r>
       <r>    -6.5250     0.0000     8.0000 </r>
       <r>    -6.4527     0.0000     8.0000 </r>
       <r>    -6.3803     0.0000     8.0000 </r>
       <r>    -6.3080     0.0000     8.0000 </r>
       <r>    -6.2357     0.0000     8.0000 </r>
       <r>    -6.1633     0.0000     8.0000 </r>
       <r>    -6.0910     0.0000     8.0000 </r>
       <r>    -6.0187     0.0000     8.0000 </r>
       <r>    -5.9463     0.0000     8.0000 </r>
       <r>    -5.8740     0.0000     8.0000 </r>
       <r>    -5.8017     0.0000     8.0000 </r>
       <r>    -5.7294     0.0000     8.0000 </r>
       <r>    -5.6570     0.0000     8.0000 </r>
       <r>    -5.5847     0.0000     8.0000 </r>
       <r>    -5.5124     0.0000     8.0000 </r>
       <r>    -5.4400     0.0000     8.0000 </r>
       <r>    -5.3677     0.0000     8.0000 </r>
       <r>    -5.2954     0.0000     8.0000 </r>
       <r>    -5.2230     0.0000     8.0000 </r>
       <r>    -5.1507     0.0000     8.0000 </r>
       <r>    -5.0784     0.0000     8.0000 </r>
       <r>    -5.0060     0.0000     8.0000 </r>
       <r>    -4.9337     0.0000     8.0000 </r>
       <r>    -4.8614     0.0000     8.0000 </r>
       <r>    -4.7891     0.0000     8.0000 </r>
       <r>    -4.7167     0.0000     8.0000 </r>
       <r>    -4.6444     0.0000     8.0000 </r>
       <r>    -4.5721     0.0000     8.0000 </r>
       <r>    -4.4997     0.0000     8.0000 </r>
       <r>    -4.4274     0.0000     8.0000 </r>
       <r>    -4.3551     0.0000     8.0000 </r>
       <r>    -4.2827     0.0000     8.0000 </r>
       <r>    -4.2104     0.0000     8.0000 </r>
       <r>    -4.1381     0.0000     8.0000 </r>
       <r>    -4.0657     0.0000     8.0000 </r>
       <r>    -3.9934     0.0000     8.0000 </r>
       <r>    -3.9211     0.0000     8.0000 </r>
       <r>    -3.8488     0.0000     8.0000 </r>
       <r>    -3.7764     0.0000     8.0000 </r>
       <r>    -3.7041     0.0000     8.0000 </r>
       <r>    -3.6318     0.0000     8.0000 </r>
       <r>    -3.5594     0.0000     8.0000 </r>
       <r>    -3.4871     0.0000     8.0000 </r>
       <r>    -3.4148     0.0000     8.0000 </r>
       <r>    -3.3424     0.0000     8.0000 </r>
       <r>    -3.2701     0.0000     8.0000 </r>
       <r>    -3.1978     0.0000     8.0000 </r>
       <r>    -3.1254     0.0000     8.0000 </r>
       <r>    -3.0531     0.0000     8.0000 </r>
       <r>    -2.9808     0.0000     8.0000 </r>
       <r>    -2.9085     0.0000     8.0000 </r>
       <r>    -2.8361     0.0000     8.0000 </r>
       <r>    -2.7638     0.0000     8.0000 </r>
       <r>    -2.6915     0.0000     8.0000 </r>
       <r>    -2.6191     0.0000     8.0000 </r>
       <r>    -2.5468     0.0000     8.0000 </r>
       <r>    -2.4745     0.0000     8.0000 </r>
       <r>    -2.4021     0.0000     8.0000 </r>
       <r>    -2.3298     0.0000     8.0000 </r>
       <r>    -2.2575     0.0000     8.0000 </r>
       <r>    -2.1851     0.0000     8.0000 </r>
       <r>    -2.1128     0.0000     8.0000 </r>
       <r>    -2.0405     0.0000     8.0000 </r>
       <r>    -1.9682    -0.0000     8.0000 </r>
       <r>    -1.8958    -0.0000     8.0000 </r>
       <r>    -1.8235    -0.0000     8.0000 </r>
       <r>    -1.7512    -0.0000     8.0000 </r>
       <r>    -1.6788    -0.0000     8.0000 </r>
       <r>    -1.6065    -0.0000     8.0000 </r>
       <r>    -1.5342    -0.0000     8.0000 </r>
       <r>    -1.4618    -0.0000     8.0000 </r>
       <r>    -1.3895    -0.0000     8.0000 </r>
       <r>    -1.3172    -0.0000     8.0000 </r>
       <r>    -1.2448    -0.0000     8.0000 </r>
       <r>    -1.1725    -0.0000     8.0000 </r>
       <r>    -1.1002    -0.0000     8.0000 </r>
       <r>    -1.0279    -0.0000     8.0000 </r>
       <r>    -0.9555    -0.0005     8.0000 </r>
       <r>    -0.8832    -0.0036     7.9997 </r>
       <r>    -0.8109    -0.0208     7.9982 </r>
       <r>    -0.7385    -0.0875     7.9919 </r>
       <r>    -0.6662    -0.2528     7.9736 </r>
       <r>    -0.5939    -0.4339     7.9422 </r>
       <r>    -0.5215    -0.1137     7.9340 </r>
       <r>    -0.4492     1.5936     8.0492 </r>
       <r>    -0.3769     4.8125     8.3973 </r>
       <r>    -0.3045     7.7548     8.9582 </r>
       <r>    -0.2322     7.9844     9.5358 </r>
       <r>    -0.1599     5.2911     9.9185 </r>
       <r>    -0.0876     1.9624    10.0604 </r>
       <r>    -0.0152     0.0170    10.0616 </r>
       <r>     0.0571    -0.4544    10.0288 </r>
       <r>     0.1294    -0.3592    10.0028 </r>
       <r>     0.2018    -0.3678     9.9762 </r>
       <r>     0.2741    -0.6477     9.9293 </r>
       <r>     0.3464    -0.8261     9.8696 </r>
       <r>     0.4188     0.2615     9.8885 </r>
       <r>     0.4911     4.1948    10.1919 </r>
       <r>     0.5634    11.2335    11.0044 </r>
       <r>     0.6358    18.6104    12.3505 </r>
       <r>     0.7081    21.6519    13.9166 </r>
       <r>     0.7804    17.9316    15.2137 </r>
       <r>     0.8528    10.0323    15.9393 </r>
       <r>     0.9251     3.0091    16.1569 </r>
       <r>     0.9974    -0.3993    16.1281 </r>
       <r>     1.0697    -0.9638    16.0584 </r>
       <r>     1.1421    -0.5538    16.0183 </r>
       <r>     1.2144    -0.1951    16.0042 </r>
       <r>     1.2867    -0.0479    16.0007 </r>
       <r>     1.3591    -0.0086    16.0001 </r>
       <r>     1.4314    -0.0011    16.0000 </r>
       <r>     1.5037    -0.0001    16.0000 </r>
       <r>     1.5761    -0.0000    16.0000 </r>
       <r>     1.6484    -0.0000    16.0000 </r>
       <r>     1.7207    -0.0000    16.0000 </r>
       <r>     1.7931    -0.0000    16.0000 </r>
       <r>     1.8654    -0.0000    16.0000 </r>
       <r>     1.9377    -0.0000    16.0000 </r>
       <r>     2.0100    -0.0000    16.0000 </r>
       <r>     2.0824     0.0000    16.0000 </r>
       <r>     2.1547     0.0000    16.0000 </r>
       <r>     2.2270     0.0000    16.0000 </r>
       <r>     2.2994     0.0000    16.0000 </r>
       <r>     2.3717     0.0000    16.0000 </r>
       <r>     2.4440     0.0000    16.0000 </r>
       <r>     2.5164     0.0000    16.0000 </r>
       <r>     2.5887     0.0000    16.0000 </r>
       <r>     2.6610     0.0000    16.0000 </r>
       <r>     2.7334     0.0000    16.0000 </r>
      </set>
     </set>
    </array>
   </total>
  </dos>
  <time name="totalsc">   76.78   76.96</time>
 </calculation>
 <calculation>
  <scstep>
   <time name="dav">    1.63    1.63</time>
   <time name="total">    3.27    3.28</time>
   <energy>
    <i name="alphaZ">      0.25090710 </i>
    <i name="ewald">    124.80803507 </i>
    <i name="hartreedc">   -282.35235339 </i>
    <i name="XCdc">     24.71107456 </i>
    <i name="pawpsdc">    463.41974484 </i>
    <i name="pawaedc">   -464.21431179 </i>
    <i name="eentropy">      0.02583555 </i>
    <i name="bandstr">    -87.68668754 </i>
    <i name="atom">    197.04175453 </i>
    <i name="e_fr_energy">    -23.99600106 </i>
    <i name="e_wo_entrp">    -24.02183661 </i>
    <i name="e_0_energy">    -24.00461291 </i>
   </energy>
  </scstep>
  <scstep>
   <time name="diag">    0.35    0.35</time>
   <time name="diis">    1.24    1.24</time>
   <time name="orth">    0.01    0.01</time>
   <time name="total">    3.13    3.14</time>
   <energy>
    <i name="e_fr_energy">    -23.98430109 </i>
    <i name="e_wo_entrp">    -24.00879189 </i>
    <i name="e_0_energy">    -23.99246469 </i>
   </energy>
  </scstep>
  <scstep>
   <time name="diag">    0.35    0.35</time>
   <time name="diis">    1.19    1.19</time>
   <time name="orth">    0.01    0.01</time>
   <time name="total">    3.07    3.07</time>
   <energy>
    <i name="e_fr_energy">    -23.98329178 </i>
    <i name="e_wo_entrp">    -24.00714737 </i>
    <i name="e_0_energy">    -23.99124365 </i>
   </energy>
  </scstep>
  <scstep>
   <time name="diag">    0.34    0.34</time>
   <time name="diis">    1.22    1.22</time>
   <time name="orth">    0.01    0.01</time>
   <time name="total">    3.11    3.12</time>
   <energy>
    <i name="e_fr_energy">    -23.98318541 </i>
    <i name="e_wo_entrp">    -24.00699779 </i>
    <i name="e_0_energy">    -23.99112287 </i>
   </energy>
  </scstep>
  <scstep>
   <time name="diag">    0.35    0.36</time>
   <time name="diis">    1.21    1.21</time>
   <time name="orth">    0.01    0.01</time>
   <time name="total">    3.10    3.11</time>
   <energy>
    <i name="e_fr_energy">    -23.98378990 </i>
    <i name="e_wo_entrp">    -24.00781508 </i>
    <i name="e_0_energy">    -23.99179830 </i>
   </energy>
  </scstep>
  <scstep>
   <time name="diag">    0.35    0.35</time>
   <time name="diis">    1.31    1.31</time>
   <time name="orth">    0.01    0.01</time>
   <time name="total">    3.21    3.21</time>
   <energy>
    <i name="e_fr_energy">    -23.98390291 </i>
    <i name="e_wo_entrp">    -24.00797739 </i>
    <i name="e_0_energy">    -23.99192774 </i>
   </energy>
  </scstep>
  <scstep>
   <time name="diag">    0.36    0.36</time>
   <time name="diis">    1.22    1.23</time>
   <time name="orth">    0.01    0.01</time>
   <time name="total">    3.16    3.17</time>
   <energy>
    <i name="e_fr_energy">    -23.98403817 </i>
    <i name="e_wo_entrp">    -24.00812926 </i>
    <i name="e_0_energy">    -23.99206853 </i>
   </energy>
  </scstep>
  <scstep>
   <time name="diag">    0.38    0.38</time>
   <time name="diis">    1.21    1.21</time>
   <time name="orth">    0.01    0.01</time>
   <time name="total">    3.19    3.20</time>
   <energy>
    <i name="e_fr_energy">    -23.98410427 </i>
    <i name="e_wo_entrp">    -24.00813794 </i>
    <i name="e_0_energy">    -23.99211549 </i>
   </energy>
  </scstep>
  <scstep>
   <time name="diag">    0.37    0.37</time>
   <time name="diis">    1.26    1.26</time>
   <time name="orth">    0.01    0.01</time>
   <time name="total">    3.22    3.23</time>
   <energy>
    <i name="e_fr_energy">    -23.98413581 </i>
    <i name="e_wo_entrp">    -24.00815009 </i>
    <i name="e_0_energy">    -23.99214057 </i>
   </energy>
  </scstep>
  <scstep>
   <time name="diag">    0.38    0.38</time>
   <time name="diis">    1.26    1.26</time>
   <time name="orth">    0.01    0.01</time>
   <time name="total">    3.29    3.29</time>
   <energy>
    <i name="e_fr_energy">    -23.98416326 </i>
    <i name="e_wo_entrp">    -24.00817491 </i>
    <i name="e_0_energy">    -23.99216714 </i>
   </energy>
  </scstep>
  <scstep>
   <time name="diag">    0.38    0.38</time>
   <time name="diis">    1.26    1.26</time>
   <time name="orth">    0.01    0.01</time>
   <time name="total">    3.29    3.29</time>
   <energy>
    <i name="e_fr_energy">    -23.98416958 </i>
    <i name="e_wo_entrp">    -24.00818300 </i>
    <i name="e_0_energy">    -23.99217405 </i>
   </energy>
  </scstep>
  <scstep>
   <time name="diag">    0.37    0.37</time>
   <time name="diis">    1.20    1.20</time>
   <time name="orth">    0.01    0.01</time>
   <time name="total">    3.24    3.25</time>
   <energy>
    <i name="e_fr_energy">    -23.98417435 </i>
    <i name="e_wo_entrp">    -24.00819495 </i>
    <i name="e_0_energy">    -23.99218122 </i>
   </energy>
  </scstep>
  <scstep>
   <time name="diag">    0.37    0.37</time>
   <time name="diis">    0.97    0.97</time>
   <time name="orth">    0.01    0.01</time>
   <time name="total">    3.02    3.03</time>
   <energy>
    <i name="e_fr_energy">    -23.98417606 </i>
    <i name="e_wo_entrp">    -24.00819820 </i>
    <i name="e_0_energy">    -23.99218344 </i>
   </energy>
  </scstep>
  <scstep>
   <time name="diag">    0.35    0.35</time>
   <time name="diis">    0.97    0.97</time>
   <time name="orth">    0.01    0.01</time>
   <time name="total">    2.80    2.81</time>
   <energy>
    <i name="alphaZ">      0.25090710 </i>
    <i name="ewald">    124.80803507 </i>
    <i name="hartreedc">   -280.89403774 </i>
    <i name="XCdc">     24.62706607 </i>
    <i name="pawpsdc">    437.35622889 </i>
    <i name="pawaedc">   -438.13461368 </i>
    <i name="eentropy">      0.02402122 </i>
    <i name="bandstr">    -89.06353825 </i>
    <i name="atom">    197.04175453 </i>
    <i name="e_fr_energy">    -23.98417678 </i>
    <i name="e_wo_entrp">    -24.00819800 </i>
    <i name="e_0_energy">    -23.99218385 </i>
   </energy>
  </scstep>
  <structure>
   <crystal>
    <varray name="basis" >
     <v>      10.09056282       0.00000000       0.00000000 </v>
     <v>      -0.29423386       9.81163172       0.00000000 </v>
     <v>      -0.01613188       0.16814046       9.75204331 </v>
    </varray>
    <i name="volume">    965.49993799 </i>
    <varray name="rec_basis" >
     <v>       0.09910250       0.00297191       0.00011270 </v>
     <v>       0.00000000       0.10191985      -0.00175726 </v>
     <v>       0.00000000      -0.00000000       0.10254261 </v>
    </varray>
   </crystal>
   <varray name="positions" >
    <v>       0.53728932       0.40475517       0.36168624 </v>
    <v>       0.39277208       0.48390815       0.43814999 </v>
    <v>       0.55324891       0.56733561       0.44470725 </v>
    <v>       0.52924465       0.41147575       0.54185893 </v>
    <v>       0.50355802       0.46714697       0.44429741 </v>
   </varray>
  </structure>
  <varray name="forces" >
   <v>      -0.18952324      -0.70379245      -0.20565825 </v>
   <v>       1.72813086      -0.52650177      -0.17341562 </v>
   <v>       0.90765062       1.04692247      -0.00076635 </v>
   <v>      -0.44042056       0.76071013      -0.82519859 </v>
   <v>      -1.63486885       0.24861132       1.66976001 </v>
  </varray>
  <varray name="stress" >
   <v>      -2.58744473       1.11224900       0.04670119 </v>
   <v>       1.11224900      -0.33700415       1.03173190 </v>
   <v>       0.04670119       1.03173189       0.08562780 </v>
  </varray>
  <energy>
   <i name="e_fr_energy">    -23.98417678 </i>
   <i name="e_wo_entrp">    -23.99218385 </i>
   <i name="e_0_energy">      0.02402122 </i>
   <i name="kinetic">      0.07045913 </i>
   <i name="lattice kinetic">      0.00000000 </i>
   <i name="nosepot">      0.00027822 </i>
   <i name="nosekinetic">      0.00054590 </i>
   <i name="total">    -23.91289353 </i>
  </energy>
  <dos>
   <i name="efermi">     -8.91679620 </i>
   <total>
    <array>
     <dimension dim="1">gridpoints</dimension>
     <dimension dim="2">spin</dimension>
     <field>energy</field>
     <field>total</field>
     <field>integrated</field>
     <set>
      <set comment="spin 1">
       <r>   -18.8137     0.0000     0.0000 </r>
       <r>   -18.7419     0.0000     0.0000 </r>
       <r>   -18.6701     0.0000     0.0000 </r>
       <r>   -18.5983     0.0000     0.0000 </r>
       <r>   -18.5266     0.0000     0.0000 </r>
       <r>   -18.4548    -0.0000    -0.0000 </r>
       <r>   -18.3830    -0.0000    -0.0000 </r>
       <r>   -18.3112    -0.0000    -0.0000 </r>
       <r>   -18.2394    -0.0000    -0.0000 </r>
       <r>   -18.1676    -0.0000    -0.0000 </r>
       <r>   -18.0958    -0.0000    -0.0000 </r>
       <r>   -18.0240    -0.0000    -0.0000 </r>
       <r>   -17.9522    -0.0000    -0.0000 </r>
       <r>   -17.8804    -0.0000    -0.0000 </r>
       <r>   -17.8086    -0.0000    -0.0000 </r>
       <r>   -17.7368    -0.0000    -0.0000 </r>
       <r>   -17.6650    -0.0000    -0.0000 </r>
       <r>   -17.5933    -0.0000    -0.0000 </r>
       <r>   -17.5215    -0.0001    -0.0000 </r>
       <r>   -17.4497    -0.0008    -0.0001 </r>
       <r>   -17.3779    -0.0059    -0.0005 </r>
       <r>   -17.3061    -0.0313    -0.0027 </r>
       <r>   -17.2343    -0.1193    -0.0113 </r>
       <r>   -17.1625    -0.3070    -0.0333 </r>
       <r>   -17.0907    -0.4355    -0.0646 </r>
       <r>   -17.0189     0.1302    -0.0553 </r>
       <r>   -16.9471     2.2216     0.1042 </r>
       <r>   -16.8753     5.5796     0.5048 </r>
       <r>   -16.8035     8.0925     1.0858 </r>
       <r>   -16.7317     7.6241     1.6331 </r>
       <r>   -16.6600     4.5974     1.9632 </r>
       <r>   -16.5882     1.4545     2.0676 </r>
       <r>   -16.5164    -0.1549     2.0565 </r>
       <r>   -16.4446    -0.4319     2.0255 </r>
       <r>   -16.3728    -0.2461     2.0078 </r>
       <r>   -16.3010    -0.0847     2.0017 </r>
       <r>   -16.2292    -0.0202     2.0003 </r>
       <r>   -16.1574    -0.0035     2.0000 </r>
       <r>   -16.0856    -0.0004     2.0000 </r>
       <r>   -16.0138    -0.0000     2.0000 </r>
       <r>   -15.9420    -0.0000     2.0000 </r>
       <r>   -15.8702    -0.0000     2.0000 </r>
       <r>   -15.7985    -0.0000     2.0000 </r>
       <r>   -15.7267    -0.0000     2.0000 </r>
       <r>   -15.6549    -0.0000     2.0000 </r>
       <r>   -15.5831    -0.0000     2.0000 </r>
       <r>   -15.5113     0.0000     2.0000 </r>
       <r>   -15.4395     0.0000     2.0000 </r>
       <r>   -15.3677     0.0000     2.0000 </r>
       <r>   -15.2959     0.0000     2.0000 </r>
       <r>   -15.2241     0.0000     2.0000 </r>
       <r>   -15.1523     0.0000     2.0000 </r>
       <r>   -15.0805     0.0000     2.0000 </r>
       <r>   -15.0087     0.0000     2.0000 </r>
       <r>   -14.9369     0.0000     2.0000 </r>
       <r>   -14.8652     0.0000     2.0000 </r>
       <r>   -14.7934     0.0000     2.0000 </r>
       <r>   -14.7216     0.0000     2.0000 </r>
       <r>   -14.6498     0.0000     2.0000 </r>
       <r>   -14.5780     0.0000     2.0000 </r>
       <r>   -14.5062     0.0000     2.0000 </r>
       <r>   -14.4344     0.0000     2.0000 </r>
       <r>   -14.3626     0.0000     2.0000 </r>
       <r>   -14.2908     0.0000     2.0000 </r>
       <r>   -14.2190     0.0000     2.0000 </r>
       <r>   -14.1472     0.0000     2.0000 </r>
       <r>   -14.0754     0.0000     2.0000 </r>
       <r>   -14.0037     0.0000     2.0000 </r>
       <r>   -13.9319     0.0000     2.0000 </r>
       <r>   -13.8601     0.0000     2.0000 </r>
       <r>   -13.7883     0.0000     2.0000 </r>
       <r>   -13.7165     0.0000     2.0000 </r>
       <r>   -13.6447     0.0000     2.0000 </r>
       <r>   -13.5729     0.0000     2.0000 </r>
       <r>   -13.5011     0.0000     2.0000 </r>
       <r>   -13.4293     0.0000     2.0000 </r>
       <r>   -13.3575     0.0000     2.0000 </r>
       <r>   -13.2857     0.0000     2.0000 </r>
       <r>   -13.2139     0.0000     2.0000 </r>
       <r>   -13.1421     0.0000     2.0000 </r>
       <r>   -13.0704     0.0000     2.0000 </r>
       <r>   -12.9986     0.0000     2.0000 </r>
       <r>   -12.9268     0.0000     2.0000 </r>
       <r>   -12.8550     0.0000     2.0000 </r>
       <r>   -12.7832     0.0000     2.0000 </r>
       <r>   -12.7114     0.0000     2.0000 </r>
       <r>   -12.6396     0.0000     2.0000 </r>
       <r>   -12.5678     0.0000     2.0000 </r>
       <r>   -12.4960     0.0000     2.0000 </r>
       <r>   -12.4242     0.0000     2.0000 </r>
       <r>   -12.3524     0.0000     2.0000 </r>
       <r>   -12.2806     0.0000     2.0000 </r>
       <r>   -12.2089     0.0000     2.0000 </r>
       <r>   -12.1371     0.0000     2.0000 </r>
       <r>   -12.0653     0.0000     2.0000 </r>
       <r>   -11.9935     0.0000     2.0000 </r>
       <r>   -11.9217     0.0000     2.0000 </r>
       <r>   -11.8499     0.0000     2.0000 </r>
       <r>   -11.7781     0.0000     2.0000 </r>
       <r>   -11.7063     0.0000     2.0000 </r>
       <r>   -11.6345     0.0000     2.0000 </r>
       <r>   -11.5627     0.0000     2.0000 </r>
       <r>   -11.4909     0.0000     2.0000 </r>
       <r>   -11.4191     0.0000     2.0000 </r>
       <r>   -11.3473     0.0000     2.0000 </r>
       <r>   -11.2756     0.0000     2.0000 </r>
       <r>   -11.2038    -0.0000     2.0000 </r>
       <r>   -11.1320    -0.0000     2.0000 </r>
       <r>   -11.0602    -0.0000     2.0000 </r>
       <r>   -10.9884    -0.0000     2.0000 </r>
       <r>   -10.9166    -0.0000     2.0000 </r>
       <r>   -10.8448    -0.0000     2.0000 </r>
       <r>   -10.7730    -0.0000     2.0000 </r>
       <r>   -10.7012    -0.0000     2.0000 </r>
       <r>   -10.6294    -0.0000     2.0000 </r>
       <r>   -10.5576    -0.0000     2.0000 </r>
       <r>   -10.4858    -0.0000     2.0000 </r>
       <r>   -10.4140    -0.0000     2.0000 </r>
       <r>   -10.3423    -0.0000     2.0000 </r>
       <r>   -10.2705    -0.0000     2.0000 </r>
       <r>   -10.1987    -0.0004     2.0000 </r>
       <r>   -10.1269    -0.0032     1.9997 </r>
       <r>   -10.0551    -0.0189     1.9984 </r>
       <r>    -9.9833    -0.0804     1.9926 </r>
       <r>    -9.9115    -0.2375     1.9756 </r>
       <r>    -9.8397    -0.4282     1.9448 </r>
       <r>    -9.7679    -0.1872     1.9314 </r>
       <r>    -9.6961     1.3497     2.0283 </r>
       <r>    -9.6243     4.4266     2.3461 </r>
       <r>    -9.5525     7.4184     2.8787 </r>
       <r>    -9.4808     7.7650     3.4361 </r>
       <r>    -9.4090     4.9564     3.7919 </r>
       <r>    -9.3372     1.7354     3.9165 </r>
       <r>    -9.2654     1.8323     4.0481 </r>
       <r>    -9.1936     6.6198     4.5233 </r>
       <r>    -9.1218    13.2168     5.4722 </r>
       <r>    -9.0500    16.2337     6.6376 </r>
       <r>    -8.9782    13.0295     7.5731 </r>
       <r>    -8.9064     6.4964     8.0394 </r>
       <r>    -8.8346     1.3396     8.1356 </r>
       <r>    -8.7628    -0.6766     8.0870 </r>
       <r>    -8.6910    -0.7345     8.0343 </r>
       <r>    -8.6192    -0.3455     8.0095 </r>
       <r>    -8.5475    -0.1055     8.0019 </r>
       <r>    -8.4757    -0.0229     8.0003 </r>
       <r>    -8.4039    -0.0036     8.0000 </r>
       <r>    -8.3321    -0.0004     8.0000 </r>
       <r>    -8.2603    -0.0000     8.0000 </r>
       <r>    -8.1885    -0.0000     8.0000 </r>
       <r>    -8.1167    -0.0000     8.0000 </r>
       <r>    -8.0449    -0.0000     8.0000 </r>
       <r>    -7.9731    -0.0000     8.0000 </r>
       <r>    -7.9013    -0.0000     8.0000 </r>
       <r>    -7.8295    -0.0000     8.0000 </r>
       <r>    -7.7577     0.0000     8.0000 </r>
       <r>    -7.6860     0.0000     8.0000 </r>
       <r>    -7.6142     0.0000     8.0000 </r>
       <r>    -7.5424     0.0000     8.0000 </r>
       <r>    -7.4706     0.0000     8.0000 </r>
       <r>    -7.3988     0.0000     8.0000 </r>
       <r>    -7.3270     0.0000     8.0000 </r>
       <r>    -7.2552     0.0000     8.0000 </r>
       <r>    -7.1834     0.0000     8.0000 </r>
       <r>    -7.1116     0.0000     8.0000 </r>
       <r>    -7.0398     0.0000     8.0000 </r>
       <r>    -6.9680     0.0000     8.0000 </r>
       <r>    -6.8962     0.0000     8.0000 </r>
       <r>    -6.8244     0.0000     8.0000 </r>
       <r>    -6.7527     0.0000     8.0000 </r>
       <r>    -6.6809     0.0000     8.0000 </r>
       <r>    -6.6091     0.0000     8.0000 </r>
       <r>    -6.5373     0.0000     8.0000 </r>
       <r>    -6.4655     0.0000     8.0000 </r>
       <r>    -6.3937     0.0000     8.0000 </r>
       <r>    -6.3219     0.0000     8.0000 </r>
       <r>    -6.2501     0.0000     8.0000 </r>
       <r>    -6.1783     0.0000     8.0000 </r>
       <r>    -6.1065     0.0000     8.0000 </r>
       <r>    -6.0347     0.0000     8.0000 </r>
       <r>    -5.9629     0.0000     8.0000 </r>
       <r>    -5.8911     0.0000     8.0000 </r>
       <r>    -5.8194     0.0000     8.0000 </r>
       <r>    -5.7476     0.0000     8.0000 </r>
       <r>    -5.6758     0.0000     8.0000 </r>
       <r>    -5.6040     0.0000     8.0000 </r>
       <r>    -5.5322     0.0000     8.0000 </r>
       <r>    -5.4604     0.0000     8.0000 </r>
       <r>    -5.3886     0.0000     8.0000 </r>
       <r>    -5.3168     0.0000     8.0000 </r>
       <r>    -5.2450     0.0000     8.0000 </r>
       <r>    -5.1732     0.0000     8.0000 </r>
       <r>    -5.1014     0.0000     8.0000 </r>
       <r>    -5.0296     0.0000     8.0000 </r>
       <r>    -4.9579     0.0000     8.0000 </r>
       <r>    -4.8861     0.0000     8.0000 </r>
       <r>    -4.8143     0.0000     8.0000 </r>
       <r>    -4.7425     0.0000     8.0000 </r>
       <r>    -4.6707     0.0000     8.0000 </r>
       <r>    -4.5989     0.0000     8.0000 </r>
       <r>    -4.5271     0.0000     8.0000 </r>
       <r>    -4.4553     0.0000     8.0000 </r>
       <r>    -4.3835     0.0000     8.0000 </r>
       <r>    -4.3117     0.0000     8.0000 </r>
       <r>    -4.2399     0.0000     8.0000 </r>
       <r>    -4.1681     0.0000     8.0000 </r>
       <r>    -4.0963     0.0000     8.0000 </r>
       <r>    -4.0246     0.0000     8.0000 </r>
       <r>    -3.9528     0.0000     8.0000 </r>
       <r>    -3.8810     0.0000     8.0000 </r>
       <r>    -3.8092     0.0000     8.0000 </r>
       <r>    -3.7374     0.0000     8.0000 </r>
       <r>    -3.6656     0.0000     8.0000 </r>
       <r>    -3.5938     0.0000     8.0000 </r>
       <r>    -3.5220     0.0000     8.0000 </r>
       <r>    -3.4502     0.0000     8.0000 </r>
       <r>    -3.3784     0.0000     8.0000 </r>
       <r>    -3.3066     0.0000     8.0000 </r>
       <r>    -3.2348     0.0000     8.0000 </r>
       <r>    -3.1631     0.0000     8.0000 </r>
       <r>    -3.0913     0.0000     8.0000 </r>
       <r>    -3.0195     0.0000     8.0000 </r>
       <r>    -2.9477     0.0000     8.0000 </r>
       <r>    -2.8759     0.0000     8.0000 </r>
       <r>    -2.8041     0.0000     8.0000 </r>
       <r>    -2.7323     0.0000     8.0000 </r>
       <r>    -2.6605     0.0000     8.0000 </r>
       <r>    -2.5887     0.0000     8.0000 </r>
       <r>    -2.5169     0.0000     8.0000 </r>
       <r>    -2.4451     0.0000     8.0000 </r>
       <r>    -2.3733     0.0000     8.0000 </r>
       <r>    -2.3015     0.0000     8.0000 </r>
       <r>    -2.2298     0.0000     8.0000 </r>
       <r>    -2.1580     0.0000     8.0000 </r>
       <r>    -2.0862     0.0000     8.0000 </r>
       <r>    -2.0144     0.0000     8.0000 </r>
       <r>    -1.9426    -0.0000     8.0000 </r>
       <r>    -1.8708    -0.0000     8.0000 </r>
       <r>    -1.7990    -0.0000     8.0000 </r>
       <r>    -1.7272    -0.0000     8.0000 </r>
       <r>    -1.6554    -0.0000     8.0000 </r>
       <r>    -1.5836    -0.0000     8.0000 </r>
       <r>    -1.5118    -0.0000     8.0000 </r>
       <r>    -1.4400    -0.0000     8.0000 </r>
       <r>    -1.3682    -0.0000     8.0000 </r>
       <r>    -1.2965    -0.0000     8.0000 </r>
       <r>    -1.2247    -0.0000     8.0000 </r>
       <r>    -1.1529    -0.0000     8.0000 </r>
       <r>    -1.0811    -0.0000     8.0000 </r>
       <r>    -1.0093    -0.0002     8.0000 </r>
       <r>    -0.9375    -0.0019     7.9998 </r>
       <r>    -0.8657    -0.0118     7.9990 </r>
       <r>    -0.7939    -0.0552     7.9950 </r>
       <r>    -0.7221    -0.1820     7.9820 </r>
       <r>    -0.6503    -0.3868     7.9542 </r>
       <r>    -0.5785    -0.3470     7.9293 </r>
       <r>    -0.5067     0.7416     7.9825 </r>
       <r>    -0.4350     3.4663     8.2314 </r>
       <r>    -0.3632     6.8123     8.7205 </r>
       <r>    -0.2914     8.3075     9.3169 </r>
       <r>    -0.2196     6.6238     9.7924 </r>
       <r>    -0.1478     3.2487    10.0256 </r>
       <r>    -0.0760     0.6214    10.0702 </r>
       <r>    -0.0042    -0.3761    10.0432 </r>
       <r>     0.0676    -0.4035    10.0143 </r>
       <r>     0.1394    -0.2908     9.9934 </r>
       <r>     0.2112    -0.4129     9.9637 </r>
       <r>     0.2830    -0.7340     9.9111 </r>
       <r>     0.3548    -0.6677     9.8631 </r>
       <r>     0.4266     1.1103     9.9428 </r>
       <r>     0.4983     5.9143    10.3674 </r>
       <r>     0.5701    13.2351    11.3176 </r>
       <r>     0.6419    19.7275    12.7339 </r>
       <r>     0.7137    21.1373    14.2514 </r>
       <r>     0.7855    16.2218    15.4160 </r>
       <r>     0.8573     8.3035    16.0121 </r>
       <r>     0.9291     2.0503    16.1593 </r>
       <r>     1.0009    -0.6386    16.1134 </r>
       <r>     1.0727    -0.9040    16.0486 </r>
       <r>     1.1445    -0.4732    16.0146 </r>
       <r>     1.2163    -0.1582    16.0032 </r>
       <r>     1.2881    -0.0374    16.0005 </r>
       <r>     1.3598    -0.0065    16.0001 </r>
       <r>     1.4316    -0.0008    16.0000 </r>
       <r>     1.5034    -0.0001    16.0000 </r>
       <r>     1.5752    -0.0000    16.0000 </r>
       <r>     1.6470    -0.0000    16.0000 </r>
       <r>     1.7188    -0.0000    16.0000 </r>
       <r>     1.7906    -0.0000    16.0000 </r>
       <r>     1.8624    -0.0000    16.0000 </r>
       <r>     1.9342    -0.0000    16.0000 </r>
       <r>     2.0060    -0.0000    16.0000 </r>
       <r>     2.0778     0.0000    16.0000 </r>
       <r>     2.1496     0.0000    16.0000 </r>
       <r>     2.2214     0.0000    16.0000 </r>
       <r>     2.2931     0.0000    16.0000 </r>
       <r>     2.3649     0.0000    16.0000 </r>
       <r>     2.4367     0.0000    16.0000 </r>
       <r>     2.5085     0.0000    16.0000 </r>
       <r>     2.5803     0.0000    16.0000 </r>
       <r>     2.6521     0.0000    16.0000 </r>
       <r>     2.7239     0.0000    16.0000 </r>
      </set>
     </set>
    </array>
   </total>
  </dos>
  <time name="totalsc">   50.61   50.75</time>
 </calculation>
 <calculation>
  <scstep>
   <time name="dav">    1.62    1.62</time>
   <time name="total">    3.27    3.28</time>
   <energy>
    <i name="alphaZ">      0.25090710 </i>
    <i name="ewald">    122.35340878 </i>
    <i name="hartreedc">   -278.68691579 </i>
    <i name="XCdc">     24.50934157 </i>
    <i name="pawpsdc">    424.33869857 </i>
    <i name="pawaedc">   -425.10894640 </i>
    <i name="eentropy">      0.01323772 </i>
    <i name="bandstr">    -88.67911426 </i>
    <i name="atom">    197.04175453 </i>
    <i name="e_fr_energy">    -23.96762818 </i>
    <i name="e_wo_entrp">    -23.98086590 </i>
    <i name="e_0_energy">    -23.97204075 </i>
   </energy>
  </scstep>
  <scstep>
   <time name="diag">    0.36    0.37</time>
   <time name="diis">    1.15    1.16</time>
   <time name="orth">    0.01    0.01</time>
   <time name="total">    3.10    3.11</time>
   <energy>
    <i name="e_fr_energy">    -24.05102742 </i>
    <i name="e_wo_entrp">    -24.06668142 </i>
    <i name="e_0_energy">    -24.05624542 </i>
   </energy>
  </scstep>
  <scstep>
   <time name="diag">    0.37    0.37</time>
   <time name="diis">    1.18    1.18</time>
   <time name="orth">    0.01    0.01</time>
   <time name="total">    3.12    3.13</time>
   <energy>
    <i name="e_fr_energy">    -24.00223535 </i>
    <i name="e_wo_entrp">    -24.01541200 </i>
    <i name="e_0_energy">    -24.00662757 </i>
   </energy>
  </scstep>
  <scstep>
   <time name="diag">    0.36    0.36</time>
   <time name="diis">    1.23    1.24</time>
   <time name="orth">    0.01    0.01</time>
   <time name="total">    3.13    3.14</time>
   <energy>
    <i name="e_fr_energy">    -23.97711356 </i>
    <i name="e_wo_entrp">    -23.99029161 </i>
    <i name="e_0_energy">    -23.98150624 </i>
   </energy>
  </scstep>
  <scstep>
   <time name="diag">    0.35    0.35</time>
   <time name="diis">    1.27    1.27</time>
   <time name="orth">    0.01    0.01</time>
   <time name="total">    3.20    3.21</time>
   <energy>
    <i name="e_fr_energy">    -23.97426367 </i>
    <i name="e_wo_entrp">    -23.98755369 </i>
    <i name="e_0_energy">    -23.97869368 </i>
   </energy>
  </scstep>
  <scstep>
   <time name="diag">    0.34    0.34</time>
   <time name="diis">    1.23    1.23</time>
   <time name="orth">    0.01    0.01</time>
   <time name="total">    3.15    3.16</time>
   <energy>
    <i name="e_fr_energy">    -23.97163596 </i>
    <i name="e_wo_entrp">    -23.98480225 </i>
    <i name="e_0_energy">    -23.97602472 </i>
   </energy>
  </scstep>
  <scstep>
   <time name="diag">    0.34    0.34</time>
   <time name="diis">    1.24    1.24</time>
   <time name="orth">    0.01    0.01</time>
   <time name="total">    3.20    3.21</time>
   <energy>
    <i name="e_fr_energy">    -23.97156806 </i>
    <i name="e_wo_entrp">    -23.98470126 </i>
    <i name="e_0_energy">    -23.97594579 </i>
   </energy>
  </scstep>
  <scstep>
   <time name="diag">    0.34    0.34</time>
   <time name="diis">    1.19    1.19</time>
   <time name="orth">    0.01    0.01</time>
   <time name="total">    3.17    3.18</time>
   <energy>
    <i name="e_fr_energy">    -23.97090443 </i>
    <i name="e_wo_entrp">    -23.98387914 </i>
    <i name="e_0_energy">    -23.97522934 </i>
   </energy>
  </scstep>
  <scstep>
   <time name="diag">    0.35    0.35</time>
   <time name="diis">    1.17    1.17</time>
   <time name="orth">    0.01    0.01</time>
   <time name="total">    3.21    3.22</time>
   <energy>
    <i name="e_fr_energy">    -23.97063376 </i>
    <i name="e_wo_entrp">    -23.98349798 </i>
    <i name="e_0_energy">    -23.97492183 </i>
   </energy>
  </scstep>
  <scstep>
   <time name="diag">    0.34    0.34</time>
   <time name="diis">    1.16    1.17</time>
   <time name="orth">    0.01    0.01</time>
   <time name="total">    3.15    3.16</time>
   <energy>
    <i name="e_fr_energy">    -23.97049296 </i>
    <i name="e_wo_entrp">    -23.98327435 </i>
    <i name="e_0_energy">    -23.97475343 </i>
   </energy>
  </scstep>
  <scstep>
   <time name="diag">    0.35    0.35</time>
   <time name="diis">    1.20    1.20</time>
   <time name="orth">    0.01    0.01</time>
   <time name="total">    3.22    3.23</time>
   <energy>
    <i name="e_fr_energy">    -23.97037864 </i>
    <i name="e_wo_entrp">    -23.98301427 </i>
    <i name="e_0_energy">    -23.97459051 </i>
   </energy>
  </scstep>
  <scstep>
   <time name="diag">    0.37    0.37</time>
   <time name="diis">    1.24    1.24</time>
   <time name="orth">    0.01    0.01</time>
   <time name="total">    3.26    3.27</time>
   <energy>
    <i name="e_fr_energy">    -23.97036440 </i>
    <i name="e_wo_entrp">    -23.98292837 </i>
    <i name="e_0_energy">    -23.97455239 </i>
   </energy>
  </scstep>
  <scstep>
   <time name="diag">    0.36    0.36</time>
   <time name="diis">    1.23    1.24</time>
   <time name="orth">    0.01    0.01</time>
   <time name="total">    3.27    3.28</time>
   <energy>
    <i name="e_fr_energy">    -23.97037767 </i>
    <i name="e_wo_entrp">    -23.98292464 </i>
    <i name="e_0_energy">    -23.97456000 </i>
   </energy>
  </scstep>
  <scstep>
   <time name="diag">    0.34    0.34</time>
   <time name="diis">    1.24    1.24</time>
   <time name="orth">    0.01    0.01</time>
   <time name="total">    3.28    3.28</time>
   <energy>
    <i name="e_fr_energy">    -23.97038895 </i>
    <i name="e_wo_entrp">    -23.98293090 </i>
    <i name="e_0_energy">    -23.97456960 </i>
   </energy>
  </scstep>
  <scstep>
   <time name="diag">    0.34    0.34</time>
   <time name="diis">    0.94    0.94</time>
   <time name="orth">    0.01    0.01</time>
   <time name="total">    3.04    3.05</time>
   <energy>
    <i name="e_fr_energy">    -23.97039172 </i>
    <i name="e_wo_entrp">    -23.98293176 </i>
    <i name="e_0_energy">    -23.97457173 </i>
   </energy>
  </scstep>
  <scstep>
   <time name="diag">    0.37    0.37</time>
   <time name="diis">    1.15    1.16</time>
   <time name="orth">    0.01    0.01</time>
   <time name="total">    3.29    3.30</time>
   <energy>
    <i name="e_fr_energy">    -23.97039400 </i>
    <i name="e_wo_entrp">    -23.98292153 </i>
    <i name="e_0_energy">    -23.97456985 </i>
   </energy>
  </scstep>
  <scstep>
   <time name="diag">    0.38    0.38</time>
   <time name="diis">    0.98    0.98</time>
   <time name="orth">    0.01    0.01</time>
   <time name="total">    2.84    2.85</time>
   <energy>
    <i name="alphaZ">      0.25090710 </i>
    <i name="ewald">    122.35340878 </i>
    <i name="hartreedc">   -278.72912157 </i>
    <i name="XCdc">     24.51128970 </i>
    <i name="pawpsdc">    418.25140135 </i>
    <i name="pawaedc">   -419.02269773 </i>
    <i name="eentropy">      0.01252602 </i>
    <i name="bandstr">    -88.63986276 </i>
    <i name="atom">    197.04175453 </i>
    <i name="e_fr_energy">    -23.97039458 </i>
    <i name="e_wo_entrp">    -23.98292060 </i>
    <i name="e_0_energy">    -23.97456992 </i>
   </energy>
  </scstep>
  <structure>
   <crystal>
    <varray name="basis" >
     <v>      10.09056282       0.00000000       0.00000000 </v>
     <v>      -0.29423386       9.81163172       0.00000000 </v>
     <v>      -0.01613188       0.16814046       9.75204331 </v>
    </varray>
    <i name="volume">    965.49993799 </i>
    <varray name="rec_basis" >
     <v>       0.09910250       0.00297191       0.00011270 </v>
     <v>       0.00000000       0.10191985      -0.00175726 </v>
     <v>       0.00000000      -0.00000000       0.10254261 </v>
    </varray>
   </crystal>
   <varray name="positions" >
    <v>       0.53540580       0.39928511       0.36183391 </v>
    <v>       0.39727725       0.48508427       0.43695945 </v>
    <v>       0.55720860       0.57265776       0.44627367 </v>
    <v>       0.52822930       0.40970669       0.54071732 </v>
    <v>       0.50309461       0.46720865       0.44434887 </v>
   </varray>
  </structure>
  <varray name="forces" >
   <v>       0.26370166       0.59517669       0.40657596 </v>
   <v>      -1.13310881      -0.33535329      -0.35546305 </v>
   <v>      -0.86620754      -1.75478781      -0.47421718 </v>
   <v>      -0.26869680       0.95204090      -0.12192000 </v>
   <v>       0.90923237       0.91379441       1.09752449 </v>
  </varray>
  <varray name="stress" >
   <v>      -0.61716502      -0.79658270      -0.27566638 </v>
   <v>      -0.79658270      -4.24628802      -0.32125933 </v>
   <v>      -0.27566638      -0.32125933       0.53077387 </v>
  </varray>
  <energy>
   <i name="e_fr_energy">    -23.97039458 </i>
   <i name="e_wo_entrp">    -23.97456992 </i>
   <i name="e_0_energy">      0.01252602 </i>
   <i name="kinetic">      0.05487641 </i>
   <i name="lattice kinetic">      0.00000000 </i>
   <i name="nosepot">      0.00165140 </i>
   <i name="nosekinetic">      0.00238012 </i>
   <i name="total">    -23.91148665 </i>
  </energy>
  <dos>
   <i name="efermi">     -8.67956804 </i>
   <total>
    <array>
     <dimension dim="1">gridpoints</dimension>
     <dimension dim="2">spin</dimension>
     <field>energy</field>
     <field>total</field>
     <field>integrated</field>
     <set>
      <set comment="spin 1">
       <r>   -18.7383     0.0000     0.0000 </r>
       <r>   -18.6667     0.0000     0.0000 </r>
       <r>   -18.5952     0.0000     0.0000 </r>
       <r>   -18.5237     0.0000     0.0000 </r>
       <r>   -18.4521     0.0000     0.0000 </r>
       <r>   -18.3806    -0.0000    -0.0000 </r>
       <r>   -18.3090    -0.0000    -0.0000 </r>
       <r>   -18.2375    -0.0000    -0.0000 </r>
       <r>   -18.1659    -0.0000    -0.0000 </r>
       <r>   -18.0944    -0.0000    -0.0000 </r>
       <r>   -18.0229    -0.0000    -0.0000 </r>
       <r>   -17.9513    -0.0000    -0.0000 </r>
       <r>   -17.8798    -0.0000    -0.0000 </r>
       <r>   -17.8082    -0.0000    -0.0000 </r>
       <r>   -17.7367    -0.0000    -0.0000 </r>
       <r>   -17.6652    -0.0000    -0.0000 </r>
       <r>   -17.5936    -0.0000    -0.0000 </r>
       <r>   -17.5221    -0.0000    -0.0000 </r>
       <r>   -17.4505    -0.0001    -0.0000 </r>
       <r>   -17.3790    -0.0007    -0.0001 </r>
       <r>   -17.3074    -0.0052    -0.0004 </r>
       <r>   -17.2359    -0.0281    -0.0024 </r>
       <r>   -17.1644    -0.1092    -0.0103 </r>
       <r>   -17.0928    -0.2899    -0.0310 </r>
       <r>   -17.0213    -0.4391    -0.0624 </r>
       <r>   -16.9497     0.0307    -0.0602 </r>
       <r>   -16.8782     1.9661     0.0804 </r>
       <r>   -16.8067     5.2627     0.4569 </r>
       <r>   -16.7351     7.9619     1.0266 </r>
       <r>   -16.6636     7.8170     1.5858 </r>
       <r>   -16.5920     4.9584     1.9405 </r>
       <r>   -16.5205     1.7275     2.0641 </r>
       <r>   -16.4489    -0.0588     2.0599 </r>
       <r>   -16.3774    -0.4385     2.0285 </r>
       <r>   -16.3059    -0.2710     2.0092 </r>
       <r>   -16.2343    -0.0983     2.0021 </r>
       <r>   -16.1628    -0.0245     2.0004 </r>
       <r>   -16.0912    -0.0044     2.0000 </r>
       <r>   -16.0197    -0.0006     2.0000 </r>
       <r>   -15.9482    -0.0001     2.0000 </r>
       <r>   -15.8766    -0.0000     2.0000 </r>
       <r>   -15.8051    -0.0000     2.0000 </r>
       <r>   -15.7335    -0.0000     2.0000 </r>
       <r>   -15.6620    -0.0000     2.0000 </r>
       <r>   -15.5904    -0.0000     2.0000 </r>
       <r>   -15.5189    -0.0000     2.0000 </r>
       <r>   -15.4474    -0.0000     2.0000 </r>
       <r>   -15.3758     0.0000     2.0000 </r>
       <r>   -15.3043     0.0000     2.0000 </r>
       <r>   -15.2327     0.0000     2.0000 </r>
       <r>   -15.1612     0.0000     2.0000 </r>
       <r>   -15.0897     0.0000     2.0000 </r>
       <r>   -15.0181     0.0000     2.0000 </r>
       <r>   -14.9466     0.0000     2.0000 </r>
       <r>   -14.8750     0.0000     2.0000 </r>
       <r>   -14.8035     0.0000     2.0000 </r>
       <r>   -14.7319     0.0000     2.0000 </r>
       <r>   -14.6604     0.0000     2.0000 </r>
       <r>   -14.5889     0.0000     2.0000 </r>
       <r>   -14.5173     0.0000     2.0000 </r>
       <r>   -14.4458     0.0000     2.0000 </r>
       <r>   -14.3742     0.0000     2.0000 </r>
       <r>   -14.3027     0.0000     2.0000 </r>
       <r>   -14.2312     0.0000     2.0000 </r>
       <r>   -14.1596     0.0000     2.0000 </r>
       <r>   -14.0881     0.0000     2.0000 </r>
       <r>   -14.0165     0.0000     2.0000 </r>
       <r>   -13.9450     0.0000     2.0000 </r>
[...]
       <r>     0.2763    -0.6209     9.9345 </r>
       <r>     0.3490    -0.8385     9.8736 </r>
       <r>     0.4218     0.0955     9.8805 </r>
       <r>     0.4945     3.7989    10.1568 </r>
       <r>     0.5672    10.6927    10.9345 </r>
       <r>     0.6400    18.1753    12.2564 </r>
       <r>     0.7127    21.5649    13.8248 </r>
       <r>     0.7854    18.2122    15.1494 </r>
       <r>     0.8581    10.4513    15.9095 </r>
       <r>     0.9309     3.3133    16.1505 </r>
       <r>     1.0036    -0.2808    16.1301 </r>
       <r>     1.0763    -0.9535    16.0607 </r>
       <r>     1.1491    -0.5688    16.0194 </r>
       <r>     1.2218    -0.2046    16.0045 </r>
       <r>     1.2945    -0.0510    16.0008 </r>
       <r>     1.3673    -0.0092    16.0001 </r>
       <r>     1.4400    -0.0012    16.0000 </r>
       <r>     1.5127    -0.0001    16.0000 </r>
       <r>     1.5854    -0.0000    16.0000 </r>
       <r>     1.6582    -0.0000    16.0000 </r>
       <r>     1.7309    -0.0000    16.0000 </r>
       <r>     1.8036    -0.0000    16.0000 </r>
       <r>     1.8764    -0.0000    16.0000 </r>
       <r>     1.9491    -0.0000    16.0000 </r>
       <r>     2.0218    -0.0000    16.0000 </r>
       <r>     2.0946     0.0000    16.0000 </r>
       <r>     2.1673     0.0000    16.0000 </r>
       <r>     2.2400     0.0000    16.0000 </r>
       <r>     2.3127     0.0000    16.0000 </r>
       <r>     2.3855     0.0000    16.0000 </r>
       <r>     2.4582     0.0000    16.0000 </r>
       <r>     2.5309     0.0000    16.0000 </r>
       <r>     2.6037     0.0000    16.0000 </r>
       <r>     2.6764     0.0000    16.0000 </r>
       <r>     2.7491     0.0000    16.0000 </r>
      </set>
     </set>
    </array>
   </total>
  </dos>
  <time name="totalsc">   66.87   68.25</time>
  <eigenvalues>
   <array>
    <dimension dim="1">band</dimension>
    <dimension dim="2">kpoint</dimension>
    <dimension dim="3">spin</dimension>
    <field>eigene</field>
    <field>occ</field>
    <set>
     <set comment="spin 1">
      <set comment="kpoint 1">
       <r>  -16.7444    1.0000 </r>
       <r>   -9.3831    1.0000 </r>
       <r>   -9.2459    1.0000 </r>
       <r>   -8.7546    1.0000 </r>
       <r>   -0.3000    0.0000 </r>
       <r>    0.5840    0.0000 </r>
       <r>    0.6674    0.0000 </r>
       <r>    0.7248    0.0000 </r>
      </set>
      <set comment="kpoint 2">
       <r>  -16.7444    1.0000 </r>
       <r>   -9.3831    1.0000 </r>
       <r>   -9.2456    1.0000 </r>
       <r>   -8.7545    1.0000 </r>
       <r>   -0.3064    0.0000 </r>
       <r>    0.5895    0.0000 </r>
       <r>    0.6886    0.0000 </r>
       <r>    0.7407    0.0000 </r>
      </set>
      <set comment="kpoint 3">
       <r>  -16.7444    1.0000 </r>
       <r>   -9.3831    1.0000 </r>
       <r>   -9.2457    1.0000 </r>
       <r>   -8.7545    0.9999 </r>
       <r>   -0.3021    0.0000 </r>
       <r>    0.5834    0.0000 </r>
       <r>    0.6850    0.0000 </r>
       <r>    0.7242    0.0000 </r>
      </set>
      <set comment="kpoint 4">
       <r>  -16.7444    1.0000 </r>
       <r>   -9.3832    1.0000 </r>
       <r>   -9.2459    1.0000 </r>
       <r>   -8.7544    0.9999 </r>
       <r>   -0.2965    0.0000 </r>
       <r>    0.5733    0.0000 </r>
       <r>    0.6658    0.0000 </r>
       <r>    0.7156    0.0000 </r>
      </set>
     </set>
    </set>
   </array>
  </eigenvalues>
  <separator name="orbital magnetization" >
   <v name="MAGDIPOLOUT">      0.00000000      0.00000000      0.00000000</v>
  </separator>
  <dos>
   <i name="efermi">     -8.58613464 </i>
   <total>
    <array>
     <dimension dim="1">gridpoints</dimension>
     <dimension dim="2">spin</dimension>
     <field>energy</field>
     <field>total</field>
     <field>integrated</field>
     <set>
      <set comment="spin 1">
       <r>   -18.7444     0.0000     0.0000 </r>
       <r>   -18.6728     0.0000     0.0000 </r>
       <r>   -18.6012     0.0000     0.0000 </r>
       <r>   -18.5296     0.0000     0.0000 </r>
       <r>   -18.4580     0.0000     0.0000 </r>
       <r>   -18.3864    -0.0000    -0.0000 </r>
       <r>   -18.3147    -0.0000    -0.0000 </r>
       <r>   -18.2431    -0.0000    -0.0000 </r>
       <r>   -18.1715    -0.0000    -0.0000 </r>
       <r>   -18.0999    -0.0000    -0.0000 </r>
       <r>   -18.0283    -0.0000    -0.0000 </r>
       <r>   -17.9567    -0.0000    -0.0000 </r>
       <r>   -17.8850    -0.0000    -0.0000 </r>
       <r>   -17.8134    -0.0000    -0.0000 </r>
       <r>   -17.7418    -0.0000    -0.0000 </r>
       <r>   -17.6702    -0.0000    -0.0000 </r>
       <r>   -17.5986    -0.0000    -0.0000 </r>
       <r>   -17.5270    -0.0000    -0.0000 </r>
       <r>   -17.4553    -0.0001    -0.0000 </r>
       <r>   -17.3837    -0.0007    -0.0001 </r>
       <r>   -17.3121    -0.0054    -0.0004 </r>
       <r>   -17.2405    -0.0290    -0.0025 </r>
       <r>   -17.1689    -0.1122    -0.0106 </r>
       <r>   -17.0972    -0.2951    -0.0317 </r>
       <r>   -17.0256    -0.4385    -0.0631 </r>
       <r>   -16.9540     0.0596    -0.0588 </r>
       <r>   -16.8824     2.0422     0.0874 </r>
       <r>   -16.8108     5.3593     0.4712 </r>
       <r>   -16.7392     8.0045     1.0445 </r>
       <r>   -16.6675     7.7616     1.6004 </r>
       <r>   -16.5959     4.8493     1.9477 </r>
       <r>   -16.5243     1.6428     2.0653 </r>
       <r>   -16.4527    -0.0897     2.0589 </r>
       <r>   -16.3811    -0.4371     2.0276 </r>
       <r>   -16.3095    -0.2634     2.0087 </r>
       <r>   -16.2378    -0.0940     2.0020 </r>
       <r>   -16.1662    -0.0231     2.0003 </r>
       <r>   -16.0946    -0.0041     2.0000 </r>
       <r>   -16.0230    -0.0005     2.0000 </r>
       <r>   -15.9514    -0.0001     2.0000 </r>
       <r>   -15.8798    -0.0000     2.0000 </r>
       <r>   -15.8081    -0.0000     2.0000 </r>
       <r>   -15.7365    -0.0000     2.0000 </r>
       <r>   -15.6649    -0.0000     2.0000 </r>
       <r>   -15.5933    -0.0000     2.0000 </r>
       <r>   -15.5217    -0.0000     2.0000 </r>
       <r>   -15.4500     0.0000     2.0000 </r>
       <r>   -15.3784     0.0000     2.0000 </r>
       <r>   -15.3068     0.0000     2.0000 </r>
       <r>   -15.2352     0.0000     2.0000 </r>
       <r>   -15.1636     0.0000     2.0000 </r>
       <r>   -15.0920     0.0000     2.0000 </r>
       <r>   -15.0203     0.0000     2.0000 </r>
       <r>   -14.9487     0.0000     2.0000 </r>
       <r>   -14.8771     0.0000     2.0000 </r>
       <r>   -14.8055     0.0000     2.0000 </r>
       <r>   -14.7339     0.0000     2.0000 </r>
       <r>   -14.6623     0.0000     2.0000 </r>
       <r>   -14.5906     0.0000     2.0000 </r>
       <r>   -14.5190     0.0000     2.0000 </r>
       <r>   -14.4474     0.0000     2.0000 </r>
       <r>   -14.3758     0.0000     2.0000 </r>
       <r>   -14.3042     0.0000     2.0000 </r>
       <r>   -14.2326     0.0000     2.0000 </r>
       <r>   -14.1609     0.0000     2.0000 </r>
       <r>   -14.0893     0.0000     2.0000 </r>
       <r>   -14.0177     0.0000     2.0000 </r>
       <r>   -13.9461     0.0000     2.0000 </r>
       <r>   -13.8745     0.0000     2.0000 </r>
       <r>   -13.8029     0.0000     2.0000 </r>
       <r>   -13.7312     0.0000     2.0000 </r>
       <r>   -13.6596     0.0000     2.0000 </r>
       <r>   -13.5880     0.0000     2.0000 </r>
       <r>   -13.5164     0.0000     2.0000 </r>
       <r>   -13.4448     0.0000     2.0000 </r>
       <r>   -13.3731     0.0000     2.0000 </r>
       <r>   -13.3015     0.0000     2.0000 </r>
       <r>   -13.2299     0.0000     2.0000 </r>
       <r>   -13.1583     0.0000     2.0000 </r>
       <r>   -13.0867     0.0000     2.0000 </r>
       <r>   -13.0151     0.0000     2.0000 </r>
       <r>   -12.9434     0.0000     2.0000 </r>
       <r>   -12.8718     0.0000     2.0000 </r>
       <r>   -12.8002     0.0000     2.0000 </r>
       <r>   -12.7286     0.0000     2.0000 </r>
       <r>   -12.6570     0.0000     2.0000 </r>
       <r>   -12.5854     0.0000     2.0000 </r>
       <r>   -12.5137     0.0000     2.0000 </r>
       <r>   -12.4421     0.0000     2.0000 </r>
       <r>   -12.3705     0.0000     2.0000 </r>
       <r>   -12.2989     0.0000     2.0000 </r>
       <r>   -12.2273     0.0000     2.0000 </r>
       <r>   -12.1557     0.0000     2.0000 </r>
       <r>   -12.0840     0.0000     2.0000 </r>
       <r>   -12.0124     0.0000     2.0000 </r>
       <r>   -11.9408     0.0000     2.0000 </r>
       <r>   -11.8692     0.0000     2.0000 </r>
       <r>   -11.7976     0.0000     2.0000 </r>
       <r>   -11.7260     0.0000     2.0000 </r>
       <r>   -11.6543     0.0000     2.0000 </r>
       <r>   -11.5827     0.0000     2.0000 </r>
       <r>   -11.5111     0.0000     2.0000 </r>
       <r>   -11.4395     0.0000     2.0000 </r>
       <r>   -11.3679     0.0000     2.0000 </r>
       <r>   -11.2962     0.0000     2.0000 </r>
       <r>   -11.2246     0.0000     2.0000 </r>
       <r>   -11.1530     0.0000     2.0000 </r>
       <r>   -11.0814     0.0000     2.0000 </r>
       <r>   -11.0098    -0.0000     2.0000 </r>
       <r>   -10.9382    -0.0000     2.0000 </r>
       <r>   -10.8665    -0.0000     2.0000 </r>
       <r>   -10.7949    -0.0000     2.0000 </r>
       <r>   -10.7233    -0.0000     2.0000 </r>
       <r>   -10.6517    -0.0000     2.0000 </r>
       <r>   -10.5801    -0.0000     2.0000 </r>
       <r>   -10.5085    -0.0000     2.0000 </r>
       <r>   -10.4368    -0.0000     2.0000 </r>
       <r>   -10.3652    -0.0000     2.0000 </r>
       <r>   -10.2936    -0.0000     2.0000 </r>
       <r>   -10.2220    -0.0000     2.0000 </r>
       <r>   -10.1504    -0.0000     2.0000 </r>
       <r>   -10.0788    -0.0001     2.0000 </r>
       <r>   -10.0071    -0.0012     1.9999 </r>
       <r>    -9.9355    -0.0081     1.9993 </r>
       <r>    -9.8639    -0.0413     1.9964 </r>
       <r>    -9.7923    -0.1521     1.9855 </r>
       <r>    -9.7207    -0.3859     1.9578 </r>
       <r>    -9.6491    -0.5724     1.9169 </r>
       <r>    -9.5774    -0.0206     1.9154 </r>
       <r>    -9.5058     2.2812     2.0787 </r>
       <r>    -9.4342     6.5373     2.5469 </r>
       <r>    -9.3626    11.1747     3.3472 </r>
       <r>    -9.2910    13.6218     4.3228 </r>
       <r>    -9.2193    12.3324     5.2060 </r>
       <r>    -9.1477     8.0384     5.7817 </r>
       <r>    -9.0761     3.1813     6.0095 </r>
       <r>    -9.0045     0.1787     6.0223 </r>
       <r>    -8.9329     0.1913     6.0360 </r>
       <r>    -8.8613     2.9257     6.2456 </r>
       <r>    -8.7896     6.5359     6.7136 </r>
       <r>    -8.7180     8.2468     7.3042 </r>
       <r>    -8.6464     6.6872     7.7832 </r>
       <r>    -8.5748     3.3390     8.0223 </r>
       <r>    -8.5032     0.6747     8.0706 </r>
       <r>    -8.4316    -0.3608     8.0448 </r>
       <r>    -8.3599    -0.3817     8.0174 </r>
       <r>    -8.2883    -0.1770     8.0048 </r>
       <r>    -8.2167    -0.0532     8.0010 </r>
       <r>    -8.1451    -0.0113     8.0001 </r>
       <r>    -8.0735    -0.0018     8.0000 </r>
       <r>    -8.0019    -0.0002     8.0000 </r>
       <r>    -7.9302    -0.0000     8.0000 </r>
       <r>    -7.8586    -0.0000     8.0000 </r>
       <r>    -7.7870    -0.0000     8.0000 </r>
       <r>    -7.7154    -0.0000     8.0000 </r>
       <r>    -7.6438    -0.0000     8.0000 </r>
       <r>    -7.5722    -0.0000     8.0000 </r>
       <r>    -7.5005    -0.0000     8.0000 </r>
       <r>    -7.4289     0.0000     8.0000 </r>
       <r>    -7.3573     0.0000     8.0000 </r>
       <r>    -7.2857     0.0000     8.0000 </r>
       <r>    -7.2141     0.0000     8.0000 </r>
       <r>    -7.1424     0.0000     8.0000 </r>
       <r>    -7.0708     0.0000     8.0000 </r>
       <r>    -6.9992     0.0000     8.0000 </r>
       <r>    -6.9276     0.0000     8.0000 </r>
       <r>    -6.8560     0.0000     8.0000 </r>
       <r>    -6.7844     0.0000     8.0000 </r>
       <r>    -6.7127     0.0000     8.0000 </r>
       <r>    -6.6411     0.0000     8.0000 </r>
       <r>    -6.5695     0.0000     8.0000 </r>
       <r>    -6.4979     0.0000     8.0000 </r>
       <r>    -6.4263     0.0000     8.0000 </r>
       <r>    -6.3547     0.0000     8.0000 </r>
       <r>    -6.2830     0.0000     8.0000 </r>
       <r>    -6.2114     0.0000     8.0000 </r>
       <r>    -6.1398     0.0000     8.0000 </r>
       <r>    -6.0682     0.0000     8.0000 </r>
       <r>    -5.9966     0.0000     8.0000 </r>
       <r>    -5.9250     0.0000     8.0000 </r>
       <r>    -5.8533     0.0000     8.0000 </r>
       <r>    -5.7817     0.0000     8.0000 </r>
       <r>    -5.7101     0.0000     8.0000 </r>
       <r>    -5.6385     0.0000     8.0000 </r>
       <r>    -5.5669     0.0000     8.0000 </r>
       <r>    -5.4953     0.0000     8.0000 </r>
       <r>    -5.4236     0.0000     8.0000 </r>
       <r>    -5.3520     0.0000     8.0000 </r>
       <r>    -5.2804     0.0000     8.0000 </r>
       <r>    -5.2088     0.0000     8.0000 </r>
       <r>    -5.1372     0.0000     8.0000 </r>
       <r>    -5.0655     0.0000     8.0000 </r>
       <r>    -4.9939     0.0000     8.0000 </r>
       <r>    -4.9223     0.0000     8.0000 </r>
       <r>    -4.8507     0.0000     8.0000 </r>
       <r>    -4.7791     0.0000     8.0000 </r>
       <r>    -4.7075     0.0000     8.0000 </r>
       <r>    -4.6358     0.0000     8.0000 </r>
       <r>    -4.5642     0.0000     8.0000 </r>
       <r>    -4.4926     0.0000     8.0000 </r>
       <r>    -4.4210     0.0000     8.0000 </r>
       <r>    -4.3494     0.0000     8.0000 </r>
       <r>    -4.2778     0.0000     8.0000 </r>
       <r>    -4.2061     0.0000     8.0000 </r>
       <r>    -4.1345     0.0000     8.0000 </r>
       <r>    -4.0629     0.0000     8.0000 </r>
       <r>    -3.9913     0.0000     8.0000 </r>
       <r>    -3.9197     0.0000     8.0000 </r>
       <r>    -3.8481     0.0000     8.0000 </r>
       <r>    -3.7764     0.0000     8.0000 </r>
       <r>    -3.7048     0.0000     8.0000 </r>
       <r>    -3.6332     0.0000     8.0000 </r>
       <r>    -3.5616     0.0000     8.0000 </r>
       <r>    -3.4900     0.0000     8.0000 </r>
       <r>    -3.4184     0.0000     8.0000 </r>
       <r>    -3.3467     0.0000     8.0000 </r>
       <r>    -3.2751     0.0000     8.0000 </r>
       <r>    -3.2035     0.0000     8.0000 </r>
       <r>    -3.1319     0.0000     8.0000 </r>
       <r>    -3.0603     0.0000     8.0000 </r>
       <r>    -2.9886     0.0000     8.0000 </r>
       <r>    -2.9170     0.0000     8.0000 </r>
       <r>    -2.8454     0.0000     8.0000 </r>
       <r>    -2.7738     0.0000     8.0000 </r>
       <r>    -2.7022     0.0000     8.0000 </r>
       <r>    -2.6306     0.0000     8.0000 </r>
       <r>    -2.5589     0.0000     8.0000 </r>
       <r>    -2.4873     0.0000     8.0000 </r>
       <r>    -2.4157     0.0000     8.0000 </r>
       <r>    -2.3441     0.0000     8.0000 </r>
       <r>    -2.2725     0.0000     8.0000 </r>
       <r>    -2.2009     0.0000     8.0000 </r>
       <r>    -2.1292     0.0000     8.0000 </r>
       <r>    -2.0576     0.0000     8.0000 </r>
       <r>    -1.9860     0.0000     8.0000 </r>
       <r>    -1.9144    -0.0000     8.0000 </r>
       <r>    -1.8428    -0.0000     8.0000 </r>
       <r>    -1.7712    -0.0000     8.0000 </r>
       <r>    -1.6995    -0.0000     8.0000 </r>
       <r>    -1.6279    -0.0000     8.0000 </r>
       <r>    -1.5563    -0.0000     8.0000 </r>
       <r>    -1.4847    -0.0000     8.0000 </r>
       <r>    -1.4131    -0.0000     8.0000 </r>
       <r>    -1.3415    -0.0000     8.0000 </r>
       <r>    -1.2698    -0.0000     8.0000 </r>
       <r>    -1.1982    -0.0000     8.0000 </r>
       <r>    -1.1266    -0.0000     8.0000 </r>
       <r>    -1.0550    -0.0000     8.0000 </r>
       <r>    -0.9834    -0.0002     8.0000 </r>
       <r>    -0.9117    -0.0017     7.9999 </r>
       <r>    -0.8401    -0.0111     7.9991 </r>
       <r>    -0.7685    -0.0522     7.9953 </r>
       <r>    -0.6969    -0.1744     7.9828 </r>
       <r>    -0.6253    -0.3786     7.9557 </r>
       <r>    -0.5537    -0.3650     7.9296 </r>
       <r>    -0.4820     0.6496     7.9761 </r>
       <r>    -0.4104     3.2918     8.2118 </r>
       <r>    -0.3388     6.6552     8.6885 </r>
       <r>    -0.2672     8.3088     9.2835 </r>
       <r>    -0.1956     6.7964     9.7703 </r>
       <r>    -0.1240     3.4551    10.0177 </r>
       <r>    -0.0523     0.7389    10.0706 </r>
       <r>     0.0193    -0.3532    10.0453 </r>
       <r>     0.0909    -0.4240    10.0150 </r>
       <r>     0.1625    -0.3302     9.9913 </r>
       <r>     0.2341    -0.4797     9.9570 </r>
       <r>     0.3057    -0.8070     9.8992 </r>
       <r>     0.3774    -0.5964     9.8565 </r>
       <r>     0.4490     1.6294     9.9732 </r>
       <r>     0.5206     7.0961    10.4814 </r>
       <r>     0.5922    14.7622    11.5386 </r>
       <r>     0.6638    20.6881    13.0202 </r>
       <r>     0.7354    20.7893    14.5091 </r>
       <r>     0.8071    14.8360    15.5716 </r>
       <r>     0.8787     6.8877    16.0649 </r>
       <r>     0.9503     1.2925    16.1574 </r>
       <r>     1.0219    -0.7997    16.1002 </r>
       <r>     1.0935    -0.8355    16.0403 </r>
       <r>     1.1652    -0.4015    16.0116 </r>
       <r>     1.2368    -0.1273    16.0025 </r>
       <r>     1.3084    -0.0289    16.0004 </r>
       <r>     1.3800    -0.0049    16.0000 </r>
       <r>     1.4516    -0.0006    16.0000 </r>
       <r>     1.5232    -0.0001    16.0000 </r>
       <r>     1.5949    -0.0000    16.0000 </r>
       <r>     1.6665    -0.0000    16.0000 </r>
       <r>     1.7381    -0.0000    16.0000 </r>
       <r>     1.8097    -0.0000    16.0000 </r>
       <r>     1.8813    -0.0000    16.0000 </r>
       <r>     1.9529    -0.0000    16.0000 </r>
       <r>     2.0246    -0.0000    16.0000 </r>
       <r>     2.0962     0.0000    16.0000 </r>
       <r>     2.1678     0.0000    16.0000 </r>
       <r>     2.2394     0.0000    16.0000 </r>
       <r>     2.3110     0.0000    16.0000 </r>
       <r>     2.3826     0.0000    16.0000 </r>
       <r>     2.4543     0.0000    16.0000 </r>
       <r>     2.5259     0.0000    16.0000 </r>
       <r>     2.5975     0.0000    16.0000 </r>
       <r>     2.6691     0.0000    16.0000 </r>
       <r>     2.7407     0.0000    16.0000 </r>
      </set>
     </set>
    </array>
   </total>
  </dos>
 </calculation>
 <structure name="finalpos" >
  <crystal>
   <varray name="basis" >
    <v>      10.09056282       0.00000000       0.00000000 </v>
    <v>      -0.29423386       9.81163172       0.00000000 </v>
    <v>      -0.01613188       0.16814046       9.75204331 </v>
   </varray>
   <i name="volume">    965.49993799 </i>
   <varray name="rec_basis" >
    <v>       0.09910250       0.00297191       0.00011270 </v>
    <v>       0.00000000       0.10191985      -0.00175726 </v>
    <v>       0.00000000      -0.00000000       0.10254261 </v>
   </varray>
  </crystal>
  <varray name="positions" >
   <v>       0.53912059       0.39816253       0.36815360 </v>
   <v>       0.40085788       0.50017633       0.42651751 </v>
   <v>       0.57147188       0.55497011       0.44932969 </v>
   <v>       0.49898488       0.40978951       0.54070042 </v>
   <v>       0.50373450       0.46751132       0.44443905 </v>
  </varray>
  <varray name="velocities" >
   <v>      -0.00186165      -0.00391358      -0.00117628 </v>
   <v>      -0.00122436       0.00100248      -0.00194473 </v>
   <v>      -0.00009980      -0.00094246       0.00167360 </v>
   <v>      -0.00244720      -0.00342010       0.00128019 </v>
   <v>       0.00046899       0.00060558       0.00001392 </v>
  </varray>
 </structure>
</modeling>
