unknown system                          
           1
    10.090563    0.000000    0.000000
    -0.294234    9.811632    0.000000
    -0.016132    0.168140    9.752043
   H    C 
   4   1
Direct configuration=     1
   0.53829499  0.40733482  0.36059984
   0.39470001  0.48043433  0.43855220
   0.55275021  0.56587591  0.44299648
   0.52856722  0.41614404  0.53961099
   0.50341169  0.46695428  0.44468397
Direct configuration=     2
   0.53728932  0.40475517  0.36168624
   0.39277208  0.48390815  0.43814999
   0.55324891  0.56733561  0.44470725
   0.52924465  0.41147575  0.54185893
   0.50355802  0.46714697  0.44429741
Direct configuration=     3
   0.53540580  0.39928511  0.36183391
   0.39727725  0.48508427  0.43695945
   0.55720860  0.57265776  0.44627367
   0.52822930  0.40970669  0.54071732
   0.50309461  0.46720865  0.44434887
Direct configuration=     4
   0.53489997  0.39618426  0.36342475
   0.39758620  0.48486055  0.43429063
   0.55783345  0.57095976  0.44580824
   0.52659830  0.41159989  0.53900474
   0.50319477  0.46746920  0.44461995
Direct configuration=     5
   0.53513144  0.39718012  0.36586297
   0.39734071  0.48508555  0.42983556
   0.55481968  0.56441041  0.44417426
   0.52502250  0.41437443  0.53886477
   0.50357805  0.46768183  0.44493556
Direct configuration=     6
   0.53600459  0.40127042  0.36935760
   0.40011686  0.48600575  0.42612194
   0.55688803  0.56102441  0.44176044
   0.52051476  0.41598191  0.54228386
   0.50347732  0.46741274  0.44487010
Direct configuration=     7
   0.54079094  0.40058998  0.36513624
   0.40158567  0.48829324  0.42663594
   0.56165720  0.56065762  0.44221562
   0.51603828  0.41518004  0.54739876
   0.50293216  0.46737625  0.44471502
Direct configuration=     8
   0.54530126  0.39885332  0.36076891
   0.39924772  0.49323442  0.42859052
   0.56605751  0.56007702  0.44335383
   0.51015300  0.41479444  0.54763614
   0.50287493  0.46718989  0.44480137
Direct configuration=     9
   0.54477747  0.40020034  0.36352971
   0.40070287  0.49761422  0.42950437
   0.56963827  0.55812177  0.44507646
   0.50494163  0.41484201  0.54443960
   0.50293315  0.46687192  0.44461814
Direct configuration=    10
   0.54098224  0.40207611  0.36932988
   0.40208224  0.49917385  0.42846224
   0.57157167  0.55591257  0.44765610
   0.50143208  0.41320962  0.53942023
   0.50326551  0.46690574  0.44442513
