   5   5   0   0
  0.2147064E+03  0.1023121E-08  0.1022242E-08  0.1026892E-08  0.2000000E-14
   50.000000000000000     
  CAR 
 unknown system                          
      2.66963893    -18.69108943  301     -9.00023977      1.00000000
    -18.691  0.0000E+00  0.0000E+00
    -18.620  0.0000E+00  0.0000E+00
    -18.549  0.0000E+00  0.0000E+00
    -18.477  0.0000E+00  0.0000E+00
    -18.406  0.0000E+00  0.0000E+00
    -18.335 -0.2944E-27 -0.2096E-28
    -18.264 -0.8612E-25 -0.6153E-26
    -18.193 -0.1956E-22 -0.1399E-23
    -18.121 -0.3438E-20 -0.2462E-21
    -18.050 -0.4677E-18 -0.3354E-19
    -17.979 -0.4921E-16 -0.3538E-17
    -17.908 -0.4004E-14 -0.2887E-15
    -17.837 -0.2440E-12 -0.1766E-13
    -17.765 -0.1181E-10 -0.8585E-12
    -17.694 -0.4402E-09 -0.3220E-10
    -17.623 -0.1263E-07 -0.9315E-09
    -17.552 -0.2784E-06 -0.2076E-07
    -17.481 -0.4704E-05 -0.3557E-06
    -17.409 -0.6068E-04 -0.4676E-05
    -17.338 -0.5948E-03 -0.4703E-04
    -17.267 -0.4395E-02 -0.3599E-03
    -17.196 -0.2417E-01 -0.2081E-02
    -17.125 -0.9660E-01 -0.8959E-02
    -17.053 -0.2669E+00 -0.2796E-01
    -16.982 -0.4379E+00 -0.5914E-01
    -16.911 -0.8580E-01 -0.6525E-01
    -16.840  0.1640E+01  0.5153E-01
    -16.769  0.4827E+01  0.3952E+00
    -16.697  0.7740E+01  0.9463E+00
    -16.626  0.8031E+01  0.1518E+01
    -16.555  0.5442E+01  0.1906E+01
    -16.484  0.2126E+01  0.2057E+01
    -16.413  0.9988E-01  0.2064E+01
    -16.341 -0.4369E+00  0.2033E+01
    -16.270 -0.3053E+00  0.2011E+01
    -16.199 -0.1192E+00  0.2003E+01
    -16.128 -0.3170E-01  0.2001E+01
    -16.057 -0.6090E-02  0.2000E+01
    -15.985 -0.8678E-03  0.2000E+01
    -15.914 -0.9305E-04  0.2000E+01
    -15.843 -0.7571E-05  0.2000E+01
    -15.772 -0.4701E-06  0.2000E+01
    -15.701 -0.2236E-07  0.2000E+01
    -15.629 -0.8166E-09  0.2000E+01
    -15.558 -0.2295E-10  0.2000E+01
    -15.487 -0.4990E-12  0.2000E+01
    -15.416 -0.6237E-14  0.2000E+01
    -15.345  0.0000E+00  0.2000E+01
    -15.273  0.0000E+00  0.2000E+01
    -15.202  0.0000E+00  0.2000E+01
    -15.131  0.0000E+00  0.2000E+01
    -15.060  0.0000E+00  0.2000E+01
    -14.989  0.0000E+00  0.2000E+01
    -14.917  0.0000E+00  0.2000E+01
    -14.846  0.0000E+00  0.2000E+01
    -14.775  0.0000E+00  0.2000E+01
    -14.704  0.0000E+00  0.2000E+01
    -14.633  0.0000E+00  0.2000E+01
    -14.561  0.0000E+00  0.2000E+01
    -14.490  0.0000E+00  0.2000E+01
    -14.419  0.0000E+00  0.2000E+01
    -14.348  0.0000E+00  0.2000E+01
    -14.277  0.0000E+00  0.2000E+01
    -14.205  0.0000E+00  0.2000E+01
    -14.134  0.0000E+00  0.2000E+01
    -14.063  0.0000E+00  0.2000E+01
    -13.992  0.0000E+00  0.2000E+01
    -13.921  0.0000E+00  0.2000E+01
    -13.849  0.0000E+00  0.2000E+01
    -13.778  0.0000E+00  0.2000E+01
    -13.707  0.0000E+00  0.2000E+01
    -13.636  0.0000E+00  0.2000E+01
    -13.565  0.0000E+00  0.2000E+01
    -13.493  0.0000E+00  0.2000E+01
    -13.422  0.0000E+00  0.2000E+01
    -13.351  0.0000E+00  0.2000E+01
    -13.280  0.0000E+00  0.2000E+01
    -13.209  0.0000E+00  0.2000E+01
    -13.137  0.0000E+00  0.2000E+01
    -13.066  0.0000E+00  0.2000E+01
    -12.995  0.0000E+00  0.2000E+01
    -12.924  0.0000E+00  0.2000E+01
    -12.852  0.0000E+00  0.2000E+01
    -12.781  0.0000E+00  0.2000E+01
    -12.710  0.0000E+00  0.2000E+01
    -12.639  0.0000E+00  0.2000E+01
    -12.568  0.0000E+00  0.2000E+01
    -12.496  0.0000E+00  0.2000E+01
    -12.425  0.0000E+00  0.2000E+01
    -12.354  0.0000E+00  0.2000E+01
    -12.283  0.0000E+00  0.2000E+01
    -12.212  0.0000E+00  0.2000E+01
    -12.140  0.0000E+00  0.2000E+01
    -12.069  0.0000E+00  0.2000E+01
    -11.998  0.0000E+00  0.2000E+01
    -11.927  0.0000E+00  0.2000E+01
    -11.856  0.0000E+00  0.2000E+01
    -11.784  0.0000E+00  0.2000E+01
    -11.713  0.0000E+00  0.2000E+01
    -11.642  0.0000E+00  0.2000E+01
    -11.571  0.0000E+00  0.2000E+01
    -11.500  0.0000E+00  0.2000E+01
    -11.428  0.0000E+00  0.2000E+01
    -11.357  0.0000E+00  0.2000E+01
    -11.286  0.0000E+00  0.2000E+01
    -11.215  0.0000E+00  0.2000E+01
    -11.144  0.0000E+00  0.2000E+01
    -11.072  0.0000E+00  0.2000E+01
    -11.001  0.0000E+00  0.2000E+01
    -10.930  0.0000E+00  0.2000E+01
    -10.859 -0.7686E-26  0.2000E+01
    -10.788 -0.1945E-23  0.2000E+01
    -10.716 -0.3821E-21  0.2000E+01
    -10.645 -0.5810E-19  0.2000E+01
    -10.574 -0.6836E-17  0.2000E+01
    -10.503 -0.6223E-15  0.2000E+01
    -10.432 -0.4225E-13  0.2000E+01
    -10.360 -0.2308E-11  0.2000E+01
    -10.289 -0.9658E-10  0.2000E+01
    -10.218 -0.3118E-08  0.2000E+01
    -10.147 -0.7756E-07  0.2000E+01
    -10.076 -0.1485E-05  0.2000E+01
    -10.004 -0.2183E-04  0.2000E+01
     -9.933 -0.2460E-03  0.2000E+01
     -9.862 -0.2116E-02  0.2000E+01
     -9.791 -0.1382E-01  0.1999E+01
     -9.720 -0.6781E-01  0.1994E+01
     -9.648 -0.2452E+00  0.1977E+01
     -9.577 -0.6238E+00  0.1932E+01
     -9.506 -0.9632E+00  0.1864E+01
     -9.435 -0.1733E+00  0.1851E+01
     -9.364  0.3560E+01  0.2105E+01
     -9.292  0.1092E+02  0.2883E+01
     -9.221  0.1912E+02  0.4244E+01
     -9.150  0.2276E+02  0.5864E+01
     -9.079  0.1892E+02  0.7212E+01
     -9.008  0.1047E+02  0.7958E+01
     -8.936  0.3030E+01  0.8173E+01
     -8.865 -0.5096E+00  0.8137E+01
     -8.794 -0.1052E+01  0.8062E+01
     -8.723 -0.5973E+00  0.8020E+01
     -8.652 -0.2111E+00  0.8005E+01
     -8.580 -0.5244E-01  0.8001E+01
     -8.509 -0.9559E-02  0.8000E+01
     -8.438 -0.1304E-02  0.8000E+01
     -8.367 -0.1348E-03  0.8000E+01
     -8.296 -0.1061E-04  0.8000E+01
     -8.224 -0.6397E-06  0.8000E+01
     -8.153 -0.2961E-07  0.8000E+01
     -8.082 -0.1055E-08  0.8000E+01
     -8.011 -0.2899E-10  0.8000E+01
     -7.940 -0.6128E-12  0.8000E+01
     -7.868 -0.6237E-14  0.8000E+01
     -7.797  0.0000E+00  0.8000E+01
     -7.726  0.0000E+00  0.8000E+01
     -7.655  0.0000E+00  0.8000E+01
     -7.584  0.0000E+00  0.8000E+01
     -7.512  0.0000E+00  0.8000E+01
     -7.441  0.0000E+00  0.8000E+01
     -7.370  0.0000E+00  0.8000E+01
     -7.299  0.0000E+00  0.8000E+01
     -7.227  0.0000E+00  0.8000E+01
     -7.156  0.0000E+00  0.8000E+01
     -7.085  0.0000E+00  0.8000E+01
     -7.014  0.0000E+00  0.8000E+01
     -6.943  0.0000E+00  0.8000E+01
     -6.871  0.0000E+00  0.8000E+01
     -6.800  0.0000E+00  0.8000E+01
     -6.729  0.0000E+00  0.8000E+01
     -6.658  0.0000E+00  0.8000E+01
     -6.587  0.0000E+00  0.8000E+01
     -6.515  0.0000E+00  0.8000E+01
     -6.444  0.0000E+00  0.8000E+01
     -6.373  0.0000E+00  0.8000E+01
     -6.302  0.0000E+00  0.8000E+01
     -6.231  0.0000E+00  0.8000E+01
     -6.159  0.0000E+00  0.8000E+01
     -6.088  0.0000E+00  0.8000E+01
     -6.017  0.0000E+00  0.8000E+01
     -5.946  0.0000E+00  0.8000E+01
     -5.875  0.0000E+00  0.8000E+01
     -5.803  0.0000E+00  0.8000E+01
     -5.732  0.0000E+00  0.8000E+01
     -5.661  0.0000E+00  0.8000E+01
     -5.590  0.0000E+00  0.8000E+01
     -5.519  0.0000E+00  0.8000E+01
     -5.447  0.0000E+00  0.8000E+01
     -5.376  0.0000E+00  0.8000E+01
     -5.305  0.0000E+00  0.8000E+01
     -5.234  0.0000E+00  0.8000E+01
     -5.163  0.0000E+00  0.8000E+01
     -5.091  0.0000E+00  0.8000E+01
     -5.020  0.0000E+00  0.8000E+01
     -4.949  0.0000E+00  0.8000E+01
     -4.878  0.0000E+00  0.8000E+01
     -4.807  0.0000E+00  0.8000E+01
     -4.735  0.0000E+00  0.8000E+01
     -4.664  0.0000E+00  0.8000E+01
     -4.593  0.0000E+00  0.8000E+01
     -4.522  0.0000E+00  0.8000E+01
     -4.451  0.0000E+00  0.8000E+01
     -4.379  0.0000E+00  0.8000E+01
     -4.308  0.0000E+00  0.8000E+01
     -4.237  0.0000E+00  0.8000E+01
     -4.166  0.0000E+00  0.8000E+01
     -4.095  0.0000E+00  0.8000E+01
     -4.023  0.0000E+00  0.8000E+01
     -3.952  0.0000E+00  0.8000E+01
     -3.881  0.0000E+00  0.8000E+01
     -3.810  0.0000E+00  0.8000E+01
     -3.739  0.0000E+00  0.8000E+01
     -3.667  0.0000E+00  0.8000E+01
     -3.596  0.0000E+00  0.8000E+01
     -3.525  0.0000E+00  0.8000E+01
     -3.454  0.0000E+00  0.8000E+01
     -3.383  0.0000E+00  0.8000E+01
     -3.311  0.0000E+00  0.8000E+01
     -3.240  0.0000E+00  0.8000E+01
     -3.169  0.0000E+00  0.8000E+01
     -3.098  0.0000E+00  0.8000E+01
     -3.027  0.0000E+00  0.8000E+01
     -2.955  0.0000E+00  0.8000E+01
     -2.884  0.0000E+00  0.8000E+01
     -2.813  0.0000E+00  0.8000E+01
     -2.742  0.0000E+00  0.8000E+01
     -2.671  0.0000E+00  0.8000E+01
     -2.599  0.0000E+00  0.8000E+01
     -2.528  0.0000E+00  0.8000E+01
     -2.457  0.0000E+00  0.8000E+01
     -2.386  0.0000E+00  0.8000E+01
     -2.315  0.0000E+00  0.8000E+01
     -2.243  0.0000E+00  0.8000E+01
     -2.172  0.0000E+00  0.8000E+01
     -2.101  0.0000E+00  0.8000E+01
     -2.030 -0.2985E-28  0.8000E+01
     -1.959 -0.1179E-25  0.8000E+01
     -1.887 -0.2928E-23  0.8000E+01
     -1.816 -0.5634E-21  0.8000E+01
     -1.745 -0.8391E-19  0.8000E+01
     -1.674 -0.9669E-17  0.8000E+01
     -1.603 -0.8618E-15  0.8000E+01
     -1.531 -0.5781E-13  0.8000E+01
     -1.460 -0.3056E-11  0.8000E+01
     -1.389 -0.1250E-09  0.8000E+01
     -1.318 -0.3935E-08  0.8000E+01
     -1.246 -0.9527E-07  0.8000E+01
     -1.175 -0.1770E-05  0.8000E+01
     -1.104 -0.2514E-04  0.8000E+01
     -1.033 -0.2719E-03  0.8000E+01
     -0.962 -0.2224E-02  0.8000E+01
     -0.890 -0.1361E-01  0.7999E+01
     -0.819 -0.6120E-01  0.7994E+01
     -0.748 -0.1947E+00  0.7981E+01
     -0.677 -0.3977E+00  0.7952E+01
     -0.606 -0.3257E+00  0.7929E+01
     -0.534  0.8257E+00  0.7988E+01
     -0.463  0.3589E+01  0.8243E+01
     -0.392  0.6895E+01  0.8734E+01
     -0.321  0.8309E+01  0.9326E+01
     -0.250  0.6591E+01  0.9795E+01
     -0.178  0.3235E+01  0.1003E+02
     -0.107  0.6263E+00  0.1007E+02
     -0.036 -0.3783E+00  0.1004E+02
      0.035 -0.4295E+00  0.1001E+02
      0.106 -0.3573E+00  0.9987E+01
      0.178 -0.5133E+00  0.9951E+01
      0.249 -0.7316E+00  0.9899E+01
      0.320 -0.2377E+00  0.9882E+01
      0.391  0.2212E+01  0.1004E+02
      0.462  0.7381E+01  0.1056E+02
      0.534  0.1426E+02  0.1158E+02
      0.605  0.1973E+02  0.1299E+02
      0.676  0.2029E+02  0.1443E+02
      0.747  0.1514E+02  0.1551E+02
      0.818  0.7484E+01  0.1604E+02
      0.890  0.1658E+01  0.1616E+02
      0.961 -0.7265E+00  0.1611E+02
      1.032 -0.8774E+00  0.1604E+02
      1.103 -0.4407E+00  0.1601E+02
      1.174 -0.1434E+00  0.1600E+02
      1.246 -0.3320E-01  0.1600E+02
      1.317 -0.5664E-02  0.1600E+02
      1.388 -0.7249E-03  0.1600E+02
      1.459 -0.7032E-04  0.1600E+02
      1.530 -0.5204E-05  0.1600E+02
      1.602 -0.2951E-06  0.1600E+02
      1.673 -0.1286E-07  0.1600E+02
      1.744 -0.4313E-09  0.1600E+02
      1.815 -0.1116E-10  0.1600E+02
      1.886 -0.2277E-12  0.1600E+02
      1.958 -0.3118E-14  0.1600E+02
      2.029  0.0000E+00  0.1600E+02
      2.100  0.0000E+00  0.1600E+02
      2.171  0.0000E+00  0.1600E+02
      2.242  0.0000E+00  0.1600E+02
      2.314  0.0000E+00  0.1600E+02
      2.385  0.0000E+00  0.1600E+02
      2.456  0.0000E+00  0.1600E+02
      2.527  0.0000E+00  0.1600E+02
      2.598  0.0000E+00  0.1600E+02
      2.670  0.0000E+00  0.1600E+02
      2.67758350    -18.83358978  301     -9.03440871      1.00000000
    -18.834  0.0000E+00  0.0000E+00
    -18.762  0.0000E+00  0.0000E+00
    -18.690  0.0000E+00  0.0000E+00
    -18.618  0.0000E+00  0.0000E+00
    -18.547  0.0000E+00  0.0000E+00
    -18.475 -0.3587E-27 -0.2572E-28
    -18.403 -0.1081E-24 -0.7780E-26
    -18.332 -0.2521E-22 -0.1816E-23
    -18.260 -0.4535E-20 -0.3270E-21
    -18.188 -0.6288E-18 -0.4542E-19
    -18.117 -0.6721E-16 -0.4865E-17
    -18.045 -0.5534E-14 -0.4017E-15
    -17.973 -0.3400E-12 -0.2478E-13
    -17.901 -0.1652E-10 -0.1209E-11
    -17.830 -0.6162E-09 -0.4540E-10
    -17.758 -0.1762E-07 -0.1309E-08
    -17.686 -0.3857E-06 -0.2897E-07
    -17.615 -0.6444E-05 -0.4910E-06
    -17.543 -0.8186E-04 -0.6360E-05
    -17.471 -0.7863E-03 -0.6274E-04
    -17.400 -0.5664E-02 -0.4689E-03
    -17.328 -0.3016E-01 -0.2632E-02
    -17.256 -0.1157E+00 -0.1093E-01
    -17.184 -0.3010E+00 -0.3251E-01
    -17.113 -0.4373E+00 -0.6386E-01
    -17.041  0.9400E-01 -0.5712E-01
    -16.969  0.2131E+01  0.9566E-01
    -16.898  0.5469E+01  0.4878E+00
    -16.826  0.8050E+01  0.1065E+01
    -16.754  0.7695E+01  0.1617E+01
    -16.682  0.4724E+01  0.1956E+01
    -16.611  0.1548E+01  0.2067E+01
    -16.539 -0.1231E+00  0.2058E+01
    -16.467 -0.4349E+00  0.2027E+01
    -16.396 -0.2547E+00  0.2008E+01
    -16.324 -0.8931E-01  0.2002E+01
    -16.252 -0.2163E-01  0.2000E+01
    -16.181 -0.3801E-02  0.2000E+01
    -16.109 -0.4956E-03  0.2000E+01
    -16.037 -0.4857E-04  0.2000E+01
    -15.965 -0.3604E-05  0.2000E+01
    -15.894 -0.2035E-06  0.2000E+01
    -15.822 -0.8778E-08  0.2000E+01
    -15.750 -0.2899E-09  0.2000E+01
    -15.679 -0.7347E-11  0.2000E+01
    -15.607 -0.1424E-12  0.2000E+01
    -15.535  0.0000E+00  0.2000E+01
    -15.464  0.0000E+00  0.2000E+01
    -15.392  0.0000E+00  0.2000E+01
    -15.320  0.0000E+00  0.2000E+01
    -15.248  0.0000E+00  0.2000E+01
    -15.177  0.0000E+00  0.2000E+01
    -15.105  0.0000E+00  0.2000E+01
    -15.033  0.0000E+00  0.2000E+01
    -14.962  0.0000E+00  0.2000E+01
    -14.890  0.0000E+00  0.2000E+01
    -14.818  0.0000E+00  0.2000E+01
    -14.746  0.0000E+00  0.2000E+01
    -14.675  0.0000E+00  0.2000E+01
    -14.603  0.0000E+00  0.2000E+01
    -14.531  0.0000E+00  0.2000E+01
    -14.460  0.0000E+00  0.2000E+01
    -14.388  0.0000E+00  0.2000E+01
    -14.316  0.0000E+00  0.2000E+01
    -14.245  0.0000E+00  0.2000E+01
    -14.173  0.0000E+00  0.2000E+01
    -14.101  0.0000E+00  0.2000E+01
    -14.029  0.0000E+00  0.2000E+01
    -13.958  0.0000E+00  0.2000E+01
    -13.886  0.0000E+00  0.2000E+01
    -13.814  0.0000E+00  0.2000E+01
    -13.743  0.0000E+00  0.2000E+01
    -13.671  0.0000E+00  0.2000E+01
    -13.599  0.0000E+00  0.2000E+01
    -13.528  0.0000E+00  0.2000E+01
    -13.456  0.0000E+00  0.2000E+01
    -13.384  0.0000E+00  0.2000E+01
    -13.312  0.0000E+00  0.2000E+01
    -13.241  0.0000E+00  0.2000E+01
    -13.169  0.0000E+00  0.2000E+01
    -13.097  0.0000E+00  0.2000E+01
    -13.026  0.0000E+00  0.2000E+01
    -12.954  0.0000E+00  0.2000E+01
    -12.882  0.0000E+00  0.2000E+01
    -12.810  0.0000E+00  0.2000E+01
    -12.739  0.0000E+00  0.2000E+01
    -12.667  0.0000E+00  0.2000E+01
    -12.595  0.0000E+00  0.2000E+01
    -12.524  0.0000E+00  0.2000E+01
    -12.452  0.0000E+00  0.2000E+01
    -12.380  0.0000E+00  0.2000E+01
    -12.309  0.0000E+00  0.2000E+01
    -12.237  0.0000E+00  0.2000E+01
    -12.165  0.0000E+00  0.2000E+01
    -12.093  0.0000E+00  0.2000E+01
    -12.022  0.0000E+00  0.2000E+01
    -11.950  0.0000E+00  0.2000E+01
    -11.878  0.0000E+00  0.2000E+01
    -11.807  0.0000E+00  0.2000E+01
    -11.735  0.0000E+00  0.2000E+01
    -11.663  0.0000E+00  0.2000E+01
    -11.591  0.0000E+00  0.2000E+01
    -11.520  0.0000E+00  0.2000E+01
    -11.448  0.0000E+00  0.2000E+01
    -11.376  0.0000E+00  0.2000E+01
    -11.305  0.0000E+00  0.2000E+01
    -11.233  0.0000E+00  0.2000E+01
    -11.161  0.0000E+00  0.2000E+01
    -11.090  0.0000E+00  0.2000E+01
    -11.018 -0.7482E-28  0.2000E+01
    -10.946 -0.2417E-25  0.2000E+01
    -10.874 -0.6042E-23  0.2000E+01
    -10.803 -0.1165E-20  0.2000E+01
    -10.731 -0.1732E-18  0.2000E+01
    -10.659 -0.1985E-16  0.2000E+01
    -10.588 -0.1753E-14  0.2000E+01
    -10.516 -0.1162E-12  0.2000E+01
    -10.444 -0.6040E-11  0.2000E+01
    -10.373 -0.2422E-09  0.2000E+01
    -10.301 -0.7454E-08  0.2000E+01
    -10.229 -0.1759E-06  0.2000E+01
    -10.157 -0.3175E-05  0.2000E+01
    -10.086 -0.4375E-04  0.2000E+01
    -10.014 -0.4584E-03  0.2000E+01
     -9.942 -0.3633E-02  0.2000E+01
     -9.871 -0.2160E-01  0.1998E+01
     -9.799 -0.9494E-01  0.1991E+01
     -9.727 -0.2998E+00  0.1970E+01
     -9.655 -0.6325E+00  0.1924E+01
     -9.584 -0.6632E+00  0.1877E+01
     -9.512  0.7257E+00  0.1929E+01
     -9.440  0.4702E+01  0.2266E+01
     -9.369  0.1096E+02  0.3052E+01
     -9.297  0.1701E+02  0.4272E+01
     -9.225  0.1965E+02  0.5681E+01
     -9.154  0.1728E+02  0.6920E+01
     -9.082  0.1125E+02  0.7727E+01
     -9.010  0.4842E+01  0.8074E+01
     -8.938  0.7338E+00  0.8127E+01
     -8.867 -0.6905E+00  0.8077E+01
     -8.795 -0.6488E+00  0.8031E+01
     -8.723 -0.3043E+00  0.8009E+01
     -8.652 -0.9547E-01  0.8002E+01
     -8.580 -0.2153E-01  0.8000E+01
     -8.508 -0.3594E-02  0.8000E+01
     -8.437 -0.4502E-03  0.8000E+01
     -8.365 -0.4270E-04  0.8000E+01
     -8.293 -0.3081E-05  0.8000E+01
     -8.221 -0.1697E-06  0.8000E+01
     -8.150 -0.7159E-08  0.8000E+01
     -8.078 -0.2315E-09  0.8000E+01
     -8.006 -0.5752E-11  0.8000E+01
     -7.935 -0.1115E-12  0.8000E+01
     -7.863  0.0000E+00  0.8000E+01
     -7.791  0.0000E+00  0.8000E+01
     -7.719  0.0000E+00  0.8000E+01
     -7.648  0.0000E+00  0.8000E+01
     -7.576  0.0000E+00  0.8000E+01
     -7.504  0.0000E+00  0.8000E+01
     -7.433  0.0000E+00  0.8000E+01
     -7.361  0.0000E+00  0.8000E+01
     -7.289  0.0000E+00  0.8000E+01
     -7.218  0.0000E+00  0.8000E+01
     -7.146  0.0000E+00  0.8000E+01
     -7.074  0.0000E+00  0.8000E+01
     -7.002  0.0000E+00  0.8000E+01
     -6.931  0.0000E+00  0.8000E+01
     -6.859  0.0000E+00  0.8000E+01
     -6.787  0.0000E+00  0.8000E+01
     -6.716  0.0000E+00  0.8000E+01
     -6.644  0.0000E+00  0.8000E+01
     -6.572  0.0000E+00  0.8000E+01
     -6.501  0.0000E+00  0.8000E+01
     -6.429  0.0000E+00  0.8000E+01
     -6.357  0.0000E+00  0.8000E+01
     -6.285  0.0000E+00  0.8000E+01
     -6.214  0.0000E+00  0.8000E+01
     -6.142  0.0000E+00  0.8000E+01
     -6.070  0.0000E+00  0.8000E+01
     -5.999  0.0000E+00  0.8000E+01
     -5.927  0.0000E+00  0.8000E+01
     -5.855  0.0000E+00  0.8000E+01
     -5.783  0.0000E+00  0.8000E+01
     -5.712  0.0000E+00  0.8000E+01
     -5.640  0.0000E+00  0.8000E+01
     -5.568  0.0000E+00  0.8000E+01
     -5.497  0.0000E+00  0.8000E+01
     -5.425  0.0000E+00  0.8000E+01
     -5.353  0.0000E+00  0.8000E+01
     -5.282  0.0000E+00  0.8000E+01
     -5.210  0.0000E+00  0.8000E+01
     -5.138  0.0000E+00  0.8000E+01
     -5.066  0.0000E+00  0.8000E+01
     -4.995  0.0000E+00  0.8000E+01
     -4.923  0.0000E+00  0.8000E+01
     -4.851  0.0000E+00  0.8000E+01
     -4.780  0.0000E+00  0.8000E+01
     -4.708  0.0000E+00  0.8000E+01
     -4.636  0.0000E+00  0.8000E+01
     -4.565  0.0000E+00  0.8000E+01
     -4.493  0.0000E+00  0.8000E+01
     -4.421  0.0000E+00  0.8000E+01
     -4.349  0.0000E+00  0.8000E+01
     -4.278  0.0000E+00  0.8000E+01
     -4.206  0.0000E+00  0.8000E+01
     -4.134  0.0000E+00  0.8000E+01
     -4.063  0.0000E+00  0.8000E+01
     -3.991  0.0000E+00  0.8000E+01
     -3.919  0.0000E+00  0.8000E+01
     -3.847  0.0000E+00  0.8000E+01
     -3.776  0.0000E+00  0.8000E+01
     -3.704  0.0000E+00  0.8000E+01
     -3.632  0.0000E+00  0.8000E+01
     -3.561  0.0000E+00  0.8000E+01
     -3.489  0.0000E+00  0.8000E+01
     -3.417  0.0000E+00  0.8000E+01
     -3.346  0.0000E+00  0.8000E+01
     -3.274  0.0000E+00  0.8000E+01
     -3.202  0.0000E+00  0.8000E+01
     -3.130  0.0000E+00  0.8000E+01
     -3.059  0.0000E+00  0.8000E+01
     -2.987  0.0000E+00  0.8000E+01
     -2.915  0.0000E+00  0.8000E+01
     -2.844  0.0000E+00  0.8000E+01
     -2.772  0.0000E+00  0.8000E+01
     -2.700  0.0000E+00  0.8000E+01
     -2.629  0.0000E+00  0.8000E+01
     -2.557  0.0000E+00  0.8000E+01
     -2.485  0.0000E+00  0.8000E+01
     -2.413  0.0000E+00  0.8000E+01
     -2.342  0.0000E+00  0.8000E+01
     -2.270  0.0000E+00  0.8000E+01
     -2.198  0.0000E+00  0.8000E+01
     -2.127  0.0000E+00  0.8000E+01
     -2.055  0.0000E+00  0.8000E+01
     -1.983 -0.1554E-27  0.8000E+01
     -1.911 -0.4856E-25  0.8000E+01
     -1.840 -0.1174E-22  0.8000E+01
     -1.768 -0.2190E-20  0.8000E+01
     -1.696 -0.3149E-18  0.8000E+01
     -1.625 -0.3492E-16  0.8000E+01
     -1.553 -0.2983E-14  0.8000E+01
     -1.481 -0.1900E-12  0.8000E+01
     -1.410 -0.9597E-11  0.8000E+01
     -1.338 -0.3716E-09  0.8000E+01
     -1.266 -0.1104E-07  0.8000E+01
     -1.194 -0.2510E-06  0.8000E+01
     -1.123 -0.4359E-05  0.8000E+01
     -1.051 -0.5761E-04  0.8000E+01
     -0.979 -0.5763E-03  0.8000E+01
     -0.908 -0.4329E-02  0.8000E+01
     -0.836 -0.2411E-01  0.7998E+01
     -0.764 -0.9720E-01  0.7991E+01
     -0.693 -0.2693E+00  0.7972E+01
     -0.621 -0.4379E+00  0.7940E+01
     -0.549 -0.6075E-01  0.7936E+01
     -0.477  0.1726E+01  0.8060E+01
     -0.406  0.4962E+01  0.8415E+01
     -0.334  0.7821E+01  0.8976E+01
     -0.262  0.7951E+01  0.9546E+01
     -0.191  0.5235E+01  0.9922E+01
     -0.119  0.1938E+01  0.1006E+02
     -0.047  0.1330E-01  0.1006E+02
      0.025 -0.4681E+00  0.1003E+02
      0.096 -0.4067E+00  0.9999E+01
      0.168 -0.4622E+00  0.9966E+01
      0.240 -0.7211E+00  0.9914E+01
      0.311 -0.6210E+00  0.9869E+01
      0.383  0.1094E+01  0.9948E+01
      0.455  0.5663E+01  0.1035E+02
      0.526  0.1272E+02  0.1127E+02
      0.598  0.1926E+02  0.1265E+02
      0.670  0.2114E+02  0.1416E+02
      0.742  0.1670E+02  0.1536E+02
      0.813  0.8837E+01  0.1599E+02
      0.885  0.2333E+01  0.1616E+02
      0.957 -0.5905E+00  0.1612E+02
      1.028 -0.9388E+00  0.1605E+02
      1.100 -0.5030E+00  0.1602E+02
      1.172 -0.1700E+00  0.1600E+02
      1.244 -0.4043E-01  0.1600E+02
      1.315 -0.7041E-02  0.1600E+02
      1.387 -0.9151E-03  0.1600E+02
      1.459 -0.8975E-04  0.1600E+02
      1.530 -0.6688E-05  0.1600E+02
      1.602 -0.3803E-06  0.1600E+02
      1.674 -0.1656E-07  0.1600E+02
      1.745 -0.5530E-09  0.1600E+02
      1.817 -0.1419E-10  0.1600E+02
      1.889 -0.2833E-12  0.1600E+02
      1.961 -0.3097E-14  0.1600E+02
      2.032  0.0000E+00  0.1600E+02
      2.104  0.0000E+00  0.1600E+02
      2.176  0.0000E+00  0.1600E+02
      2.247  0.0000E+00  0.1600E+02
      2.319  0.0000E+00  0.1600E+02
      2.391  0.0000E+00  0.1600E+02
      2.462  0.0000E+00  0.1600E+02
      2.534  0.0000E+00  0.1600E+02
      2.606  0.0000E+00  0.1600E+02
      2.678  0.0000E+00  0.1600E+02
      2.68246215    -19.00969598  301     -8.94276284      1.00000000
    -19.010  0.0000E+00  0.0000E+00
    -18.937  0.0000E+00  0.0000E+00
    -18.865  0.0000E+00  0.0000E+00
    -18.793  0.0000E+00  0.0000E+00
    -18.720  0.0000E+00  0.0000E+00
    -18.648 -0.4549E-27 -0.3289E-28
    -18.576 -0.1422E-24 -0.1031E-25
    -18.504 -0.3421E-22 -0.2484E-23
    -18.431 -0.6322E-20 -0.4596E-21
    -18.359 -0.8969E-18 -0.6531E-19
    -18.287 -0.9764E-16 -0.7125E-17
    -18.214 -0.8153E-14 -0.5966E-15
    -18.142 -0.5049E-12 -0.3710E-13
    -18.070 -0.2468E-10 -0.1822E-11
    -17.997 -0.9207E-09 -0.6840E-10
    -17.925 -0.2622E-07 -0.1964E-08
    -17.853 -0.5686E-06 -0.4308E-07
    -17.780 -0.9365E-05 -0.7202E-06
    -17.708 -0.1167E-03 -0.9157E-05
    -17.636 -0.1093E-02 -0.8819E-04
    -17.564 -0.7628E-02 -0.6397E-03
    -17.491 -0.3903E-01 -0.3462E-02
    -17.419 -0.1420E+00 -0.1373E-01
    -17.347 -0.3417E+00 -0.3844E-01
    -17.274 -0.4132E+00 -0.6831E-01
    -17.202  0.3728E+00 -0.4135E-01
    -17.130  0.2783E+01  0.1599E+00
    -17.057  0.6207E+01  0.6086E+00
    -16.985  0.8266E+01  0.1206E+01
    -16.913  0.7144E+01  0.1723E+01
    -16.840  0.3857E+01  0.2002E+01
    -16.768  0.9545E+00  0.2071E+01
    -16.696 -0.3019E+00  0.2049E+01
    -16.624 -0.4027E+00  0.2020E+01
    -16.551 -0.1979E+00  0.2006E+01
    -16.479 -0.6135E-01  0.2001E+01
    -16.407 -0.1331E-01  0.2000E+01
    -16.334 -0.2102E-02  0.2000E+01
    -16.262 -0.2463E-03  0.2000E+01
    -16.190 -0.2164E-04  0.2000E+01
    -16.117 -0.1436E-05  0.2000E+01
    -16.045 -0.7226E-07  0.2000E+01
    -15.973 -0.2768E-08  0.2000E+01
    -15.900 -0.8088E-10  0.2000E+01
    -15.828 -0.1806E-11  0.2000E+01
    -15.756 -0.3071E-13  0.2000E+01
    -15.684  0.0000E+00  0.2000E+01
    -15.611  0.0000E+00  0.2000E+01
    -15.539  0.0000E+00  0.2000E+01
    -15.467  0.0000E+00  0.2000E+01
    -15.394  0.0000E+00  0.2000E+01
    -15.322  0.0000E+00  0.2000E+01
    -15.250  0.0000E+00  0.2000E+01
    -15.177  0.0000E+00  0.2000E+01
    -15.105  0.0000E+00  0.2000E+01
    -15.033  0.0000E+00  0.2000E+01
    -14.960  0.0000E+00  0.2000E+01
    -14.888  0.0000E+00  0.2000E+01
    -14.816  0.0000E+00  0.2000E+01
    -14.744  0.0000E+00  0.2000E+01
    -14.671  0.0000E+00  0.2000E+01
    -14.599  0.0000E+00  0.2000E+01
    -14.527  0.0000E+00  0.2000E+01
    -14.454  0.0000E+00  0.2000E+01
    -14.382  0.0000E+00  0.2000E+01
    -14.310  0.0000E+00  0.2000E+01
    -14.237  0.0000E+00  0.2000E+01
    -14.165  0.0000E+00  0.2000E+01
    -14.093  0.0000E+00  0.2000E+01
    -14.020  0.0000E+00  0.2000E+01
    -13.948  0.0000E+00  0.2000E+01
    -13.876  0.0000E+00  0.2000E+01
    -13.804  0.0000E+00  0.2000E+01
    -13.731  0.0000E+00  0.2000E+01
    -13.659  0.0000E+00  0.2000E+01
    -13.587  0.0000E+00  0.2000E+01
    -13.514  0.0000E+00  0.2000E+01
    -13.442  0.0000E+00  0.2000E+01
    -13.370  0.0000E+00  0.2000E+01
    -13.297  0.0000E+00  0.2000E+01
    -13.225  0.0000E+00  0.2000E+01
    -13.153  0.0000E+00  0.2000E+01
    -13.081  0.0000E+00  0.2000E+01
    -13.008  0.0000E+00  0.2000E+01
    -12.936  0.0000E+00  0.2000E+01
    -12.864  0.0000E+00  0.2000E+01
    -12.791  0.0000E+00  0.2000E+01
    -12.719  0.0000E+00  0.2000E+01
    -12.647  0.0000E+00  0.2000E+01
    -12.574  0.0000E+00  0.2000E+01
    -12.502  0.0000E+00  0.2000E+01
    -12.430  0.0000E+00  0.2000E+01
    -12.357  0.0000E+00  0.2000E+01
    -12.285  0.0000E+00  0.2000E+01
    -12.213  0.0000E+00  0.2000E+01
    -12.141  0.0000E+00  0.2000E+01
    -12.068  0.0000E+00  0.2000E+01
    -11.996  0.0000E+00  0.2000E+01
    -11.924  0.0000E+00  0.2000E+01
    -11.851  0.0000E+00  0.2000E+01
    -11.779  0.0000E+00  0.2000E+01
    -11.707  0.0000E+00  0.2000E+01
    -11.634  0.0000E+00  0.2000E+01
    -11.562  0.0000E+00  0.2000E+01
    -11.490  0.0000E+00  0.2000E+01
    -11.417  0.0000E+00  0.2000E+01
    -11.345  0.0000E+00  0.2000E+01
    -11.273  0.0000E+00  0.2000E+01
    -11.201 -0.6673E-26  0.2000E+01
    -11.128 -0.1846E-23  0.2000E+01
    -11.056 -0.3932E-21  0.2000E+01
    -10.984 -0.6432E-19  0.2000E+01
    -10.911 -0.8076E-17  0.2000E+01
    -10.839 -0.7779E-15  0.2000E+01
    -10.767 -0.5592E-13  0.2000E+01
    -10.694 -0.3145E-11  0.2000E+01
    -10.622 -0.1356E-09  0.2000E+01
    -10.550 -0.4468E-08  0.2000E+01
    -10.477 -0.1122E-06  0.2000E+01
    -10.405 -0.2144E-05  0.2000E+01
    -10.333 -0.3107E-04  0.2000E+01
    -10.261 -0.3397E-03  0.2000E+01
    -10.188 -0.2782E-02  0.2000E+01
    -10.116 -0.1687E-01  0.1999E+01
    -10.044 -0.7421E-01  0.1993E+01
     -9.971 -0.2268E+00  0.1977E+01
     -9.899 -0.4291E+00  0.1946E+01
     -9.827 -0.2507E+00  0.1928E+01
     -9.754  0.1142E+01  0.2010E+01
     -9.682  0.4027E+01  0.2301E+01
     -9.610  0.7038E+01  0.2810E+01
     -9.537  0.8305E+01  0.3411E+01
     -9.465  0.7986E+01  0.3988E+01
     -9.393  0.7834E+01  0.4555E+01
     -9.321  0.8332E+01  0.5157E+01
     -9.248  0.8709E+01  0.5787E+01
     -9.176  0.8912E+01  0.6431E+01
     -9.104  0.8907E+01  0.7075E+01
     -9.031  0.7589E+01  0.7624E+01
     -8.959  0.4620E+01  0.7958E+01
     -8.887  0.1549E+01  0.8070E+01
     -8.814 -0.1240E+00  0.8061E+01
     -8.742 -0.4532E+00  0.8028E+01
     -8.670 -0.2694E+00  0.8009E+01
     -8.597 -0.9522E-01  0.8002E+01
     -8.525 -0.2311E-01  0.8000E+01
     -8.453 -0.4047E-02  0.8000E+01
     -8.381 -0.5231E-03  0.8000E+01
     -8.308 -0.5058E-04  0.8000E+01
     -8.236 -0.3686E-05  0.8000E+01
     -8.164 -0.2035E-06  0.8000E+01
     -8.091 -0.8541E-08  0.8000E+01
     -8.019 -0.2733E-09  0.8000E+01
     -7.947 -0.6681E-11  0.8000E+01
     -7.874 -0.1244E-12  0.8000E+01
     -7.802  0.0000E+00  0.8000E+01
     -7.730  0.0000E+00  0.8000E+01
     -7.657  0.0000E+00  0.8000E+01
     -7.585  0.0000E+00  0.8000E+01
     -7.513  0.0000E+00  0.8000E+01
     -7.441  0.0000E+00  0.8000E+01
     -7.368  0.0000E+00  0.8000E+01
     -7.296  0.0000E+00  0.8000E+01
     -7.224  0.0000E+00  0.8000E+01
     -7.151  0.0000E+00  0.8000E+01
     -7.079  0.0000E+00  0.8000E+01
     -7.007  0.0000E+00  0.8000E+01
     -6.934  0.0000E+00  0.8000E+01
     -6.862  0.0000E+00  0.8000E+01
     -6.790  0.0000E+00  0.8000E+01
     -6.717  0.0000E+00  0.8000E+01
     -6.645  0.0000E+00  0.8000E+01
     -6.573  0.0000E+00  0.8000E+01
     -6.501  0.0000E+00  0.8000E+01
     -6.428  0.0000E+00  0.8000E+01
     -6.356  0.0000E+00  0.8000E+01
     -6.284  0.0000E+00  0.8000E+01
     -6.211  0.0000E+00  0.8000E+01
     -6.139  0.0000E+00  0.8000E+01
     -6.067  0.0000E+00  0.8000E+01
     -5.994  0.0000E+00  0.8000E+01
     -5.922  0.0000E+00  0.8000E+01
     -5.850  0.0000E+00  0.8000E+01
     -5.777  0.0000E+00  0.8000E+01
     -5.705  0.0000E+00  0.8000E+01
     -5.633  0.0000E+00  0.8000E+01
     -5.561  0.0000E+00  0.8000E+01
     -5.488  0.0000E+00  0.8000E+01
     -5.416  0.0000E+00  0.8000E+01
     -5.344  0.0000E+00  0.8000E+01
     -5.271  0.0000E+00  0.8000E+01
     -5.199  0.0000E+00  0.8000E+01
     -5.127  0.0000E+00  0.8000E+01
     -5.054  0.0000E+00  0.8000E+01
     -4.982  0.0000E+00  0.8000E+01
     -4.910  0.0000E+00  0.8000E+01
     -4.837  0.0000E+00  0.8000E+01
     -4.765  0.0000E+00  0.8000E+01
     -4.693  0.0000E+00  0.8000E+01
     -4.621  0.0000E+00  0.8000E+01
     -4.548  0.0000E+00  0.8000E+01
     -4.476  0.0000E+00  0.8000E+01
     -4.404  0.0000E+00  0.8000E+01
     -4.331  0.0000E+00  0.8000E+01
     -4.259  0.0000E+00  0.8000E+01
     -4.187  0.0000E+00  0.8000E+01
     -4.114  0.0000E+00  0.8000E+01
     -4.042  0.0000E+00  0.8000E+01
     -3.970  0.0000E+00  0.8000E+01
     -3.897  0.0000E+00  0.8000E+01
     -3.825  0.0000E+00  0.8000E+01
     -3.753  0.0000E+00  0.8000E+01
     -3.681  0.0000E+00  0.8000E+01
     -3.608  0.0000E+00  0.8000E+01
     -3.536  0.0000E+00  0.8000E+01
     -3.464  0.0000E+00  0.8000E+01
     -3.391  0.0000E+00  0.8000E+01
     -3.319  0.0000E+00  0.8000E+01
     -3.247  0.0000E+00  0.8000E+01
     -3.174  0.0000E+00  0.8000E+01