    5    5    1    1
  0.2147064E+03  0.1023121E-08  0.1022242E-08  0.1026892E-08  0.2000000E-14
   50.000000000000000     
  CAR 
 unknown system                          
      8      4      8

  0.2500000E+00  0.2500000E+00  0.2500000E+00  0.2500000E+00
    1      -16.933690   1.000000
    2       -9.566025   1.000013
    3       -9.224144   1.021884
    4       -9.050389   0.978180
    5       -0.307569   0.000000
    6        0.544008   0.000000
    7        0.662141   0.000000
    8        0.691485   0.000000

 -0.2500000E+00  0.2500000E+00  0.2500000E+00  0.2500000E+00
    1      -16.933765   1.000000
    2       -9.565830   1.000013
    3       -9.224062   1.021902
    4       -9.050321   0.978080
    5       -0.300692   0.000000
    6        0.528096   0.000000
    7        0.637958   0.000000
    8        0.677611   0.000000

  0.2500000E+00 -0.2500000E+00  0.2500000E+00  0.2500000E+00
    1      -16.933637   1.000000
    2       -9.566012   1.000013
    3       -9.223998   1.021917
    4       -9.050324   0.978083
    5       -0.305539   0.000000
    6        0.544792   0.000000
    7        0.651340   0.000000
    8        0.683111   0.000000

 -0.2500000E+00 -0.2500000E+00  0.2500000E+00  0.2500000E+00
    1      -16.933764   1.000000
    2       -9.565842   1.000013
    3       -9.223950   1.021928
    4       -9.050251   0.977975
    5       -0.304192   0.000000
    6        0.534163   0.000000
    7        0.657658   0.000000
    8        0.682944   0.000000
