 vasp.5.4.4.18Apr17-6-g9f103f2a35 (build Jul 12 2018 13:43:46) complex           
 executed on             LinuxGNU date 2019.06.22  02:17:32
 running on    1 total cores
 distrk:  each k-point on    1 cores,    1 groups
 distr:  one band on NCORES_PER_BAND=   1 cores,    1 groups


--------------------------------------------------------------------------------------------------------


 INCAR:
 POTCAR:    PAW_PBE H 15Jun2001                   
 POTCAR:    PAW_PBE C 08Apr2002                   
 POTCAR:    PAW_PBE H 15Jun2001                   
   VRHFIN =H: ultrasoft test                                                    
   LEXCH  = PE                                                                  
   EATOM  =    12.4884 eV,    0.9179 Ry                                         
                                                                                
   TITEL  = PAW_PBE H 15Jun2001                                                 
   LULTRA =        F    use ultrasoft PP ?                                      
   IUNSCR =        0    unscreen: 0-lin 1-nonlin 2-no                           
   RPACOR =    0.000    partial core radius                                     
   POMASS =    1.000; ZVAL   =    1.000    mass and valenz                      
   RCORE  =    1.100    outmost cutoff radius                                   
   RWIGS  =    0.700; RWIGS  =    0.370    wigner-seitz radius (au A)           
   ENMAX  =  250.000; ENMIN  =  200.000 eV                                      
   RCLOC  =    0.701    cutoff for local pot                                    
   LCOR   =        T    correct aug charges                                     
   LPAW   =        T    paw PP                                                  
   EAUG   =  400.000                                                            
   RMAX   =    1.123    core radius for proj-oper                               
   RAUG   =    1.200    factor for augmentation sphere                          
   RDEP   =    1.112    radius for radial grids                                 
   RDEPT  =    0.926    core radius for aug-charge                              
                                                                                
   Atomic configuration                                                         
    2 entries                                                                   
     n  l   j            E        occ.                                          
     1  0  0.50        -6.4927   1.0000                                         
     2  1  0.50        -3.4015   0.0000                                         
   Description                                                                  
     l       E           TYP  RCUT    TYP  RCUT                                 
     0     -6.4927494     23  1.100                                             
     0      6.8029130     23  1.100                                             
     1     -4.0817478     23  1.100                                             
  local pseudopotential read in
  atomic valenz-charges read in
  non local Contribution for L=           0  read in
    real space projection operators read in
  non local Contribution for L=           0  read in
    real space projection operators read in
  non local Contribution for L=           1  read in
    real space projection operators read in
    PAW grid and wavefunctions read in

   number of l-projection  operators is LMAX  =           3
   number of lm-projection operators is LMMAX =           5

 POTCAR:    PAW_PBE C 08Apr2002                   
   VRHFIN =C: s2p2                                                              
   LEXCH  = PE                                                                  
   EATOM  =   147.1560 eV,   10.8157 Ry                                         
                                                                                
   TITEL  = PAW_PBE C 08Apr2002                                                 
   LULTRA =        F    use ultrasoft PP ?                                      
   IUNSCR =        1    unscreen: 0-lin 1-nonlin 2-no                           
   RPACOR =    1.200    partial core radius                                     
   POMASS =   12.011; ZVAL   =    4.000    mass and valenz                      
   RCORE  =    1.500    outmost cutoff radius                                   
   RWIGS  =    1.630; RWIGS  =    0.863    wigner-seitz radius (au A)           
   ENMAX  =  400.000; ENMIN  =  300.000 eV                                      
   ICORE  =        2    local potential                                         
   LCOR   =        T    correct aug charges                                     
   LPAW   =        T    paw PP                                                  
   EAUG   =  644.873                                                            
   DEXC   =    0.000                                                            
   RMAX   =    1.529    core radius for proj-oper                               
   RAUG   =    1.300    factor for augmentation sphere                          
   RDEP   =    1.501    radius for radial grids                                 
   RDEPT  =    1.300    core radius for aug-charge                              
                                                                                
   Atomic configuration                                                         
    4 entries                                                                   
     n  l   j            E        occ.                                          
     1  0  0.50      -273.3789   2.0000                                         
     2  0  0.50       -13.7508   2.0000                                         
     2  1  0.50        -5.2854   2.0000                                         
     3  2  1.50        -5.4423   0.0000                                         
   Description                                                                  
     l       E           TYP  RCUT    TYP  RCUT                                 
     0    -13.7508458     23  1.200                                             
     0     -8.2022199     23  1.200                                             
     1     -5.2854383     23  1.500                                             
     1     34.0145650     23  1.500                                             
     2     -5.4423304      7  1.500                                             
  local pseudopotential read in
  partial core-charges read in
  partial kinetic energy density read in
  atomic valenz-charges read in
  non local Contribution for L=           0  read in
    real space projection operators read in
  non local Contribution for L=           0  read in
    real space projection operators read in
  non local Contribution for L=           1  read in
    real space projection operators read in
  non local Contribution for L=           1  read in
    real space projection operators read in
    PAW grid and wavefunctions read in

   number of l-projection  operators is LMAX  =           4
   number of lm-projection operators is LMMAX =           8


 ----------------------------------------------------------------------------- 
|                                                                             |
|  ADVICE TO THIS USER RUNNING 'VASP/VAMP'   (HEAR YOUR MASTER'S VOICE ...):  |
|                                                                             |
|      You have a (more or less) 'small supercell' and for smaller cells      |
|      it is recommended  to use the reciprocal-space projection scheme!      |
|      The real space optimization is not  efficient for small cells and it   |
|      is also less accurate ...                                              |
|      Therefore set LREAL=.FALSE. in the  INCAR file                         |
|                                                                             |
 ----------------------------------------------------------------------------- 


 ----------------------------------------------------------------------------- 
|                                                                             |
|           W    W    AA    RRRRR   N    N  II  N    N   GGGG   !!!           |
|           W    W   A  A   R    R  NN   N  II  NN   N  G    G  !!!           |
|           W    W  A    A  R    R  N N  N  II  N N  N  G       !!!           |
|           W WW W  AAAAAA  RRRRR   N  N N  II  N  N N  G  GGG   !            |
|           WW  WW  A    A  R   R   N   NN  II  N   NN  G    G                |
|           W    W  A    A  R    R  N    N  II  N    N   GGGG   !!!           |
|                                                                             |
|     The real-space-projection scheme for the treatment of the nonlocal      |
|     pseudopotentials has been switched on -- but on file POTCAR I have      |
|     not found any entries signalling me that you have ever performed a      |
|     real-space optimization of all nonlocal projectors! BE WARNED that      |
|     a calculation using the real-space-projection scheme together with      |
|     nonlocal projectors which were not real-space-optimized (according      |
|     to the plane-wave-cutoff used in this calculation) might give more      |
|     or less inaccurate results                                              |
|     I hope you know what you are doing                                      |
|                                                                             |
 ----------------------------------------------------------------------------- 

  PAW_PBE H 15Jun2001                   :
 energy of atom  1       EATOM=  -12.4884
 kinetic energy error for atom=    0.0098 (will be added to EATOM!!)
  PAW_PBE C 08Apr2002                   :
 energy of atom  2       EATOM= -147.1560
 kinetic energy error for atom=    0.0288 (will be added to EATOM!!)


 POSCAR:  H  C                                   
  positions in cartesian coordinates
  No initial velocities read in
 exchange correlation table for  LEXCH =        8
   RHO(1)=    0.500       N(1)  =     2000
   RHO(2)=  100.500       N(2)  =     4000



--------------------------------------------------------------------------------------------------------


 ion  position               nearest neighbor table
   1  0.538  0.407  0.360-   5 1.11
   2  0.395  0.480  0.438-   5 1.11
   3  0.552  0.566  0.443-   5 1.14
   4  0.528  0.416  0.539-   5 1.13
   5  0.503  0.467  0.445-   1 1.11   2 1.11   4 1.13   3 1.14


IMPORTANT INFORMATION: All symmetrisations will be switched off!
NOSYMM: (Re-)initialisation of all symmetry stuff for point group C_1.




Automatic generation of k-mesh.
 generate k-points for:    2    2    2
Space group operators:
 irot       det(A)        alpha          n_x          n_y          n_z        tau_x        tau_y        tau_z
    1     1.000000     0.000000     1.000000     0.000000     0.000000     0.000000     0.000000     0.000000
 
 Subroutine IBZKPT returns following result:
 ===========================================
 
 Found      4 irreducible k-points:
 
 Following reciprocal coordinates:
            Coordinates               Weight
  0.250000  0.250000  0.250000      2.000000
 -0.250000  0.250000  0.250000      2.000000
  0.250000 -0.250000  0.250000      2.000000
 -0.250000 -0.250000  0.250000      2.000000
 
 Following cartesian coordinates:
            Coordinates               Weight
  0.024435  0.023977  0.023889      2.000000
 -0.024435  0.024945  0.024958      2.000000
  0.024435 -0.024945  0.023745      2.000000
 -0.024435 -0.023977  0.024814      2.000000
 


--------------------------------------------------------------------------------------------------------




 Dimension of arrays:
   k-points           NKPTS =      4   k-points in BZ     NKDIM =      4   number of bands    NBANDS=      8
   number of dos      NEDOS =    301   number of ions     NIONS =      5
   non local maximal  LDIM  =      4   non local SUM 2l+1 LMDIM =      8
   total plane-waves  NPLWV = 343000
   max r-space proj   IRMAX =    758   max aug-charges    IRDMAX=   3969
   dimension x,y,z NGX =    70 NGY =   70 NGZ =   70
   dimension x,y,z NGXF=   140 NGYF=  140 NGZF=  140
   support grid    NGXF=   140 NGYF=  140 NGZF=  140
   ions per type =               4   1
   NGX,Y,Z   is equivalent  to a cutoff of  11.37, 11.38, 11.33 a.u.
   NGXF,Y,Z  is equivalent  to a cutoff of  22.75, 22.77, 22.66 a.u.

 SYSTEM =  unknown system                          
 POSCAR =   H  C                                   

 Startparameter for this run:
   NWRITE =      2    write-flag & timer
   PREC   = a         normal or accurate (medium, high low for compatibility)
   ISTART =      0    job   : 0-new  1-cont  2-samecut
   ICHARG =      2    charge: 1-file 2-atom 10-const
   ISPIN  =      1    spin polarized calculation?
   LNONCOLLINEAR =      F non collinear calculations
   LSORBIT =      F    spin-orbit coupling
   INIWAV =      1    electr: 0-lowe 1-rand  2-diag
   LASPH  =      F    aspherical Exc in radial PAW
   METAGGA=      F    non-selfconsistent MetaGGA calc.

 Electronic Relaxation 1
   ENCUT  =  400.0 eV  29.40 Ry    5.42 a.u.  16.68 16.67 16.75*2*pi/ulx,y,z
   ENINI  =  400.0     initial cutoff
   ENAUG  =  644.9 eV  augmentation charge cutoff
   NELM   =     60;   NELMIN=  2; NELMDL= -5     # of ELM steps 
   EDIFF  = 0.1E-05   stopping-criterion for ELM
   LREAL  =      T    real-space projection
   NLSPLINE    = F    spline interpolate recip. space projectors
   LCOMPAT=      F    compatible to vasp.4.4
   GGA_COMPAT  = T    GGA compatible to vasp.4.4-vasp.4.6
   LMAXPAW     = -100 max onsite density
   LMAXMIX     =    2 max onsite mixed and CHGCAR
   VOSKOWN=      0    Vosko Wilk Nusair interpolation
   ROPT   =    0.00000   0.00000
 Ionic relaxation
   EDIFFG = 0.1E-04   stopping-criterion for IOM
   NSW    =     10    number of steps for IOM
   NBLOCK =      1;   KBLOCK =      1    inner block; outer block 
   IBRION =      0    ionic relax: 0-MD 1-quasi-New 2-CG
   NFREE  =      0    steps in history (QN), initial steepest desc. (CG)
   ISIF   =      2    stress and relaxation
   IWAVPR =     12    prediction:  0-non 1-charg 2-wave 3-comb
   ISYM   =      0    0-nonsym 1-usesym 2-fastsym
   LCORR  =      T    Harris-Foulkes like correction to forces

   POTIM  = 2.0000    time-step for ionic-motion
   TEIN   =   50.0    initial temperature
   TEBEG  =   50.0;   TEEND  =  50.0 temperature during run
   SMASS  =   0.00    Nose mass-parameter (am)
   estimated Nose-frequenzy (Omega)   =  0.79E+14 period in steps = 40.00 mass=   0.123E-29a.u.
   SCALEE = 1.0000    scale energy and forces
   NPACO  =    256;   APACO  = 16.0  distance and # of slots for P.C.
   PSTRESS=    0.0 pullay stress

  Mass of Ions in am
   POMASS =   1.00 12.01
  Ionic Valenz
   ZVAL   =   1.00  4.00
  Atomic Wigner-Seitz radii
   RWIGS  =  -1.00 -1.00
  virtual crystal weights 
   VCA    =   1.00  1.00
   NELECT =       8.0000    total number of electrons
   NUPDOWN=      -1.0000    fix difference up-down

 DOS related values:
   EMIN   =  10.00;   EMAX   =-10.00  energy-range for DOS
   EFERMI =   0.00
   ISMEAR =     1;   SIGMA  =   0.20  broadening in eV -4-tet -1-fermi 0-gaus

 Electronic relaxation 2 (details)
   IALGO  =     68    algorithm
   LDIAG  =      T    sub-space diagonalisation (order eigenvalues)
   LSUBROT=      F    optimize rotation matrix (better conditioning)
   TURBO    =      0    0=normal 1=particle mesh
   IRESTART =      0    0=no restart 2=restart with 2 vectors
   NREBOOT  =      0    no. of reboots
   NMIN     =      0    reboot dimension
   EREF     =   0.00    reference energy to select bands
   IMIX   =      4    mixing-type and parameters
     AMIX     =   0.40;   BMIX     =  1.00
     AMIX_MAG =   1.60;   BMIX_MAG =  1.00
     AMIN     =   0.10
     WC   =   100.;   INIMIX=   1;  MIXPRE=   1;  MAXMIX=  50

 Intra band minimization:
   WEIMIN = 0.0010     energy-eigenvalue tresh-hold
   EBREAK =  0.31E-07  absolut break condition
   DEPER  =   0.30     relativ break condition  

   TIME   =   0.40     timestep for ELM

  volume/ion in A,a.u.               =     214.71      1448.91
  Fermi-wavevector in a.u.,A,eV,Ry     =   0.319767  0.604271  1.391205  0.102251
  Thomas-Fermi vector in A             =   1.205787

 Write flags
   LWAVE        =      F    write WAVECAR
   LDOWNSAMPLE  =      F    k-point downsampling of WAVECAR
   LCHARG       =      F    write CHGCAR
   LVTOT        =      F    write LOCPOT, total local potential
   LVHAR        =      F    write LOCPOT, Hartree potential only
   LELF         =      F    write electronic localiz. function (ELF)
   LORBIT       =      0    0 simple, 1 ext, 2 COOP (PROOUT), +10 PAW based schemes


 Dipole corrections
   LMONO  =      F    monopole corrections only (constant potential shift)
   LDIPOL =      F    correct potential (dipole corrections)
   IDIPOL =      0    1-x, 2-y, 3-z, 4-all directions 
   EPSILON=  1.0000000 bulk dielectric constant

 Exchange correlation treatment:
   GGA     =    --    GGA type
   LEXCH   =     8    internal setting for exchange type
   VOSKOWN=      0    Vosko Wilk Nusair interpolation
   LHFCALC =     F    Hartree Fock is set to
   LHFONE  =     F    Hartree Fock one center treatment
   AEXX    =    0.0000 exact exchange contribution

 Linear response parameters
   LEPSILON=     F    determine dielectric tensor
   LRPA    =     F    only Hartree local field effects (RPA)
   LNABLA  =     F    use nabla operator in PAW spheres
   LVEL    =     F    velocity operator in full k-point grid
   LINTERFAST=   F  fast interpolation
   KINTER  =     0    interpolate to denser k-point grid
   CSHIFT  =0.1000    complex shift for real part using Kramers Kronig
   OMEGAMAX=  -1.0    maximum frequency
   DEG_THRESHOLD= 0.2000000E-02 threshold for treating states as degnerate
   RTIME   =   -0.100 relaxation time in fs
  (WPLASMAI=    0.000 imaginary part of plasma frequency in eV, 0.658/RTIME)
   DFIELD  = 0.0000000 0.0000000 0.0000000 field for delta impulse in time

 Orbital magnetization related:
   ORBITALMAG=     F  switch on orbital magnetization
   LCHIMAG   =     F  perturbation theory with respect to B field
   DQ        =  0.001000  dq finite difference perturbation B field
   LLRAUG    =     F  two centre corrections for induced B field



--------------------------------------------------------------------------------------------------------


 molecular dynamics for ions
   using nose mass (canonical ensemble)
 charge density and potential will be updated during run
 non-spin polarized calculation
 RMM-DIIS sequential band-by-band and
  variant of blocked Davidson during initial phase
 perform sub-space diagonalisation
    before iterative eigenvector-optimisation
 modified Broyden-mixing scheme, WC =      100.0
 initial mixing is a Kerker type mixing with AMIX =  0.4000 and BMIX =      1.0000
 Hartree-type preconditioning will be used
 using additional bands            4
 real space projection scheme for non local part
 use partial core corrections
 calculate Harris-corrections to forces   (improved forces if not selfconsistent)
 use gradient corrections 
 use of overlap-Matrix (Vanderbilt PP)
 Methfessel and Paxton  Order N= 1 SIGMA  =   0.20


--------------------------------------------------------------------------------------------------------


  energy-cutoff  :      400.00
  volume of cell :     1073.53
      direct lattice vectors                 reciprocal lattice vectors
    10.231211195  0.000000000  0.000000000     0.097740139 -0.001935643 -0.002137528
     0.202404819 10.220412838  0.000000000    -0.000000000  0.097843406  0.000287772
     0.223923730 -0.030195082 10.266432944     0.000000000  0.000000000  0.097404815

  length of vectors
    10.231211195 10.222416852 10.268919075     0.097782669  0.097843829  0.097404815



 k-points in units of 2pi/SCALE and weight: read from INCAR                         
   0.02443503  0.02397694  0.02388876       0.250
  -0.02443503  0.02494476  0.02495753       0.250
   0.02443503 -0.02494476  0.02374488       0.250
  -0.02443503 -0.02397694  0.02481364       0.250

 k-points in reciprocal lattice and weights: read from INCAR                         
   0.25000000  0.25000000  0.25000000       0.250
  -0.25000000  0.25000000  0.25000000       0.250
   0.25000000 -0.25000000  0.25000000       0.250
  -0.25000000 -0.25000000  0.25000000       0.250

 position of ions in fractional coordinates (direct lattice) 
   0.53818446  0.40657853  0.36041583
   0.39466175  0.48020513  0.43835736
   0.55224052  0.56558895  0.44269338
   0.52816679  0.41609558  0.53884524
   0.50272056  0.46665440  0.44484553

 position of ions in cartesian coordinates  (Angst):
   5.66927795  4.14451764  3.70018497
   4.23322215  4.89465839  4.50036644
   5.86369689  5.76718543  4.54488193
   5.60866598  4.23639810  5.53201855
   5.33750476  4.75596851  4.56697679



--------------------------------------------------------------------------------------------------------


 k-point  1 :   0.2500 0.2500 0.2500  plane waves:   19510
 k-point  2 :  -0.2500 0.2500 0.2500  plane waves:   19501
 k-point  3 :   0.2500-0.2500 0.2500  plane waves:   19502
 k-point  4 :  -0.2500-0.2500 0.2500  plane waves:   19485

 maximum and minimum number of plane-waves per node :     19510    19485

 maximum number of plane-waves:     19510
 maximum index in each direction: 
   IXMAX=   16   IYMAX=   16   IZMAX=   16
   IXMIN=  -16   IYMIN=  -16   IZMIN=  -16


 serial   3D FFT for wavefunctions
 parallel 3D FFT for charge:
    minimum data exchange during FFTs selected (reduces bandwidth)


 total amount of memory used by VASP MPI-rank0   303904. kBytes
=======================================================================

   base      :      30000. kBytes
   nonlr-proj:        156. kBytes
   fftplans  :      94700. kBytes
   grid      :     169030. kBytes
   one-center:         15. kBytes
   wavefun   :      10003. kBytes

     INWAV:  cpu time    0.0000: real time    0.0000
 Broyden mixing: mesh for mixing (old mesh)
   NGX = 33   NGY = 33   NGZ = 33
  (NGX  =140   NGY  =140   NGZ  =140)
  gives a total of  35937 points

 initial charge density was supplied:
 charge density of overlapping atoms calculated
 number of electron       8.0000000 magnetization 
 keeping initial charge density in first step


--------------------------------------------------------------------------------------------------------


 Maximum index for non-local projection operator          692
 Maximum index for augmentation-charges         3650 (set IRDMAX)


--------------------------------------------------------------------------------------------------------


 First call to EWALD:  gamma=   0.173
 Maximum number of real-space cells 3x 3x 3
 Maximum number of reciprocal cells 3x 3x 3

    FEWALD:  cpu time    0.0007: real time    0.0007


--------------------------------------- Iteration      1(   1)  ---------------------------------------


    POTLOK:  cpu time    1.7585: real time    1.7629
    SETDIJ:  cpu time    0.0066: real time    0.0066
     EDDAV:  cpu time    2.9490: real time    2.9559
       DOS:  cpu time    0.0003: real time    0.0003
    --------------------------------------------
      LOOP:  cpu time    4.7143: real time    4.7257

 eigenvalue-minimisations  :    96
 total energy-change (2. order) : 0.1523986E+02  (-0.1950394E+03)
 number of electron       8.0000000 magnetization 
 augmentation part        8.0000000 magnetization 

 Free energy of the ion-electron system (eV)
  ---------------------------------------------------
  alpha Z        PSCENC =         0.22565769
  Ewald energy   TEWEN  =       125.54673118
  -Hartree energ DENC   =      -243.61661353
  -exchange      EXHF   =         0.00000000
  -V(xc)+E(xc)   XCENC  =        21.86115221
  PAW double counting   =       117.05815612     -117.66307307
  entropy T*S    EENTRO =         0.00289895
  eigenvalues    EBANDS =       -85.21680496
  atomic energy  EATOM  =       197.04175453
  Solvation  Ediel_sol  =         0.00000000
  ---------------------------------------------------
  free energy    TOTEN  =        15.23985914 eV

  energy without entropy =       15.23696018  energy(sigma->0) =       15.23889282


--------------------------------------------------------------------------------------------------------




--------------------------------------- Iteration      1(   2)  ---------------------------------------


     EDDAV:  cpu time    2.2296: real time    2.2350
       DOS:  cpu time    0.0002: real time    0.0002
    --------------------------------------------
      LOOP:  cpu time    2.2298: real time    2.2352

 eigenvalue-minimisations  :    64
 total energy-change (2. order) :-0.3758679E+02  (-0.3758703E+02)
 number of electron       8.0000000 magnetization 
 augmentation part        8.0000000 magnetization 

 Free energy of the ion-electron system (eV)
  ---------------------------------------------------
  alpha Z        PSCENC =         0.22565769
  Ewald energy   TEWEN  =       125.54673118
  -Hartree energ DENC   =      -243.61661353
  -exchange      EXHF   =         0.00000000
  -V(xc)+E(xc)   XCENC  =        21.86115221
  PAW double counting   =       117.05815612     -117.66307307
  entropy T*S    EENTRO =         0.00422876
  eigenvalues    EBANDS =      -122.80492914
  atomic energy  EATOM  =       197.04175453
  Solvation  Ediel_sol  =         0.00000000
  ---------------------------------------------------
  free energy    TOTEN  =       -22.34693523 eV

  energy without entropy =      -22.35116400  energy(sigma->0) =      -22.34834482


--------------------------------------------------------------------------------------------------------




--------------------------------------- Iteration      1(   3)  ---------------------------------------


     EDDAV:  cpu time    2.1997: real time    2.2050
       DOS:  cpu time    0.0002: real time    0.0002
    --------------------------------------------
      LOOP:  cpu time    2.2000: real time    2.2052

 eigenvalue-minimisations  :    64
 total energy-change (2. order) :-0.4599409E+01  (-0.4609127E+01)
 number of electron       8.0000000 magnetization 
 augmentation part        8.0000000 magnetization 

 Free energy of the ion-electron system (eV)
  ---------------------------------------------------
  alpha Z        PSCENC =         0.22565769
  Ewald energy   TEWEN  =       125.54673118
  -Hartree energ DENC   =      -243.61661353
  -exchange      EXHF   =         0.00000000
  -V(xc)+E(xc)   XCENC  =        21.86115221
  PAW double counting   =       117.05815612     -117.66307307
  entropy T*S    EENTRO =         0.02548685
  eigenvalues    EBANDS =      -127.42559599
  atomic energy  EATOM  =       197.04175453
  Solvation  Ediel_sol  =         0.00000000
  ---------------------------------------------------
  free energy    TOTEN  =       -26.94634399 eV

  energy without entropy =      -26.97183084  energy(sigma->0) =      -26.95483961


--------------------------------------------------------------------------------------------------------




--------------------------------------- Iteration      1(   4)  ---------------------------------------


     EDDAV:  cpu time    3.9695: real time    3.9789
       DOS:  cpu time    0.0002: real time    0.0002
    --------------------------------------------
      LOOP:  cpu time    3.9697: real time    3.9791

 eigenvalue-minimisations  :   128
 total energy-change (2. order) :-0.2020242E+00  (-0.2018278E+00)
 number of electron       8.0000000 magnetization 
 augmentation part        8.0000000 magnetization 

 Free energy of the ion-electron system (eV)
  ---------------------------------------------------
  alpha Z        PSCENC =         0.22565769
  Ewald energy   TEWEN  =       125.54673118
  -Hartree energ DENC   =      -243.61661353
  -exchange      EXHF   =         0.00000000
  -V(xc)+E(xc)   XCENC  =        21.86115221
  PAW double counting   =       117.05815612     -117.66307307
  entropy T*S    EENTRO =         0.02519146
  eigenvalues    EBANDS =      -127.62732477
  atomic energy  EATOM  =       197.04175453
  Solvation  Ediel_sol  =         0.00000000
  ---------------------------------------------------
  free energy    TOTEN  =       -27.14836817 eV

  energy without entropy =      -27.17355962  energy(sigma->0) =      -27.15676532


--------------------------------------------------------------------------------------------------------




--------------------------------------- Iteration      1(   5)  ---------------------------------------


     EDDAV:  cpu time    3.0743: real time    3.0816
       DOS:  cpu time    0.0002: real time    0.0002
    CHARGE:  cpu time    0.2185: real time    0.2190
    MIXING:  cpu time    0.0426: real time    0.0427
    --------------------------------------------
      LOOP:  cpu time    3.3356: real time    3.3435

 eigenvalue-minimisations  :    96
 total energy-change (2. order) :-0.7231112E-04  (-0.7230931E-04)
 number of electron       8.0000001 magnetization 
 augmentation part        0.2155623 magnetization 

 Broyden mixing:
  rms(total) = 0.82637E+00    rms(broyden)= 0.82615E+00
  rms(prec ) = 0.11687E+01
  weight for this iteration     100.00

 Free energy of the ion-electron system (eV)
  ---------------------------------------------------
  alpha Z        PSCENC =         0.22565769
  Ewald energy   TEWEN  =       125.54673118
  -Hartree energ DENC   =      -243.61661353
  -exchange      EXHF   =         0.00000000
  -V(xc)+E(xc)   XCENC  =        21.86115221
  PAW double counting   =       117.05815612     -117.66307307
  entropy T*S    EENTRO =         0.02519137
  eigenvalues    EBANDS =      -127.62739699
  atomic energy  EATOM  =       197.04175453
  Solvation  Ediel_sol  =         0.00000000
  ---------------------------------------------------
  free energy    TOTEN  =       -27.14844048 eV

  energy without entropy =      -27.17363185  energy(sigma->0) =      -27.15683760


--------------------------------------------------------------------------------------------------------




--------------------------------------- Iteration      1(   6)  ---------------------------------------


    POTLOK:  cpu time    1.8936: real time    1.8981
    SETDIJ:  cpu time    0.0066: real time    0.0066
    EDDIAG:  cpu time    0.4900: real time    0.4912
  RMM-DIIS:  cpu time    1.5558: real time    1.5595
    ORTHCH:  cpu time    0.0120: real time    0.0121
       DOS:  cpu time    0.0002: real time    0.0002
    CHARGE:  cpu time    0.1949: real time    0.1953
    MIXING:  cpu time    0.0429: real time    0.0430
    --------------------------------------------
      LOOP:  cpu time    4.1959: real time    4.2059

 eigenvalue-minimisations  :    64
 total energy-change (2. order) : 0.2605426E+01  (-0.4680296E+00)
 number of electron       8.0000001 magnetization 
 augmentation part        0.1900000 magnetization 

 Broyden mixing:
  rms(total) = 0.41306E+00    rms(broyden)= 0.41295E+00
  rms(prec ) = 0.53238E+00
  weight for this iteration     100.00

 eigenvalues of (default mixing * dielectric matrix)
  average eigenvalue GAMMA=   1.2845
  1.2845

 Free energy of the ion-electron system (eV)
  ---------------------------------------------------
  alpha Z        PSCENC =         0.22565769
  Ewald energy   TEWEN  =       125.54673118
  -Hartree energ DENC   =      -262.31081206
  -exchange      EXHF   =         0.00000000
  -V(xc)+E(xc)   XCENC  =        22.99665405
  PAW double counting   =       229.88272939     -230.64866427
  entropy T*S    EENTRO =         0.03738616
  eigenvalues    EBANDS =      -107.31445066
  atomic energy  EATOM  =       197.04175453
  Solvation  Ediel_sol  =         0.00000000
  ---------------------------------------------------
  free energy    TOTEN  =       -24.54301399 eV

  energy without entropy =      -24.58040014  energy(sigma->0) =      -24.55547604


--------------------------------------------------------------------------------------------------------




--------------------------------------- Iteration      1(   7)  ---------------------------------------


    POTLOK:  cpu time    1.9172: real time    1.9217
    SETDIJ:  cpu time    0.0066: real time    0.0066
    EDDIAG:  cpu time    0.4838: real time    0.4850
  RMM-DIIS:  cpu time    1.5584: real time    1.5621
    ORTHCH:  cpu time    0.0128: real time    0.0128
       DOS:  cpu time    0.0002: real time    0.0002
    CHARGE:  cpu time    0.2049: real time    0.2054
    MIXING:  cpu time    0.0433: real time    0.0434
    --------------------------------------------
      LOOP:  cpu time    4.2271: real time    4.2372

 eigenvalue-minimisations  :    64
 total energy-change (2. order) : 0.4343377E+00  (-0.9652664E-01)
 number of electron       8.0000001 magnetization 
 augmentation part        0.1804278 magnetization 

 Broyden mixing:
  rms(total) = 0.23363E+00    rms(broyden)= 0.23354E+00
  rms(prec ) = 0.28644E+00
  weight for this iteration     100.00

 eigenvalues of (default mixing * dielectric matrix)
  average eigenvalue GAMMA=   1.4929
  1.4929  1.4929

 Free energy of the ion-electron system (eV)
  ---------------------------------------------------
  alpha Z        PSCENC =         0.22565769
  Ewald energy   TEWEN  =       125.54673118
  -Hartree energ DENC   =      -272.98449692
  -exchange      EXHF   =         0.00000000
  -V(xc)+E(xc)   XCENC  =        23.78982481
  PAW double counting   =       341.98203738     -342.77967037
  entropy T*S    EENTRO =         0.03844974
  eigenvalues    EBANDS =       -96.96896433
  atomic energy  EATOM  =       197.04175453
  Solvation  Ediel_sol  =         0.00000000
  ---------------------------------------------------
  free energy    TOTEN  =       -24.10867628 eV

  energy without entropy =      -24.14712602  energy(sigma->0) =      -24.12149286


--------------------------------------------------------------------------------------------------------




--------------------------------------- Iteration      1(   8)  ---------------------------------------


    POTLOK:  cpu time    1.9119: real time    1.9165
    SETDIJ:  cpu time    0.0065: real time    0.0065
    EDDIAG:  cpu time    0.4678: real time    0.4689
  RMM-DIIS:  cpu time    1.5972: real time    1.6010
    ORTHCH:  cpu time    0.0125: real time    0.0125
       DOS:  cpu time    0.0002: real time    0.0002
    CHARGE:  cpu time    0.2047: real time    0.2052
    MIXING:  cpu time    0.0451: real time    0.0452
    --------------------------------------------
      LOOP:  cpu time    4.2459: real time    4.2559

 eigenvalue-minimisations  :    64
 total energy-change (2. order) : 0.1045576E+00  (-0.1121760E-01)
 number of electron       8.0000001 magnetization 
 augmentation part        0.1796116 magnetization 

 Broyden mixing:
  rms(total) = 0.90953E-01    rms(broyden)= 0.90922E-01
  rms(prec ) = 0.12267E+00
  weight for this iteration     100.00

 eigenvalues of (default mixing * dielectric matrix)
  average eigenvalue GAMMA=   1.4571
  2.2497  1.4216  0.7000

 Free energy of the ion-electron system (eV)
  ---------------------------------------------------
  alpha Z        PSCENC =         0.22565769
  Ewald energy   TEWEN  =       125.54673118
  -Hartree energ DENC   =      -276.32500015
  -exchange      EXHF   =         0.00000000
  -V(xc)+E(xc)   XCENC  =        24.12066829
  PAW double counting   =       403.08357557     -403.86062229
  entropy T*S    EENTRO =         0.02374193
  eigenvalues    EBANDS =       -93.86062541
  atomic energy  EATOM  =       197.04175453
  Solvation  Ediel_sol  =         0.00000000
  ---------------------------------------------------
  free energy    TOTEN  =       -24.00411865 eV

  energy without entropy =      -24.02786058  energy(sigma->0) =      -24.01203263


--------------------------------------------------------------------------------------------------------




--------------------------------------- Iteration      1(   9)  ---------------------------------------


    POTLOK:  cpu time    1.8908: real time    1.8954
    SETDIJ:  cpu time    0.0066: real time    0.0066
    EDDIAG:  cpu time    0.4754: real time    0.4766
  RMM-DIIS:  cpu time    1.6408: real time    1.6447
    ORTHCH:  cpu time    0.0127: real time    0.0127
       DOS:  cpu time    0.0002: real time    0.0002
    CHARGE:  cpu time    0.2078: real time    0.2083
    MIXING:  cpu time    0.0459: real time    0.0460
    --------------------------------------------
      LOOP:  cpu time    4.2803: real time    4.2906

 eigenvalue-minimisations  :    64
 total energy-change (2. order) : 0.3189852E-01  (-0.4524595E-02)
 number of electron       8.0000001 magnetization 
 augmentation part        0.1789822 magnetization 

 Broyden mixing:
  rms(total) = 0.49257E-01    rms(broyden)= 0.49247E-01
  rms(prec ) = 0.73699E-01
  weight for this iteration     100.00

 eigenvalues of (default mixing * dielectric matrix)
  average eigenvalue GAMMA=   1.3542
  2.1353  0.9972  0.9972  1.2872

 Free energy of the ion-electron system (eV)
  ---------------------------------------------------
  alpha Z        PSCENC =         0.22565769
  Ewald energy   TEWEN  =       125.54673118
  -Hartree energ DENC   =      -278.96816852
  -exchange      EXHF   =         0.00000000
  -V(xc)+E(xc)   XCENC  =        24.35621486
  PAW double counting   =       442.56379216     -443.33091139
  entropy T*S    EENTRO =         0.02592274
  eigenvalues    EBANDS =       -91.43321340
  atomic energy  EATOM  =       197.04175453
  Solvation  Ediel_sol  =         0.00000000
  ---------------------------------------------------
  free energy    TOTEN  =       -23.97222012 eV

  energy without entropy =      -23.99814287  energy(sigma->0) =      -23.98086104


--------------------------------------------------------------------------------------------------------




--------------------------------------- Iteration      1(  10)  ---------------------------------------


    POTLOK:  cpu time    1.8690: real time    1.8734
    SETDIJ:  cpu time    0.0065: real time    0.0065
    EDDIAG:  cpu time    0.4802: real time    0.4813
  RMM-DIIS:  cpu time    1.6571: real time    1.6611
    ORTHCH:  cpu time    0.0127: real time    0.0128
       DOS:  cpu time    0.0002: real time    0.0002
    CHARGE:  cpu time    0.1922: real time    0.1926
    MIXING:  cpu time    0.0461: real time    0.0462
    --------------------------------------------
      LOOP:  cpu time    4.2640: real time    4.2741

 eigenvalue-minimisations  :    64
 total energy-change (2. order) : 0.1530735E-01  (-0.2077368E-02)
 number of electron       8.0000001 magnetization 
 augmentation part        0.1783203 magnetization 

 Broyden mixing:
  rms(total) = 0.43934E-01    rms(broyden)= 0.43896E-01
  rms(prec ) = 0.63934E-01
  weight for this iteration     100.00

 eigenvalues of (default mixing * dielectric matrix)
  average eigenvalue GAMMA=   1.3257
  2.1356  1.4991  1.1641  1.1641  0.6656

 Free energy of the ion-electron system (eV)
  ---------------------------------------------------
  alpha Z        PSCENC =         0.22565769
  Ewald energy   TEWEN  =       125.54673118
  -Hartree energ DENC   =      -280.05513993
  -exchange      EXHF   =         0.00000000
  -V(xc)+E(xc)   XCENC  =        24.39766101
  PAW double counting   =       437.81357980     -438.58578223
  entropy T*S    EENTRO =         0.03888764
  eigenvalues    EBANDS =       -90.38026248
  atomic energy  EATOM  =       197.04175453
  Solvation  Ediel_sol  =         0.00000000
  ---------------------------------------------------
  free energy    TOTEN  =       -23.95691277 eV

  energy without entropy =      -23.99580041  energy(sigma->0) =      -23.96987532


--------------------------------------------------------------------------------------------------------




--------------------------------------- Iteration      1(  11)  ---------------------------------------


    POTLOK:  cpu time    1.8813: real time    1.8858
    SETDIJ:  cpu time    0.0065: real time    0.0065
    EDDIAG:  cpu time    0.4958: real time    0.4970
  RMM-DIIS:  cpu time    1.6310: real time    1.6349
    ORTHCH:  cpu time    0.0124: real time    0.0124
       DOS:  cpu time    0.0002: real time    0.0002
    CHARGE:  cpu time    0.2005: real time    0.2010
    MIXING:  cpu time    0.0475: real time    0.0476
    --------------------------------------------
      LOOP:  cpu time    4.2752: real time    4.2853

 eigenvalue-minimisations  :    64
 total energy-change (2. order) : 0.2933067E-03  (-0.9335798E-03)
 number of electron       8.0000001 magnetization 
 augmentation part        0.1783132 magnetization 

 Broyden mixing:
  rms(total) = 0.46834E-01    rms(broyden)= 0.46736E-01
  rms(prec ) = 0.65592E-01
  weight for this iteration     100.00

 eigenvalues of (default mixing * dielectric matrix)
  average eigenvalue GAMMA=   1.5543
  2.5838  2.3322  1.3481  1.3481  1.1257  0.5881

 Free energy of the ion-electron system (eV)
  ---------------------------------------------------
  alpha Z        PSCENC =         0.22565769
  Ewald energy   TEWEN  =       125.54673118
  -Hartree energ DENC   =      -280.30472805
  -exchange      EXHF   =         0.00000000
  -V(xc)+E(xc)   XCENC  =        24.40637372
  PAW double counting   =       436.04379280     -436.81212676
  entropy T*S    EENTRO =         0.03734557
  eigenvalues    EBANDS =       -90.14142016
  atomic energy  EATOM  =       197.04175453
  Solvation  Ediel_sol  =         0.00000000
  ---------------------------------------------------
  free energy    TOTEN  =       -23.95661947 eV

  energy without entropy =      -23.99396503  energy(sigma->0) =      -23.96906799


--------------------------------------------------------------------------------------------------------




--------------------------------------- Iteration      1(  12)  ---------------------------------------


    POTLOK:  cpu time    1.7863: real time    1.7906
    SETDIJ:  cpu time    0.0065: real time    0.0065
    EDDIAG:  cpu time    0.4844: real time    0.4855
  RMM-DIIS:  cpu time    1.6505: real time    1.6544
    ORTHCH:  cpu time    0.0122: real time    0.0122
       DOS:  cpu time    0.0002: real time    0.0002
    CHARGE:  cpu time    0.1998: real time    0.2003
    MIXING:  cpu time    0.0472: real time    0.0473
    --------------------------------------------
      LOOP:  cpu time    4.1872: real time    4.1972

 eigenvalue-minimisations  :    64
 total energy-change (2. order) : 0.6350692E-02  (-0.3829977E-03)
 number of electron       8.0000001 magnetization 
 augmentation part        0.1782499 magnetization 

 Broyden mixing:
  rms(total) = 0.17105E-01    rms(broyden)= 0.17091E-01
  rms(prec ) = 0.24698E-01
  weight for this iteration     100.00

 eigenvalues of (default mixing * dielectric matrix)
  average eigenvalue GAMMA=   1.4950
  2.9533  2.3862  1.1982  1.1982  1.2669  0.6209  0.8409

 Free energy of the ion-electron system (eV)
  ---------------------------------------------------
  alpha Z        PSCENC =         0.22565769
  Ewald energy   TEWEN  =       125.54673118
  -Hartree energ DENC   =      -281.49596466
  -exchange      EXHF   =         0.00000000
  -V(xc)+E(xc)   XCENC  =        24.45992773
  PAW double counting   =       434.13199511     -434.89832900
  entropy T*S    EENTRO =         0.03697122
  eigenvalues    EBANDS =       -88.99901258
  atomic energy  EATOM  =       197.04175453
  Solvation  Ediel_sol  =         0.00000000
  ---------------------------------------------------
  free energy    TOTEN  =       -23.95026877 eV

  energy without entropy =      -23.98723999  energy(sigma->0) =      -23.96259251


--------------------------------------------------------------------------------------------------------




--------------------------------------- Iteration      1(  13)  ---------------------------------------


    POTLOK:  cpu time    1.7687: real time    1.7729
    SETDIJ:  cpu time    0.0066: real time    0.0067
    EDDIAG:  cpu time    0.4912: real time    0.4923
  RMM-DIIS:  cpu time    1.6536: real time    1.6575
    ORTHCH:  cpu time    0.0121: real time    0.0122
       DOS:  cpu time    0.0002: real time    0.0002
    CHARGE:  cpu time    0.1995: real time    0.2000
    MIXING:  cpu time    0.0502: real time    0.0503
    --------------------------------------------
      LOOP:  cpu time    4.1823: real time    4.1922

 eigenvalue-minimisations  :    64
 total energy-change (2. order) :-0.2128180E-02  (-0.1737945E-03)
 number of electron       8.0000001 magnetization 
 augmentation part        0.1778917 magnetization 

 Broyden mixing:
  rms(total) = 0.18702E-01    rms(broyden)= 0.18701E-01
  rms(prec ) = 0.26126E-01
  weight for this iteration     100.00

 eigenvalues of (default mixing * dielectric matrix)
  average eigenvalue GAMMA=   1.5114
  3.3347  2.4820  1.2680  1.2680  1.3334  1.0995  0.7345  0.5709

 Free energy of the ion-electron system (eV)
  ---------------------------------------------------
  alpha Z        PSCENC =         0.22565769
  Ewald energy   TEWEN  =       125.54673118
  -Hartree energ DENC   =      -281.83752331
  -exchange      EXHF   =         0.00000000
  -V(xc)+E(xc)   XCENC  =        24.46937017
  PAW double counting   =       432.80077546     -433.56942514
  entropy T*S    EENTRO =         0.03695053
  eigenvalues    EBANDS =       -88.66668807
  atomic energy  EATOM  =       197.04175453
  Solvation  Ediel_sol  =         0.00000000
  ---------------------------------------------------
  free energy    TOTEN  =       -23.95239695 eV

  energy without entropy =      -23.98934748  energy(sigma->0) =      -23.96471379


--------------------------------------------------------------------------------------------------------




--------------------------------------- Iteration      1(  14)  ---------------------------------------


    POTLOK:  cpu time    1.7430: real time    1.7471
    SETDIJ:  cpu time    0.0065: real time    0.0065
    EDDIAG:  cpu time    0.5054: real time    0.5066
  RMM-DIIS:  cpu time    1.6381: real time    1.6420
    ORTHCH:  cpu time    0.0122: real time    0.0122
       DOS:  cpu time    0.0002: real time    0.0002
    CHARGE:  cpu time    0.2039: real time    0.2044
    MIXING:  cpu time    0.0528: real time    0.0529
    --------------------------------------------
      LOOP:  cpu time    4.1621: real time    4.1719

 eigenvalue-minimisations  :    64
 total energy-change (2. order) :-0.2418528E-02  (-0.6463370E-04)
 number of electron       8.0000001 magnetization 
 augmentation part        0.1778491 magnetization 

 Broyden mixing:
  rms(total) = 0.82626E-02    rms(broyden)= 0.82029E-02
  rms(prec ) = 0.12216E-01
  weight for this iteration     100.00

 eigenvalues of (default mixing * dielectric matrix)
  average eigenvalue GAMMA=   1.7485
  4.4096  2.9247  2.2283  1.2073  1.2073  1.3945  0.9621  0.8318  0.5710

 Free energy of the ion-electron system (eV)
  ---------------------------------------------------
  alpha Z        PSCENC =         0.22565769
  Ewald energy   TEWEN  =       125.54673118
  -Hartree energ DENC   =      -281.93252997
  -exchange      EXHF   =         0.00000000
  -V(xc)+E(xc)   XCENC  =        24.46765230
  PAW double counting   =       431.90393335     -432.67283149
  entropy T*S    EENTRO =         0.03742806
  eigenvalues    EBANDS =       -88.57261114
  atomic energy  EATOM  =       197.04175453
  Solvation  Ediel_sol  =         0.00000000
  ---------------------------------------------------
  free energy    TOTEN  =       -23.95481548 eV

  energy without entropy =      -23.99224355  energy(sigma->0) =      -23.96729150


--------------------------------------------------------------------------------------------------------




--------------------------------------- Iteration      1(  15)  ---------------------------------------


    POTLOK:  cpu time    1.6644: real time    1.6684
    SETDIJ:  cpu time    0.0065: real time    0.0065
    EDDIAG:  cpu time    0.5040: real time    0.5052
  RMM-DIIS:  cpu time    1.6218: real time    1.6256
    ORTHCH:  cpu time    0.0124: real time    0.0124
       DOS:  cpu time    0.0002: real time    0.0002
    CHARGE:  cpu time    0.2037: real time    0.2042
    MIXING:  cpu time    0.0511: real time    0.0512
    --------------------------------------------
      LOOP:  cpu time    4.0641: real time    4.0737

 eigenvalue-minimisations  :    64
 total energy-change (2. order) :-0.5165860E-02  (-0.2060812E-03)
 number of electron       8.0000001 magnetization 
 augmentation part        0.1780094 magnetization 

 Broyden mixing:
  rms(total) = 0.20397E-01    rms(broyden)= 0.20383E-01
  rms(prec ) = 0.27363E-01
  weight for this iteration     100.00

 eigenvalues of (default mixing * dielectric matrix)
  average eigenvalue GAMMA=   1.7552
  5.0421  2.9203  2.3164  1.2723  1.2723  1.1569  1.1569  1.0326  0.8036  0.5782

 Free energy of the ion-electron system (eV)
  ---------------------------------------------------
  alpha Z        PSCENC =         0.22565769
  Ewald energy   TEWEN  =       125.54673118
  -Hartree energ DENC   =      -281.91117066
  -exchange      EXHF   =         0.00000000
  -V(xc)+E(xc)   XCENC  =        24.45971021
  PAW double counting   =       432.51740415     -433.28452424
  entropy T*S    EENTRO =         0.03810222
  eigenvalues    EBANDS =       -88.59364643
  atomic energy  EATOM  =       197.04175453
  Solvation  Ediel_sol  =         0.00000000
  ---------------------------------------------------
  free energy    TOTEN  =       -23.95998134 eV

  energy without entropy =      -23.99808356  energy(sigma->0) =      -23.97268208


--------------------------------------------------------------------------------------------------------




--------------------------------------- Iteration      1(  16)  ---------------------------------------


    POTLOK:  cpu time    1.6786: real time    1.6826
    SETDIJ:  cpu time    0.0065: real time    0.0065
    EDDIAG:  cpu time    0.4852: real time    0.4863
  RMM-DIIS:  cpu time    1.6168: real time    1.6206
    ORTHCH:  cpu time    0.0125: real time    0.0125
       DOS:  cpu time    0.0002: real time    0.0002
    CHARGE:  cpu time    0.2158: real time    0.2163
    MIXING:  cpu time    0.0573: real time    0.0574
    --------------------------------------------
      LOOP:  cpu time    4.0729: real time    4.0826

 eigenvalue-minimisations  :    64
 total energy-change (2. order) :-0.3898058E-03  (-0.4980486E-04)
 number of electron       8.0000001 magnetization 
 augmentation part        0.1779500 magnetization 

 Broyden mixing:
  rms(total) = 0.52601E-02    rms(broyden)= 0.51885E-02
  rms(prec ) = 0.69703E-02
  weight for this iteration     100.00

 eigenvalues of (default mixing * dielectric matrix)
  average eigenvalue GAMMA=   1.8044
  5.0002  2.7244  2.5008  2.5008  1.2474  1.2474  1.4032  0.9327  0.9327  0.7800
  0.5793

 Free energy of the ion-electron system (eV)
  ---------------------------------------------------
  alpha Z        PSCENC =         0.22565769
  Ewald energy   TEWEN  =       125.54673118
  -Hartree energ DENC   =      -281.98676917
  -exchange      EXHF   =         0.00000000
  -V(xc)+E(xc)   XCENC  =        24.46133138
  PAW double counting   =       432.59903560     -433.36674087
  entropy T*S    EENTRO =         0.03710305
  eigenvalues    EBANDS =       -88.51847454
  atomic energy  EATOM  =       197.04175453
  Solvation  Ediel_sol  =         0.00000000
  ---------------------------------------------------
  free energy    TOTEN  =       -23.96037115 eV

  energy without entropy =      -23.99747419  energy(sigma->0) =      -23.97273883


--------------------------------------------------------------------------------------------------------




--------------------------------------- Iteration      1(  17)  ---------------------------------------


    POTLOK:  cpu time    1.6635: real time    1.6675
    SETDIJ:  cpu time    0.0065: real time    0.0065
    EDDIAG:  cpu time    0.4753: real time    0.4764
  RMM-DIIS:  cpu time    1.6511: real time    1.6550
    ORTHCH:  cpu time    0.0132: real time    0.0132
       DOS:  cpu time    0.0002: real time    0.0002
    CHARGE:  cpu time    0.2197: real time    0.2202
    MIXING:  cpu time    0.0543: real time    0.0544
    --------------------------------------------
      LOOP:  cpu time    4.0837: real time    4.0935

 eigenvalue-minimisations  :    64
 total energy-change (2. order) :-0.1262522E-02  (-0.4061414E-04)
 number of electron       8.0000001 magnetization 
 augmentation part        0.1778614 magnetization 

 Broyden mixing:
  rms(total) = 0.13135E-01    rms(broyden)= 0.13126E-01
  rms(prec ) = 0.17531E-01
  weight for this iteration     100.00

 eigenvalues of (default mixing * dielectric matrix)
  average eigenvalue GAMMA=   1.9656
  6.7822  3.9185  2.4361  2.4361  1.2721  1.2721  1.0987  1.0987  1.0807  0.5776
  0.8546  0.7594

 Free energy of the ion-electron system (eV)
  ---------------------------------------------------
  alpha Z        PSCENC =         0.22565769
  Ewald energy   TEWEN  =       125.54673118
  -Hartree energ DENC   =      -282.01476972
  -exchange      EXHF   =         0.00000000
  -V(xc)+E(xc)   XCENC  =        24.45904153
  PAW double counting   =       432.30199856     -433.07043561
  entropy T*S    EENTRO =         0.03697873
  eigenvalues    EBANDS =       -88.48859056
  atomic energy  EATOM  =       197.04175453
  Solvation  Ediel_sol  =         0.00000000
  ---------------------------------------------------
  free energy    TOTEN  =       -23.96163367 eV

  energy without entropy =      -23.99861240  energy(sigma->0) =      -23.97395991


--------------------------------------------------------------------------------------------------------




--------------------------------------- Iteration      1(  18)  ---------------------------------------


    POTLOK:  cpu time    1.6192: real time    1.6230
    SETDIJ:  cpu time    0.0064: real time    0.0065
    EDDIAG:  cpu time    0.4924: real time    0.4936
  RMM-DIIS:  cpu time    1.6371: real time    1.6410
    ORTHCH:  cpu time    0.0122: real time    0.0122
       DOS:  cpu time    0.0002: real time    0.0002
    CHARGE:  cpu time    0.1988: real time    0.1993
    MIXING:  cpu time    0.0543: real time    0.0545
    --------------------------------------------
      LOOP:  cpu time    4.0207: real time    4.0302

 eigenvalue-minimisations  :    64
 total energy-change (2. order) :-0.6323332E-04  (-0.1271071E-04)
 number of electron       8.0000001 magnetization 
 augmentation part        0.1778913 magnetization 

 Broyden mixing:
  rms(total) = 0.17213E-02    rms(broyden)= 0.16791E-02
  rms(prec ) = 0.23143E-02
  weight for this iteration     100.00

 eigenvalues of (default mixing * dielectric matrix)
  average eigenvalue GAMMA=   2.0448
  6.9585  3.6538  3.0646  2.2775  2.2775  1.2954  1.2954  1.2354  1.2354  0.5779
  1.0014  0.9236  0.7857

 Free energy of the ion-electron system (eV)
  ---------------------------------------------------
  alpha Z        PSCENC =         0.22565769
  Ewald energy   TEWEN  =       125.54673118
  -Hartree energ DENC   =      -281.97614659
  -exchange      EXHF   =         0.00000000
  -V(xc)+E(xc)   XCENC  =        24.45716630
  PAW double counting   =       432.57593785     -433.34385686
  entropy T*S    EENTRO =         0.03719362
  eigenvalues    EBANDS =       -88.52613462
  atomic energy  EATOM  =       197.04175453
  Solvation  Ediel_sol  =         0.00000000
  ---------------------------------------------------
  free energy    TOTEN  =       -23.96169690 eV

  energy without entropy =      -23.99889052  energy(sigma->0) =      -23.97409477


--------------------------------------------------------------------------------------------------------




--------------------------------------- Iteration      1(  19)  ---------------------------------------


    POTLOK:  cpu time    1.6187: real time    1.6225
    SETDIJ:  cpu time    0.0064: real time    0.0064
    EDDIAG:  cpu time    0.4862: real time    0.4873
  RMM-DIIS:  cpu time    1.6780: real time    1.6819
    ORTHCH:  cpu time    0.0130: real time    0.0130
       DOS:  cpu time    0.0002: real time    0.0002
    CHARGE:  cpu time    0.2087: real time    0.2092
    MIXING:  cpu time    0.0588: real time    0.0589
    --------------------------------------------
      LOOP:  cpu time    4.0699: real time    4.0795

 eigenvalue-minimisations  :    67
 total energy-change (2. order) :-0.1150237E-03  (-0.1893373E-05)
 number of electron       8.0000001 magnetization 
 augmentation part        0.1779080 magnetization 

 Broyden mixing:
  rms(total) = 0.23642E-02    rms(broyden)= 0.23640E-02
  rms(prec ) = 0.31654E-02
  weight for this iteration     100.00

 eigenvalues of (default mixing * dielectric matrix)
  average eigenvalue GAMMA=   2.0865
  7.7095  4.8065  2.8213  2.4245  2.4245  1.2743  1.2743  1.1983  1.0325  1.0325
  0.5778  0.9647  0.8353  0.8353

 Free energy of the ion-electron system (eV)
  ---------------------------------------------------
  alpha Z        PSCENC =         0.22565769
  Ewald energy   TEWEN  =       125.54673118
  -Hartree energ DENC   =      -281.97875219
  -exchange      EXHF   =         0.00000000
  -V(xc)+E(xc)   XCENC  =        24.45771327
  PAW double counting   =       432.63646432     -433.40422868
  entropy T*S    EENTRO =         0.03716864
  eigenvalues    EBANDS =       -88.52432070
  atomic energy  EATOM  =       197.04175453
  Solvation  Ediel_sol  =         0.00000000
  ---------------------------------------------------
  free energy    TOTEN  =       -23.96181193 eV

  energy without entropy =      -23.99898056  energy(sigma->0) =      -23.97420147


--------------------------------------------------------------------------------------------------------




--------------------------------------- Iteration      1(  20)  ---------------------------------------


    POTLOK:  cpu time    1.6450: real time    1.6489
    SETDIJ:  cpu time    0.0067: real time    0.0067
    EDDIAG:  cpu time    0.4723: real time    0.4734
  RMM-DIIS:  cpu time    1.6339: real time    1.6377
    ORTHCH:  cpu time    0.0126: real time    0.0126
       DOS:  cpu time    0.0002: real time    0.0002
    CHARGE:  cpu time    0.2021: real time    0.2026
    MIXING:  cpu time    0.0601: real time    0.0602
    --------------------------------------------
      LOOP:  cpu time    4.0329: real time    4.0424

 eigenvalue-minimisations  :    64
 total energy-change (2. order) :-0.9895236E-04  (-0.1882307E-05)
 number of electron       8.0000001 magnetization 
 augmentation part        0.1779309 magnetization 

 Broyden mixing:
  rms(total) = 0.86301E-03    rms(broyden)= 0.85919E-03
  rms(prec ) = 0.11066E-02
  weight for this iteration     100.00

 eigenvalues of (default mixing * dielectric matrix)
  average eigenvalue GAMMA=   2.0105
  7.9053  4.8178  2.9891  2.2651  2.2651  1.2727  1.2727  1.0784  1.0784  1.1185
  1.0080  1.0080  0.5778  0.8091  0.6909

 Free energy of the ion-electron system (eV)
  ---------------------------------------------------
  alpha Z        PSCENC =         0.22565769
  Ewald energy   TEWEN  =       125.54673118
  -Hartree energ DENC   =      -281.96808578
  -exchange      EXHF   =         0.00000000
  -V(xc)+E(xc)   XCENC  =        24.45730330
  PAW double counting   =       432.64096450     -433.40858078
  entropy T*S    EENTRO =         0.03721662
  eigenvalues    EBANDS =       -88.53487214
  atomic energy  EATOM  =       197.04175453
  Solvation  Ediel_sol  =         0.00000000
  ---------------------------------------------------
  free energy    TOTEN  =       -23.96191088 eV

  energy without entropy =      -23.99912750  energy(sigma->0) =      -23.97431642


--------------------------------------------------------------------------------------------------------




--------------------------------------- Iteration      1(  21)  ---------------------------------------


    POTLOK:  cpu time    1.6362: real time    1.6400
    SETDIJ:  cpu time    0.0065: real time    0.0065
    EDDIAG:  cpu time    0.4872: real time    0.4884
  RMM-DIIS:  cpu time    1.5397: real time    1.5433
    ORTHCH:  cpu time    0.0122: real time    0.0123
       DOS:  cpu time    0.0002: real time    0.0002
    CHARGE:  cpu time    0.2058: real time    0.2063
    MIXING:  cpu time    0.0590: real time    0.0591
    --------------------------------------------
      LOOP:  cpu time    3.9467: real time    3.9561

 eigenvalue-minimisations  :    60
 total energy-change (2. order) :-0.1527971E-04  (-0.3710680E-06)
 number of electron       8.0000001 magnetization 
 augmentation part        0.1779211 magnetization 

 Broyden mixing:
  rms(total) = 0.54734E-03    rms(broyden)= 0.54705E-03
  rms(prec ) = 0.71168E-03
  weight for this iteration     100.00

 eigenvalues of (default mixing * dielectric matrix)
  average eigenvalue GAMMA=   2.1689
  8.6738  5.2229  3.8852  2.4156  2.1676  2.1676  1.2716  1.2716  1.2028  1.2028
  0.5778  1.1042  0.9909  0.9909  0.8016  0.7561

 Free energy of the ion-electron system (eV)
  ---------------------------------------------------
  alpha Z        PSCENC =         0.22565769
  Ewald energy   TEWEN  =       125.54673118
  -Hartree energ DENC   =      -281.98022163
  -exchange      EXHF   =         0.00000000
  -V(xc)+E(xc)   XCENC  =        24.45768974
  PAW double counting   =       432.57370466     -433.34147449
  entropy T*S    EENTRO =         0.03721617
  eigenvalues    EBANDS =       -88.52298402
  atomic energy  EATOM  =       197.04175453
  Solvation  Ediel_sol  =         0.00000000
  ---------------------------------------------------
  free energy    TOTEN  =       -23.96192616 eV

  energy without entropy =      -23.99914233  energy(sigma->0) =      -23.97433155


--------------------------------------------------------------------------------------------------------




--------------------------------------- Iteration      1(  22)  ---------------------------------------


    POTLOK:  cpu time    1.7177: real time    1.7218
    SETDIJ:  cpu time    0.0064: real time    0.0064
    EDDIAG:  cpu time    0.4814: real time    0.4826
  RMM-DIIS:  cpu time    1.4559: real time    1.4593
    ORTHCH:  cpu time    0.0124: real time    0.0125
       DOS:  cpu time    0.0002: real time    0.0002
    CHARGE:  cpu time    0.1930: real time    0.1935
    MIXING:  cpu time    0.0604: real time    0.0605
    --------------------------------------------
      LOOP:  cpu time    3.9274: real time    3.9367

 eigenvalue-minimisations  :    60
 total energy-change (2. order) :-0.1665631E-04  (-0.4281709E-06)
 number of electron       8.0000001 magnetization 
 augmentation part        0.1779119 magnetization 

 Broyden mixing:
  rms(total) = 0.93419E-03    rms(broyden)= 0.93230E-03
  rms(prec ) = 0.12389E-02
  weight for this iteration     100.00

 eigenvalues of (default mixing * dielectric matrix)
  average eigenvalue GAMMA=   2.1077
  8.7796  5.3173  3.8551  2.5962  2.1025  2.1025  1.2677  1.2677  1.2461  1.2461
  1.1313  1.1313  0.5778  0.9582  0.7903  0.7307  0.7307

 Free energy of the ion-electron system (eV)
  ---------------------------------------------------
  alpha Z        PSCENC =         0.22565769
  Ewald energy   TEWEN  =       125.54673118
  -Hartree energ DENC   =      -281.98531038
  -exchange      EXHF   =         0.00000000
  -V(xc)+E(xc)   XCENC  =        24.45780730
  PAW double counting   =       432.52458857     -433.29243714
  entropy T*S    EENTRO =         0.03725702
  eigenvalues    EBANDS =       -88.51799160
  atomic energy  EATOM  =       197.04175453
  Solvation  Ediel_sol  =         0.00000000
  ---------------------------------------------------
  free energy    TOTEN  =       -23.96194281 eV

  energy without entropy =      -23.99919983  energy(sigma->0) =      -23.97436182


--------------------------------------------------------------------------------------------------------




--------------------------------------- Iteration      1(  23)  ---------------------------------------


    POTLOK:  cpu time    1.7185: real time    1.7226
    SETDIJ:  cpu time    0.0065: real time    0.0065
    EDDIAG:  cpu time    0.4794: real time    0.4805
  RMM-DIIS:  cpu time    1.2098: real time    1.2127
    ORTHCH:  cpu time    0.0125: real time    0.0126
       DOS:  cpu time    0.0002: real time    0.0002
    --------------------------------------------
      LOOP:  cpu time    3.4269: real time    3.4350

 eigenvalue-minimisations  :    48
 total energy-change (2. order) : 0.7997309E-07  (-0.5290418E-07)
 number of electron       8.0000001 magnetization 
 augmentation part        0.1779119 magnetization 

 Free energy of the ion-electron system (eV)
  ---------------------------------------------------
  alpha Z        PSCENC =         0.22565769
  Ewald energy   TEWEN  =       125.54673118
  -Hartree energ DENC   =      -281.98001583
  -exchange      EXHF   =         0.00000000
  -V(xc)+E(xc)   XCENC  =        24.45755447
  PAW double counting   =       432.52389844     -433.29169685
  entropy T*S    EENTRO =         0.03723981
  eigenvalues    EBANDS =       -88.52306618
  atomic energy  EATOM  =       197.04175453
  Solvation  Ediel_sol  =         0.00000000
  ---------------------------------------------------
  free energy    TOTEN  =       -23.96194273 eV

  energy without entropy =      -23.99918255  energy(sigma->0) =      -23.97435600


--------------------------------------------------------------------------------------------------------




 average (electrostatic) potential at core
  the test charge radii are     0.5201  0.6991
  (the norm of the test charge is              1.0000)
       1 -41.3361       2 -41.3144       3 -41.3711       4 -41.3492       5 -58.1299



 E-fermi :  -9.0002     XC(G=0):  -0.6667     alpha+bet : -0.1962


 k-point     1 :       0.2500    0.2500    0.2500
  band No.  band energies     occupation 
      1     -16.6911      2.00000
      2      -9.2553      2.07018
      3      -9.1672      1.99677
      4      -9.1443      1.93336
      5      -0.3632      0.00000
      6       0.5158      0.00000
      7       0.6478      0.00000
      8       0.6696      0.00000

 k-point     2 :      -0.2500    0.2500    0.2500
  band No.  band energies     occupation 
      1     -16.6911      2.00000
      2      -9.2553      2.07018
      3      -9.1670      1.99649
      4      -9.1442      1.93317
      5      -0.3570      0.00000
      6       0.5010      0.00000
      7       0.6224      0.00000
      8       0.6570      0.00000

 k-point     3 :       0.2500   -0.2500    0.2500
  band No.  band energies     occupation 
      1     -16.6911      2.00000
      2      -9.2553      2.07018
      3      -9.1671      1.99664
      4      -9.1442      1.93326
      5      -0.3605      0.00000
      6       0.5069      0.00000
      7       0.6360      0.00000
      8       0.6661      0.00000

 k-point     4 :      -0.2500   -0.2500    0.2500
  band No.  band energies     occupation 
      1     -16.6911      2.00000
      2      -9.2553      2.07019
      3      -9.1670      1.99651
      4      -9.1442      1.93308
      5      -0.3601      0.00000
      6       0.5079      0.00000
      7       0.6381      0.00000
      8       0.6627      0.00000


--------------------------------------------------------------------------------------------------------


 soft charge-density along one line, spin component           1
         0         1         2         3         4         5         6         7         8         9
 total charge-density along one line

 pseudopotential strength for first ion, spin component:           1
 -2.339  -4.030  -0.001  -0.002   0.001
 -4.030  -6.857  -0.003  -0.004   0.002
 -0.001  -0.003  -0.337   0.002  -0.001
 -0.002  -0.004   0.002  -0.336  -0.001
  0.001   0.002  -0.001  -0.001  -0.339
 total augmentation occupancy for first ion, spin component:           1
  3.312  -0.558   0.239   0.384  -0.162
 -0.558   0.107  -0.042  -0.066   0.028
  0.239  -0.042   0.023   0.024  -0.010
  0.384  -0.066   0.024   0.048  -0.017
 -0.162   0.028  -0.010  -0.017   0.016


------------------------ aborting loop because EDIFF is reached ----------------------------------------


    CHARGE:  cpu time    0.1771: real time    0.1775
    FORLOC:  cpu time    0.1193: real time    0.1195
    FORNL :  cpu time    0.6768: real time    0.6784
    STRESS:  cpu time    2.1671: real time    2.1722
    FORCOR:  cpu time    1.8395: real time    1.8438
    FORHAR:  cpu time    0.6065: real time    0.6080
    MIXING:  cpu time    0.0609: real time    0.0611
    OFIELD:  cpu time    0.0000: real time    0.0000

  FORCE on cell =-STRESS in cart. coord.  units (eV):
  Direction    XX          YY          ZZ          XY          YZ          ZX
  --------------------------------------------------------------------------------------
  Alpha Z     0.22566     0.22566     0.22566
  Ewald      42.64256    40.69932    42.20482     0.55978     0.92600     1.47144
  Hartree    94.36541    93.67484    93.93803     0.54387     0.33053     0.87334
  E(xc)     -26.90128   -26.90954   -26.90076     0.00466     0.00367     0.00843
  Local    -196.11263  -193.30953  -195.32145    -1.17965    -1.37964    -2.45163
  n-local   -15.21681   -14.45931   -15.06717    -0.20056    -0.38215     0.09235
  augment     0.12944     0.12614     0.12811     0.00168     0.00131     0.00272
  Kinetic    99.60752    98.63408    99.67053    -0.12643     0.57758     0.17547
  Fock        0.00000     0.00000     0.00000     0.00000     0.00000     0.00000
  -------------------------------------------------------------------------------------
  Total      -1.26014    -1.31834    -1.12223    -0.39664     0.07728     0.17212
  in kB      -1.88068    -1.96754    -1.67486    -0.59196     0.11534     0.25688
  external pressure =       -1.84 kB  Pullay stress =        0.00 kB

  kinetic pressure (ideal gas correction) =      0.03 kB
  total pressure  =     -1.82 kB
  Total+kin.    -1.864      -1.918      -1.664      -0.606       0.109       0.265

 VOLUME and BASIS-vectors are now :
 -----------------------------------------------------------------------------
  energy-cutoff  :      400.00
  volume of cell :     1073.53
      direct lattice vectors                 reciprocal lattice vectors
    10.231211195  0.000000000  0.000000000     0.097740139 -0.001935643 -0.002137528
     0.202404819 10.220412838  0.000000000    -0.000000000  0.097843406  0.000287772
     0.223923730 -0.030195082 10.266432944     0.000000000  0.000000000  0.097404815

  length of vectors
    10.231211195 10.222416852 10.268919075     0.097782669  0.097843829  0.097404815


 FORCES acting on ions
    electron-ion (+dipol)            ewald-force                    non-local-force                 convergence-correction
 -----------------------------------------------------------------------------------------------
   -.156E+02 0.286E+02 0.404E+02   0.170E+02 -.312E+02 -.442E+02   -.157E+01 0.276E+01 0.432E+01   0.275E-03 0.310E-03 0.455E-03
   0.511E+02 -.655E+01 0.291E+01   -.558E+02 0.708E+01 -.326E+01   0.503E+01 -.356E+00 0.626E+00   0.468E-03 0.235E-03 0.326E-03
   -.232E+02 -.448E+02 0.115E+01   0.250E+02 0.481E+02 -.108E+01   -.250E+01 -.413E+01 0.236E+00   0.287E-04 -.101E-03 0.195E-03
   -.121E+02 0.237E+02 -.436E+02   0.132E+02 -.254E+02 0.471E+02   -.148E+01 0.212E+01 -.417E+01   0.148E-03 0.279E-03 -.554E-04
   -.724E+00 -.152E+01 -.138E+01   0.658E+00 0.140E+01 0.138E+01   -.449E+00 0.193E+01 -.447E+00   0.538E-02 0.411E-02 0.551E-02
 -----------------------------------------------------------------------------------------------
   -.501E+00 -.624E+00 -.471E+00   -.178E-14 -.355E-14 -.711E-14   -.974E+00 0.231E+01 0.558E+00   0.630E-02 0.483E-02 0.643E-02


 POSITION                                       TOTAL-FORCE (eV/Angst)
 -----------------------------------------------------------------------------------
      5.66928      4.14452      3.70018        -0.217831      0.156493      0.564321
      4.23322      4.89466      4.50037         0.387605      0.171765      0.276313
      5.86370      5.76719      4.54488        -0.712276     -0.846931      0.309370
      5.60867      4.23640      5.53202        -0.416179      0.410124     -0.616627
      5.33750      4.75597      4.56698        -0.510127      1.804155     -0.439429
 -----------------------------------------------------------------------------------
    total drift:                               -1.468809      1.695606      0.093948


--------------------------------------------------------------------------------------------------------



  FREE ENERGIE OF THE ION-ELECTRON SYSTEM (eV)
  ---------------------------------------------------
  free  energy   TOTEN  =       -23.96194273 eV

  energy  without entropy=      -23.99918255  energy(sigma->0) =      -23.97435600



--------------------------------------------------------------------------------------------------------


    POTLOK:  cpu time    1.7707: real time    1.7749


--------------------------------------------------------------------------------------------------------


           RANDOM_SEED =         578492960                0                0
           RANDOM_SEED =         578492960               30                0
   IONSTEP:  cpu time    0.0016: real time    0.0018

  ENERGY OF THE ELECTRON-ION-THERMOSTAT SYSTEM (eV)
  ---------------------------------------------------
% ion-electron   TOTEN  =       -23.961943  see above
  kinetic energy EKIN   =         0.031215
  kin. lattice  EKIN_LAT=         0.000000  (temperature   60.37 K)
  nose potential ES     =         0.000000
  nose kinetic   EPS    =         0.000003
  ---------------------------------------------------
  total energy   ETOTAL =       -23.930724 eV

  maximum distance moved by ions :      0.41E-02


 mean value of Nose-termostat <S>:     1.003 mean value of <T> :    60.372
 mean temperature <T/S>/<1/S>  :    60.372

    WAVPRE:  cpu time    0.5765: real time    0.5830
    FEWALD:  cpu time    0.0004: real time    0.0004
    ORTHCH:  cpu time    0.2578: real time    0.2584
     LOOP+:  cpu time   98.3791: real time   98.6194


--------------------------------------- Iteration      2(   1)  ---------------------------------------


    POTLOK:  cpu time    1.7624: real time    1.7667
    SETDIJ:  cpu time    0.0065: real time    0.0065
     EDDAV:  cpu time    2.2302: real time    2.2354
       DOS:  cpu time    0.0002: real time    0.0002
    CHARGE:  cpu time    0.1890: real time    0.1894
    MIXING:  cpu time    0.0451: real time    0.0452
    --------------------------------------------
      LOOP:  cpu time    4.2334: real time    4.2435

 eigenvalue-minimisations  :    64
 total energy-change (2. order) :-0.5454586E-01  (-0.2099914E+00)
 number of electron       8.0000001 magnetization 
 augmentation part        0.1839924 magnetization 

 Broyden mixing:
  rms(total) = 0.71602E-01    rms(broyden)= 0.71528E-01
  rms(prec ) = 0.89231E-01
  weight for this iteration     100.00

 Free energy of the ion-electron system (eV)
  ---------------------------------------------------
  alpha Z        PSCENC =         0.22565769
  Ewald energy   TEWEN  =       129.80167055
  -Hartree energ DENC   =      -284.47951335
  -exchange      EXHF   =         0.00000000
  -V(xc)+E(xc)   XCENC  =        24.58305089
  PAW double counting   =       432.54588541     -433.31366087
  entropy T*S    EENTRO =         0.02317831
  eigenvalues    EBANDS =       -90.44451183
  atomic energy  EATOM  =       197.04175453
  Solvation  Ediel_sol  =         0.00000000
  ---------------------------------------------------
  free energy    TOTEN  =       -24.01648867 eV

  energy without entropy =      -24.03966698  energy(sigma->0) =      -24.02421478


--------------------------------------------------------------------------------------------------------




--------------------------------------- Iteration      2(   2)  ---------------------------------------


    POTLOK:  cpu time    1.5939: real time    1.5977
    SETDIJ:  cpu time    0.0065: real time    0.0065
    EDDIAG:  cpu time    0.5059: real time    0.5071
  RMM-DIIS:  cpu time    1.6285: real time    1.6324
    ORTHCH:  cpu time    0.0122: real time    0.0122
       DOS:  cpu time    0.0002: real time    0.0002
    CHARGE:  cpu time    0.1857: real time    0.1862
    MIXING:  cpu time    0.0683: real time    0.0684
    --------------------------------------------
      LOOP:  cpu time    4.0013: real time    4.0107

 eigenvalue-minimisations  :    64
 total energy-change (2. order) : 0.4182029E-02  (-0.3427148E-02)
 number of electron       8.0000001 magnetization 
 augmentation part        0.1835132 magnetization 

 Broyden mixing:
  rms(total) = 0.55510E-01    rms(broyden)= 0.55505E-01
  rms(prec ) = 0.70766E-01
  weight for this iteration     100.00

 eigenvalues of (default mixing * dielectric matrix)
  average eigenvalue GAMMA=   2.0844
  8.7447  5.4810  3.5296  3.1650  2.3863  2.2451  1.8311  1.2643  1.2643  1.2502
  1.2502  1.1248  1.1248  0.9940  0.9940  0.5778  0.8510  0.8097  0.7154

 Free energy of the ion-electron system (eV)
  ---------------------------------------------------
  alpha Z        PSCENC =         0.22565769
  Ewald energy   TEWEN  =       129.80167055
  -Hartree energ DENC   =      -285.40341825
  -exchange      EXHF   =         0.00000000
  -V(xc)+E(xc)   XCENC  =        24.64267234
  PAW double counting   =       451.99283377     -452.76938884
  entropy T*S    EENTRO =         0.02071614
  eigenvalues    EBANDS =       -89.56480457
  atomic energy  EATOM  =       197.04175453
  Solvation  Ediel_sol  =         0.00000000
  ---------------------------------------------------
  free energy    TOTEN  =       -24.01230664 eV

  energy without entropy =      -24.03302279  energy(sigma->0) =      -24.01921203


--------------------------------------------------------------------------------------------------------




--------------------------------------- Iteration      2(   3)  ---------------------------------------


    POTLOK:  cpu time    1.6540: real time    1.6579
    SETDIJ:  cpu time    0.0065: real time    0.0065
    EDDIAG:  cpu time    0.4980: real time    0.4992
  RMM-DIIS:  cpu time    1.6155: real time    1.6193
    ORTHCH:  cpu time    0.0122: real time    0.0123
       DOS:  cpu time    0.0002: real time    0.0002
    CHARGE:  cpu time    0.1958: real time    0.1963
    MIXING:  cpu time    0.0647: real time    0.0649
    --------------------------------------------
      LOOP:  cpu time    4.0470: real time    4.0565

 eigenvalue-minimisations  :    64
 total energy-change (2. order) :-0.4533803E-02  (-0.2551108E-02)
 number of electron       8.0000001 magnetization 
 augmentation part        0.1824309 magnetization 

 Broyden mixing:
  rms(total) = 0.55413E-01    rms(broyden)= 0.55411E-01
  rms(prec ) = 0.73193E-01
  weight for this iteration     100.00

 eigenvalues of (default mixing * dielectric matrix)
  average eigenvalue GAMMA=   2.0600
  8.7472  5.4795  3.5278  3.1557  2.4458  2.4458  2.1615  1.2642  1.2642  1.2243
  1.2243  0.5778  1.1533  1.1533  0.9829  0.9829  1.0407  0.8518  0.8058  0.7109

 Free energy of the ion-electron system (eV)
  ---------------------------------------------------
  alpha Z        PSCENC =         0.22565769
[...]
  rms(prec ) = 0.20355E-02
  weight for this iteration     100.00

 eigenvalues of (default mixing * dielectric matrix)
  average eigenvalue GAMMA=   2.3061
  6.4983  5.4592  4.5068  4.5068  0.1451  3.9422  3.9422  0.2930  0.3676  2.8759
  2.8759  0.7658  0.7658  0.9629  0.9629  0.8498  0.8498  2.1970  2.1970  1.2022
  1.2742  1.2742  1.4684  1.4684  1.8155  1.8155  3.2388  3.2388  1.5350  2.9376
  2.9376  1.8857  1.8857  2.2270  2.2270  2.9296  2.7633  2.7252  2.7252  2.6612
  2.6612  2.5573  2.5573  2.2696  2.2696  2.3986  2.3986  2.3814

 Free energy of the ion-electron system (eV)
  ---------------------------------------------------
  alpha Z        PSCENC =         0.22565769
  Ewald energy   TEWEN  =       132.13499897
  -Hartree energ DENC   =      -287.77818292
  -exchange      EXHF   =         0.00000000
  -V(xc)+E(xc)   XCENC  =        24.76391252
  PAW double counting   =       479.29335852     -480.08322228
  entropy T*S    EENTRO =         0.03804550
  eigenvalues    EBANDS =       -89.62145772
  atomic energy  EATOM  =       197.04175453
  Solvation  Ediel_sol  =         0.00000000
  ---------------------------------------------------
  free energy    TOTEN  =       -23.98513519 eV

  energy without entropy =      -24.02318069  energy(sigma->0) =      -23.99781702


--------------------------------------------------------------------------------------------------------




--------------------------------------- Iteration     10(  16)  ---------------------------------------


    POTLOK:  cpu time    1.5812: real time    1.5850
    SETDIJ:  cpu time    0.0060: real time    0.0061
    EDDIAG:  cpu time    0.4169: real time    0.4179
  RMM-DIIS:  cpu time    1.2146: real time    1.2175
    ORTHCH:  cpu time    0.0153: real time    0.0154
       DOS:  cpu time    0.0002: real time    0.0002
    CHARGE:  cpu time    0.1688: real time    0.1692
    MIXING:  cpu time    0.1387: real time    0.1390
    --------------------------------------------
      LOOP:  cpu time    3.5418: real time    3.5502

 eigenvalue-minimisations  :    56
 total energy-change (2. order) :-0.5082461E-05  (-0.3310905E-06)
 number of electron       7.9999999 magnetization 
 augmentation part        0.1857951 magnetization 

 Broyden mixing:
  rms(total) = 0.59525E-03    rms(broyden)= 0.59041E-03
  rms(prec ) = 0.77396E-03
  weight for this iteration     100.00

 eigenvalues of (default mixing * dielectric matrix)
  average eigenvalue GAMMA=   2.3096
  6.5480  5.3363  5.0323  4.7008  4.3612  3.9946  0.1440  0.2939  0.3532  3.4356
  3.4356  2.2362  2.2362  2.6641  2.6641  0.9811  0.9811  0.7912  0.7912  0.8471
  0.8471  0.9260  1.4854  1.4854  1.2397  1.2397  1.3828  1.3828  1.7380  1.7380
  2.2251  2.2251  2.9740  2.8802  2.8802  2.1926  2.1926  2.2188  2.2188  2.3117
  2.4183  2.4183  2.5859  2.5859  2.7132  2.7132  2.7350  2.7350  2.6555

 Free energy of the ion-electron system (eV)
  ---------------------------------------------------
  alpha Z        PSCENC =         0.22565769
  Ewald energy   TEWEN  =       132.13499897
  -Hartree energ DENC   =      -287.77623006
  -exchange      EXHF   =         0.00000000
  -V(xc)+E(xc)   XCENC  =        24.76383349
  PAW double counting   =       479.29468676     -480.08453725
  entropy T*S    EENTRO =         0.03812519
  eigenvalues    EBANDS =       -89.62342959
  atomic energy  EATOM  =       197.04175453
  Solvation  Ediel_sol  =         0.00000000
  ---------------------------------------------------
  free energy    TOTEN  =       -23.98514027 eV

  energy without entropy =      -24.02326546  energy(sigma->0) =      -23.99784867


--------------------------------------------------------------------------------------------------------




--------------------------------------- Iteration     10(  17)  ---------------------------------------


    POTLOK:  cpu time    1.5934: real time    1.5972
    SETDIJ:  cpu time    0.0060: real time    0.0061
    EDDIAG:  cpu time    0.4100: real time    0.4110
  RMM-DIIS:  cpu time    1.0728: real time    1.0754
    ORTHCH:  cpu time    0.0121: real time    0.0121
       DOS:  cpu time    0.0002: real time    0.0002
    CHARGE:  cpu time    0.1713: real time    0.1717
    MIXING:  cpu time    0.1331: real time    0.1334
    --------------------------------------------
      LOOP:  cpu time    3.3989: real time    3.4070

 eigenvalue-minimisations  :    48
 total energy-change (2. order) :-0.6643629E-05  (-0.4208263E-07)
 number of electron       7.9999999 magnetization 
 augmentation part        0.1857951 magnetization 

 Broyden mixing:
  rms(total) = 0.42870E-03    rms(broyden)= 0.42863E-03
  rms(prec ) = 0.56111E-03
  weight for this iteration     100.00

 eigenvalues of (default mixing * dielectric matrix)
  average eigenvalue GAMMA=   2.2966
  5.6978  5.0508  4.9917  4.1307  0.2337  0.2337  0.3948  3.1627  3.1627  3.7240
  3.7240  1.2675  1.2675  0.8208  0.8208  1.0857  1.0857  0.8451  0.9683  1.2890
  1.2890  2.1928  2.1928  1.5308  2.7628  2.7628  3.0343  1.9064  1.9064  2.0434
  2.0434  2.0076  2.9358  2.6826  2.6826  2.2071  2.3874  2.3874  2.7518  2.7086
  2.7086  2.6310  2.5032  2.5664  2.5664

 Free energy of the ion-electron system (eV)
  ---------------------------------------------------
  alpha Z        PSCENC =         0.22565769
  Ewald energy   TEWEN  =       132.13499897
  -Hartree energ DENC   =      -287.77622157
  -exchange      EXHF   =         0.00000000
  -V(xc)+E(xc)   XCENC  =        24.76383275
  PAW double counting   =       479.29650138     -480.08635525
  entropy T*S    EENTRO =         0.03812382
  eigenvalues    EBANDS =       -89.62343924
  atomic energy  EATOM  =       197.04175453
  Solvation  Ediel_sol  =         0.00000000
  ---------------------------------------------------
  free energy    TOTEN  =       -23.98514692 eV

  energy without entropy =      -24.02327074  energy(sigma->0) =      -23.99785486


--------------------------------------------------------------------------------------------------------




--------------------------------------- Iteration     10(  18)  ---------------------------------------


    POTLOK:  cpu time    1.6248: real time    1.6287
    SETDIJ:  cpu time    0.0061: real time    0.0061
    EDDIAG:  cpu time    0.3941: real time    0.3950
  RMM-DIIS:  cpu time    1.0948: real time    1.0974
    ORTHCH:  cpu time    0.0122: real time    0.0123
       DOS:  cpu time    0.0002: real time    0.0002
    CHARGE:  cpu time    0.1727: real time    0.1731
    MIXING:  cpu time    0.1317: real time    0.1320
    --------------------------------------------
      LOOP:  cpu time    3.4366: real time    3.4447

 eigenvalue-minimisations  :    48
 total energy-change (2. order) :-0.2781664E-05  (-0.2339078E-07)
 number of electron       7.9999999 magnetization 
 augmentation part        0.1857946 magnetization 

 Broyden mixing:
  rms(total) = 0.28860E-03    rms(broyden)= 0.28849E-03
  rms(prec ) = 0.38335E-03
  weight for this iteration     100.00

 eigenvalues of (default mixing * dielectric matrix)
  average eigenvalue GAMMA=   2.3004
  5.8211  5.0198  5.0198  4.1871  1.7083  1.7083  0.2218  0.2218  3.2126  3.2126
  3.7253  3.7253  0.4116  0.8145  0.8145  0.7854  1.0397  1.0397  0.9601  3.3713
  1.2333  1.2333  1.2688  1.8249  1.8249  1.5705  2.5614  2.5614  1.8548  3.0443
  1.9817  2.2416  2.2416  2.6643  2.6643  2.1864  2.2846  2.6951  2.6951  2.7692
  2.4370  2.5385  2.5385  2.6046  2.6046  2.6718

 Free energy of the ion-electron system (eV)
  ---------------------------------------------------
  alpha Z        PSCENC =         0.22565769
  Ewald energy   TEWEN  =       132.13499897
  -Hartree energ DENC   =      -287.77689080
  -exchange      EXHF   =         0.00000000
  -V(xc)+E(xc)   XCENC  =        24.76385939
  PAW double counting   =       479.29822398     -480.08808389
  entropy T*S    EENTRO =         0.03810935
  eigenvalues    EBANDS =       -89.62277893
  atomic energy  EATOM  =       197.04175453
  Solvation  Ediel_sol  =         0.00000000
  ---------------------------------------------------
  free energy    TOTEN  =       -23.98514970 eV

  energy without entropy =      -24.02325905  energy(sigma->0) =      -23.99785281


--------------------------------------------------------------------------------------------------------




--------------------------------------- Iteration     10(  19)  ---------------------------------------


    POTLOK:  cpu time    1.6516: real time    1.6555
    SETDIJ:  cpu time    0.0064: real time    0.0064
    EDDIAG:  cpu time    0.3945: real time    0.3955
  RMM-DIIS:  cpu time    1.0806: real time    1.0832
    ORTHCH:  cpu time    0.0113: real time    0.0113
       DOS:  cpu time    0.0002: real time    0.0002
    --------------------------------------------
      LOOP:  cpu time    3.1446: real time    3.1521

 eigenvalue-minimisations  :    48
 total energy-change (2. order) :-0.8694246E-06  (-0.2294439E-07)
 number of electron       7.9999999 magnetization 
 augmentation part        0.1857946 magnetization 

 Free energy of the ion-electron system (eV)
  ---------------------------------------------------
  alpha Z        PSCENC =         0.22565769
  Ewald energy   TEWEN  =       132.13499897
  -Hartree energ DENC   =      -287.77693609
  -exchange      EXHF   =         0.00000000
  -V(xc)+E(xc)   XCENC  =        24.76386128
  PAW double counting   =       479.29432594     -480.08418411
  entropy T*S    EENTRO =         0.03809683
  eigenvalues    EBANDS =       -89.62272561
  atomic energy  EATOM  =       197.04175453
  Solvation  Ediel_sol  =         0.00000000
  ---------------------------------------------------
  free energy    TOTEN  =       -23.98515057 eV

  energy without entropy =      -24.02324740  energy(sigma->0) =      -23.99784951


--------------------------------------------------------------------------------------------------------




 average (electrostatic) potential at core
  the test charge radii are     0.5201  0.6991
  (the norm of the test charge is              1.0000)
       1 -41.4184       2 -41.4126       3 -41.6505       4 -41.5711       5 -57.9600



 E-fermi :  -9.1052     XC(G=0):  -0.6522     alpha+bet : -0.1962


 k-point     1 :       0.2500    0.2500    0.2500
  band No.  band energies     occupation 
      1     -16.9071      2.00000
      2      -9.3702      2.06822
      3      -9.2883      2.02804
      4      -9.2408      1.90405
      5      -0.3200      0.00000
      6       0.5397      0.00000
      7       0.6604      0.00000
      8       0.6805      0.00000

 k-point     2 :      -0.2500    0.2500    0.2500
  band No.  band energies     occupation 
      1     -16.9071      2.00000
      2      -9.3702      2.06822
      3      -9.2883      2.02797
      4      -9.2407      1.90353
      5      -0.3124      0.00000
      6       0.5117      0.00000
      7       0.6418      0.00000
      8       0.6714      0.00000

 k-point     3 :       0.2500   -0.2500    0.2500
  band No.  band energies     occupation 
      1     -16.9071      2.00000
      2      -9.3702      2.06823
      3      -9.2883      2.02806
      4      -9.2408      1.90389
      5      -0.3175      0.00000
      6       0.5333      0.00000
      7       0.6494      0.00000
      8       0.6758      0.00000

 k-point     4 :      -0.2500   -0.2500    0.2500
  band No.  band energies     occupation 
      1     -16.9071      2.00000
      2      -9.3701      2.06824
      3      -9.2882      2.02784
      4      -9.2407      1.90370
      5      -0.3170      0.00000
      6       0.5355      0.00000
      7       0.6507      0.00000
      8       0.6712      0.00000


--------------------------------------------------------------------------------------------------------


 soft charge-density along one line, spin component           1
         0         1         2         3         4         5         6         7         8         9
 total charge-density along one line

 pseudopotential strength for first ion, spin component:           1
 -2.340  -4.032  -0.001  -0.002   0.001
 -4.032  -6.862  -0.003  -0.004   0.002
 -0.001  -0.003  -0.338   0.002  -0.001
 -0.002  -0.004   0.002  -0.336  -0.001
  0.001   0.002  -0.001  -0.001  -0.338
 total augmentation occupancy for first ion, spin component:           1
  3.388  -0.586   0.195   0.377  -0.176
 -0.586   0.115  -0.036  -0.066   0.030
  0.195  -0.036   0.016   0.018  -0.009
  0.377  -0.066   0.018   0.046  -0.018
 -0.176   0.030  -0.009  -0.018   0.018


------------------------ aborting loop because EDIFF is reached ----------------------------------------


    CHARGE:  cpu time    0.1696: real time    0.1700
    FORLOC:  cpu time    0.1169: real time    0.1172
    FORNL :  cpu time    0.6116: real time    0.6130
    STRESS:  cpu time    1.9185: real time    1.9231
    FORCOR:  cpu time    1.7886: real time    1.7928
    FORHAR:  cpu time    0.5608: real time    0.5621
    MIXING:  cpu time    0.1269: real time    0.1272
    OFIELD:  cpu time    0.0000: real time    0.0000

  FORCE on cell =-STRESS in cart. coord.  units (eV):
  Direction    XX          YY          ZZ          XY          YZ          ZX
  --------------------------------------------------------------------------------------
  Alpha Z     0.22566     0.22566     0.22566
  Ewald      44.43364    41.73087    45.97046     0.35848     0.03339     0.03289
  Hartree    96.51104    94.82058    96.44537     0.38507     0.25931     0.09094
  E(xc)     -27.22836   -27.25078   -27.22467    -0.00048     0.00646    -0.00388
  Local    -199.94199  -194.85505  -201.26228    -0.87384    -0.46340    -0.05444
  n-local   -15.26035   -15.66038   -15.08847    -0.30802    -0.09977     0.18534
  augment     0.11761     0.10900     0.11446     0.00246     0.00332    -0.00077
  Kinetic   101.30524   100.47044   102.05180     0.61322    -0.45815     0.16143
  Fock        0.00000     0.00000     0.00000     0.00000     0.00000     0.00000
  -------------------------------------------------------------------------------------
  Total       0.16248    -0.40968     1.23232     0.17689    -0.71884     0.41150
  in kB       0.24249    -0.61142     1.83916     0.26400    -1.07283     0.61414
  external pressure =        0.49 kB  Pullay stress =        0.00 kB

  kinetic pressure (ideal gas correction) =      0.11 kB
  total pressure  =      0.60 kB
  Total+kin.     0.382      -0.572       1.996       0.323      -1.089       0.635

 VOLUME and BASIS-vectors are now :
 -----------------------------------------------------------------------------
  energy-cutoff  :      400.00
  volume of cell :     1073.53
      direct lattice vectors                 reciprocal lattice vectors
    10.231211195  0.000000000  0.000000000     0.097740139 -0.001935643 -0.002137528
     0.202404819 10.220412838  0.000000000    -0.000000000  0.097843406  0.000287772
     0.223923730 -0.030195082 10.266432944     0.000000000  0.000000000  0.097404815

  length of vectors
    10.231211195 10.222416852 10.268919075     0.097782669  0.097843829  0.097404815


 FORCES acting on ions
    electron-ion (+dipol)            ewald-force                    non-local-force                 convergence-correction
 -----------------------------------------------------------------------------------------------
   -.170E+02 0.283E+02 0.408E+02   0.185E+02 -.308E+02 -.449E+02   -.146E+01 0.297E+01 0.396E+01   -.257E-03 -.128E-04 -.582E-04
   0.516E+02 -.901E+01 0.407E+01   -.567E+02 0.967E+01 -.454E+01   0.555E+01 -.822E+00 0.188E+00   -.172E-03 -.175E-03 -.735E-05
   -.256E+02 -.462E+02 -.546E+00   0.285E+02 0.511E+02 0.562E+00   -.245E+01 -.478E+01 -.209E-01   -.981E-04 -.108E-03 0.928E-04
   -.102E+02 0.255E+02 -.465E+02   0.114E+02 -.284E+02 0.524E+02   -.874E+00 0.233E+01 -.435E+01   -.211E-03 0.234E-04 0.114E-03
   0.130E+01 0.107E+01 0.313E+01   -.167E+01 -.150E+01 -.352E+01   -.714E+00 0.212E+01 -.101E+01   -.383E-02 -.170E-02 0.845E-03
 -----------------------------------------------------------------------------------------------
   0.984E-01 -.352E+00 0.954E+00   0.355E-14 0.355E-14 0.711E-14   0.647E-01 0.183E+01 -.124E+01   -.457E-02 -.197E-02 0.986E-03


 POSITION                                       TOTAL-FORCE (eV/Angst)
 -----------------------------------------------------------------------------------
      5.69706      4.16328      3.70339         0.056126      0.448378     -0.064599
      4.25334      4.94126      4.48361         0.446121     -0.158917     -0.279327
      5.87382      5.71030      4.58107         0.452863      0.088115     -0.004921
      5.54028      4.25561      5.49668         0.291026     -0.585815      1.466381
      5.33837      4.75366      4.56803        -1.087579      1.688704     -1.400899
 -----------------------------------------------------------------------------------
    total drift:                                0.158558      1.480466     -0.283365


--------------------------------------------------------------------------------------------------------



  FREE ENERGIE OF THE ION-ELECTRON SYSTEM (eV)
  ---------------------------------------------------
  free  energy   TOTEN  =       -23.98515057 eV

  energy  without entropy=      -24.02324740  energy(sigma->0) =      -23.99784951

 d Force = 0.4620049E-01[-0.711E-01, 0.164E+00]  d Energy = 0.3480381E-01 0.114E-01
 d Force =-0.4849441E+01[-0.512E+01,-0.457E+01]  d Ewald  =-0.4844592E+01-0.485E-02


--------------------------------------------------------------------------------------------------------


    POTLOK:  cpu time    1.7081: real time    1.7122


--------------------------------------------------------------------------------------------------------


           RANDOM_SEED =         578492960               30                0
   IONSTEP:  cpu time    0.0001: real time    0.0001

  ENERGY OF THE ELECTRON-ION-THERMOSTAT SYSTEM (eV)
  ---------------------------------------------------
% ion-electron   TOTEN  =       -23.985151  see above
  kinetic energy EKIN   =         0.085091
  kin. lattice  EKIN_LAT=         0.000000  (temperature  164.57 K)
  nose potential ES     =         0.021442
  nose kinetic   EPS    =         0.024365
  ---------------------------------------------------
  total energy   ETOTAL =       -23.854253 eV

  maximum distance moved by ions :      0.64E-02


 mean value of Nose-termostat <S>:     1.707 mean value of <T> :   164.573
 mean temperature <T/S>/<1/S>  :   164.573

    WAVPRE:  cpu time    0.4813: real time    0.4893
    FEWALD:  cpu time    0.0003: real time    0.0003
    ORTHCH:  cpu time    0.2164: real time    0.2169
 Prediction of Wavefunctions ALPHA= 0.545 BETA= 0.109
    POTLOK:  cpu time    1.6225: real time    1.6263
    EDDIAG:  cpu time    0.3834: real time    0.3843
     LOOP+:  cpu time   80.5420: real time   80.7515
    4ORBIT:  cpu time    0.0000: real time    0.0000

 total amount of memory used by VASP MPI-rank0   323910. kBytes
=======================================================================

   base      :      30000. kBytes
   nonlr-proj:        156. kBytes
   fftplans  :      94700. kBytes
   grid      :     169030. kBytes
   one-center:         15. kBytes
   wavefun   :      30009. kBytes

  
  
 General timing and accounting informations for this job:
 ========================================================
  
                  Total CPU time used (sec):      849.263
                            User time (sec):      833.025
                          System time (sec):       16.239
                         Elapsed time (sec):      854.238
  
                   Maximum memory used (kb):      502764.
                   Average memory used (kb):           0.
  
                          Minor page faults:      2560515
                          Major page faults:            0
                 Voluntary context switches:          390
