 running on    1 total cores
 distrk:  each k-point on    1 cores,    1 groups
 distr:  one band on    1 cores,    1 groups
 using from now: INCAR     
 vasp.5.4.4.18Apr17-6-g9f103f2a35 (build Jul 12 2018 13:43:46) complex           
 POSCAR found type information on POSCAR  H  C 
 POSCAR found :  2 types and       5 ions
 scaLAPACK will be used

 ----------------------------------------------------------------------------- 
|                                                                             |
|  ADVICE TO THIS USER RUNNING 'VASP/VAMP'   (HEAR YOUR MASTER'S VOICE ...):  |
|                                                                             |
|      You have a (more or less) 'small supercell' and for smaller cells      |
|      it is recommended  to use the reciprocal-space projection scheme!      |
|      The real space optimization is not  efficient for small cells and it   |
|      is also less accurate ...                                              |
|      Therefore set LREAL=.FALSE. in the  INCAR file                         |
|                                                                             |
 ----------------------------------------------------------------------------- 


 ----------------------------------------------------------------------------- 
|                                                                             |
|           W    W    AA    RRRRR   N    N  II  N    N   GGGG   !!!           |
|           W    W   A  A   R    R  NN   N  II  NN   N  G    G  !!!           |
|           W    W  A    A  R    R  N N  N  II  N N  N  G       !!!           |
|           W WW W  AAAAAA  RRRRR   N  N N  II  N  N N  G  GGG   !            |
|           WW  WW  A    A  R   R   N   NN  II  N   NN  G    G                |
|           W    W  A    A  R    R  N    N  II  N    N   GGGG   !!!           |
|                                                                             |
|     The real-space-projection scheme for the treatment of the nonlocal      |
|     pseudopotentials has been switched on -- but on file POTCAR I have      |
|     not found any entries signalling me that you have ever performed a      |
|     real-space optimization of all nonlocal projectors! BE WARNED that      |
|     a calculation using the real-space-projection scheme together with      |
|     nonlocal projectors which were not real-space-optimized (according      |
|     to the plane-wave-cutoff used in this calculation) might give more      |
|     or less inaccurate results                                              |
|     I hope you know what you are doing                                      |
|                                                                             |
 ----------------------------------------------------------------------------- 

 LDA part: xc-table for Pade appr. of Perdew
 generate k-points for:    2    2    2
 POSCAR, INCAR and KPOINTS ok, starting setup
 FFT: planning ...
 WAVECAR not read
 prediction of wavefunctions initialized - no I/O
 entering main loop
       N       E                     dE             d eps       ncg     rms          rms(c)
DAV:   1     0.152398591362E+02    0.15240E+02   -0.19504E+03    96   0.411E+02
DAV:   2    -0.223469352344E+02   -0.37587E+02   -0.37587E+02    64   0.112E+02
DAV:   3    -0.269463439902E+02   -0.45994E+01   -0.46091E+01    64   0.460E+01
DAV:   4    -0.271483681689E+02   -0.20202E+00   -0.20183E+00   128   0.108E+01
DAV:   5    -0.271484404800E+02   -0.72311E-04   -0.72309E-04    96   0.225E-01    0.826E+00
RMM:   6    -0.245430139861E+02    0.26054E+01   -0.46803E+00    64   0.131E+01    0.413E+00
RMM:   7    -0.241086762796E+02    0.43434E+00   -0.96527E-01    64   0.565E+00    0.234E+00
RMM:   8    -0.240041186474E+02    0.10456E+00   -0.11218E-01    64   0.211E+00    0.910E-01
RMM:   9    -0.239722201242E+02    0.31899E-01   -0.45246E-02    64   0.159E+00    0.493E-01
RMM:  10    -0.239569127721E+02    0.15307E-01   -0.20774E-02    64   0.817E-01    0.439E-01
RMM:  11    -0.239566194654E+02    0.29331E-03   -0.93358E-03    64   0.617E-01    0.468E-01
RMM:  12    -0.239502687730E+02    0.63507E-02   -0.38300E-03    64   0.428E-01    0.171E-01
RMM:  13    -0.239523969526E+02   -0.21282E-02   -0.17379E-03    64   0.218E-01    0.187E-01
RMM:  14    -0.239548154806E+02   -0.24185E-02   -0.64634E-04    64   0.159E-01    0.826E-02
RMM:  15    -0.239599813406E+02   -0.51659E-02   -0.20608E-03    64   0.269E-01    0.204E-01
RMM:  16    -0.239603711464E+02   -0.38981E-03   -0.49805E-04    64   0.137E-01    0.526E-02
RMM:  17    -0.239616336686E+02   -0.12625E-02   -0.40614E-04    64   0.121E-01    0.131E-01
RMM:  18    -0.239616969019E+02   -0.63233E-04   -0.12711E-04    64   0.681E-02    0.172E-02
RMM:  19    -0.239618119257E+02   -0.11502E-03   -0.18934E-05    67   0.311E-02    0.236E-02
RMM:  20    -0.239619108780E+02   -0.98952E-04   -0.18823E-05    64   0.261E-02    0.863E-03
RMM:  21    -0.239619261577E+02   -0.15280E-04   -0.37107E-06    60   0.120E-02    0.547E-03
RMM:  22    -0.239619428141E+02   -0.16656E-04   -0.42817E-06    60   0.133E-02    0.934E-03
RMM:  23    -0.239619427341E+02    0.79973E-07   -0.52904E-07    48   0.521E-03
    1 T=    60. E= -.23930724E+02 F= -.23961943E+02 E0= -.23974356E+02  EK= 0.31215E-01 SP= 0.00E+00 SK= 0.34E-05
 bond charge predicted
       N       E                     dE             d eps       ncg     rms          rms(c)
DAV:   1    -0.240164886737E+02   -0.54546E-01   -0.20999E+00    64   0.129E+01    0.716E-01
RMM:   2    -0.240123066446E+02    0.41820E-02   -0.34271E-02    64   0.147E+00    0.555E-01
RMM:   3    -0.240168404479E+02   -0.45338E-02   -0.25511E-02    64   0.987E-01    0.554E-01
RMM:   4    -0.240105902894E+02    0.62502E-02   -0.41059E-03    64   0.401E-01    0.450E-01
RMM:   5    -0.240061910846E+02    0.43992E-02   -0.67537E-03    64   0.503E-01    0.360E-01
RMM:   6    -0.240061838680E+02    0.72166E-05   -0.32945E-04    64   0.137E-01    0.357E-01
RMM:   7    -0.240053808088E+02    0.80306E-03   -0.45555E-04    64   0.136E-01    0.355E-01
RMM:   8    -0.240043212416E+02    0.10596E-02   -0.32674E-04    64   0.122E-01    0.334E-01
RMM:   9    -0.240019451523E+02    0.23761E-02   -0.26260E-03    64   0.335E-01    0.181E-01
RMM:  10    -0.240019280342E+02    0.17118E-04   -0.12568E-04    64   0.832E-02    0.189E-01
RMM:  11    -0.240015556708E+02    0.37236E-03   -0.14180E-04    64   0.782E-02    0.147E-01
RMM:  12    -0.240012688140E+02    0.28686E-03   -0.22341E-04    64   0.100E-01    0.954E-02
RMM:  13    -0.240011979956E+02    0.70818E-04   -0.73438E-05    64   0.551E-02    0.778E-02
RMM:  14    -0.240010580868E+02    0.13991E-03   -0.48229E-04    64   0.141E-01    0.222E-02
RMM:  15    -0.240011021499E+02   -0.44063E-04   -0.83101E-05    64   0.617E-02    0.287E-02
RMM:  16    -0.240011170098E+02   -0.14860E-04   -0.26078E-05    64   0.334E-02    0.153E-02
RMM:  17    -0.240011285161E+02   -0.11506E-04   -0.19721E-05    64   0.282E-02    0.180E-02
RMM:  18    -0.240011358565E+02   -0.73405E-05   -0.13166E-05    64   0.246E-02    0.110E-02
RMM:  19    -0.240011377339E+02   -0.18774E-05   -0.29248E-06    56   0.116E-02    0.612E-03
RMM:  20    -0.240011428364E+02   -0.51025E-05   -0.54022E-07    48   0.588E-03    0.415E-03
RMM:  21    -0.240011449444E+02   -0.21080E-05   -0.16002E-06    48   0.918E-03    0.418E-03
RMM:  22    -0.240011451468E+02   -0.20232E-06   -0.17101E-07    48   0.378E-03
    2 T=    94. E= -.23952470E+02 F= -.24001145E+02 E0= -.24013418E+02  EK= 0.48409E-01 SP= 0.13E-03 SK= 0.13E-03
 bond charge predicted
 prediction of wavefunctions
       N       E                     dE             d eps       ncg     rms          rms(c)
DAV:   1    -0.239657699739E+02    0.35375E-01   -0.99051E-01    64   0.956E+00    0.666E-01
RMM:   2    -0.239913104176E+02   -0.25540E-01   -0.94295E-02    64   0.199E+00    0.110E+00
RMM:   3    -0.239679174956E+02    0.23393E-01   -0.10022E-01    64   0.199E+00    0.669E-01
RMM:   4    -0.239565095866E+02    0.11408E-01   -0.22376E-02    64   0.103E+00    0.180E-01
RMM:   5    -0.239560878957E+02    0.42169E-03   -0.18064E-03    64   0.296E-01    0.104E-01
RMM:   6    -0.239561167576E+02   -0.28862E-04   -0.10172E-03    64   0.212E-01    0.663E-02
RMM:   7    -0.239561001829E+02    0.16575E-04   -0.37089E-04    64   0.135E-01    0.386E-02
RMM:   8    -0.239560976928E+02    0.24901E-05   -0.71407E-05    64   0.598E-02    0.182E-02
RMM:   9    -0.239561078786E+02   -0.10186E-04   -0.47421E-05    64   0.447E-02    0.105E-02
RMM:  10    -0.239561229981E+02   -0.15119E-04   -0.20435E-05    64   0.295E-02    0.717E-03
RMM:  11    -0.239561279132E+02   -0.49151E-05   -0.38505E-06    64   0.131E-02    0.810E-03
RMM:  12    -0.239561333390E+02   -0.54259E-05   -0.20133E-06    52   0.103E-02    0.607E-03
RMM:  13    -0.239561346849E+02   -0.13459E-05   -0.22793E-06    52   0.101E-02    0.322E-03
RMM:  14    -0.239561352926E+02   -0.60768E-06   -0.46699E-07    48   0.552E-03
    3 T=    75. E= -.23916040E+02 F= -.23956135E+02 E0= -.23961619E+02  EK= 0.38711E-01 SP= 0.82E-03 SK= 0.56E-03
 bond charge predicted
 prediction of wavefunctions
       N       E                     dE             d eps       ncg     rms          rms(c)
DAV:   1    -0.239609885501E+02   -0.48539E-02   -0.19120E+00    64   0.137E+01    0.710E-01
RMM:   2    -0.239763085954E+02   -0.15320E-01   -0.10306E-01    64   0.243E+00    0.953E-01
RMM:   3    -0.239559830512E+02    0.20326E-01   -0.77995E-02    64   0.182E+00    0.253E-01
RMM:   4    -0.239584730168E+02   -0.24900E-02   -0.51000E-03    64   0.526E-01    0.225E-01
RMM:   5    -0.239586851954E+02   -0.21218E-03   -0.40902E-03    64   0.408E-01    0.173E-01
RMM:   6    -0.239588173991E+02   -0.13220E-03   -0.22187E-04    64   0.118E-01    0.149E-01
RMM:   7    -0.239587069662E+02    0.11043E-03   -0.21381E-04    64   0.942E-02    0.123E-01
RMM:   8    -0.239584693517E+02    0.23761E-03   -0.30681E-04    64   0.114E-01    0.850E-02
RMM:   9    -0.239584772899E+02   -0.79382E-05   -0.57905E-05    64   0.516E-02    0.779E-02
RMM:  10    -0.239583956199E+02    0.81670E-04   -0.95210E-05    64   0.623E-02    0.588E-02
RMM:  11    -0.239583363237E+02    0.59296E-04   -0.54457E-05    64   0.483E-02    0.429E-02
RMM:  12    -0.239583037730E+02    0.32551E-04   -0.31547E-05    64   0.362E-02    0.309E-02
RMM:  13    -0.239582883659E+02    0.15407E-04   -0.27310E-05    64   0.326E-02    0.221E-02
RMM:  14    -0.239582858811E+02    0.24848E-05   -0.76052E-06    64   0.181E-02    0.182E-02
RMM:  15    -0.239582829204E+02    0.29607E-05   -0.91236E-06    64   0.197E-02    0.110E-02
RMM:  16    -0.239582815615E+02    0.13589E-05   -0.29557E-06    56   0.119E-02    0.744E-03
RMM:  17    -0.239582807313E+02    0.83022E-06   -0.22981E-06    52   0.110E-02
    4 T=    95. E= -.23906003E+02 F= -.23958281E+02 E0= -.23962318E+02  EK= 0.49133E-01 SP= 0.18E-02 SK= 0.13E-02
 bond charge predicted
 prediction of wavefunctions
       N       E                     dE             d eps       ncg     rms          rms(c)
DAV:   1    -0.239236551218E+02    0.34626E-01   -0.54473E-01    64   0.751E+00    0.439E-01
RMM:   2    -0.239224582048E+02    0.11969E-02   -0.30022E-02    64   0.149E+00    0.246E-01
RMM:   3    -0.239232703934E+02   -0.81219E-03   -0.65579E-03    64   0.602E-01    0.253E-01
RMM:   4    -0.239249098191E+02   -0.16394E-02   -0.61498E-03    64   0.517E-01    0.235E-01
RMM:   5    -0.239240756746E+02    0.83414E-03   -0.10119E-03    64   0.217E-01    0.134E-01
RMM:   6    -0.239239635963E+02    0.11208E-03   -0.35972E-04    64   0.130E-01    0.916E-02
RMM:   7    -0.239238699929E+02    0.93603E-04   -0.17935E-04    64   0.919E-02    0.623E-02
RMM:   8    -0.239238388543E+02    0.31139E-04   -0.36887E-05    64   0.406E-02    0.518E-02
RMM:   9    -0.239237765729E+02    0.62281E-04   -0.14563E-04    64   0.754E-02    0.235E-02
RMM:  10    -0.239237740104E+02    0.25625E-05   -0.23031E-05    64   0.309E-02    0.152E-02
RMM:  11    -0.239237764712E+02   -0.24607E-05   -0.13098E-05    64   0.239E-02    0.732E-03
RMM:  12    -0.239237774578E+02   -0.98667E-06   -0.33914E-06    56   0.127E-02
    5 T=    75. E= -.23879007E+02 F= -.23923777E+02 E0= -.23927704E+02  EK= 0.38983E-01 SP= 0.34E-02 SK= 0.24E-02
 bond charge predicted
 prediction of wavefunctions
       N       E                     dE             d eps       ncg     rms          rms(c)
DAV:   1    -0.239794510734E+02   -0.55675E-01   -0.11425E+00    64   0.106E+01    0.549E-01
RMM:   2    -0.239971928321E+02   -0.17742E-01   -0.76968E-02    64   0.203E+00    0.562E-01
RMM:   3    -0.240069694075E+02   -0.97766E-02   -0.11367E-01    64   0.211E+00    0.100E+00
RMM:   4    -0.239951521171E+02    0.11817E-01   -0.41229E-02    64   0.135E+00    0.759E-01
RMM:   5    -0.239863122288E+02    0.88399E-02   -0.17415E-02    64   0.838E-01    0.647E-01
RMM:   6    -0.239855777886E+02    0.73444E-03   -0.21663E-02    64   0.891E-01    0.606E-01
RMM:   7    -0.239798046531E+02    0.57731E-02   -0.21513E-03    64   0.323E-01    0.333E-01
RMM:   8    -0.239840128040E+02   -0.42082E-02   -0.58484E-03    64   0.484E-01    0.625E-01
RMM:   9    -0.239783343813E+02    0.56784E-02   -0.27837E-03    64   0.328E-01    0.166E-01
RMM:  10    -0.239789073738E+02   -0.57299E-03   -0.89675E-04    64   0.196E-01    0.182E-01
RMM:  11    -0.239787173769E+02    0.19000E-03   -0.67457E-04    64   0.173E-01    0.734E-02
RMM:  12    -0.239787578390E+02   -0.40462E-04   -0.85349E-05    64   0.659E-02    0.472E-02
RMM:  13    -0.239787701595E+02   -0.12321E-04   -0.38841E-05    64   0.405E-02    0.410E-02
RMM:  14    -0.239787675704E+02    0.25891E-05   -0.71844E-06    64   0.201E-02    0.148E-02
RMM:  15    -0.239787839597E+02   -0.16389E-04   -0.31382E-06    56   0.123E-02    0.115E-02
RMM:  16    -0.239787886212E+02   -0.46615E-05   -0.30051E-06    56   0.110E-02    0.265E-03
RMM:  17    -0.239787910586E+02   -0.24374E-05   -0.38645E-07    48   0.518E-03    0.332E-03
RMM:  18    -0.239787919145E+02   -0.85595E-06   -0.12607E-07    48   0.288E-03
    6 T=   176. E= -.23876359E+02 F= -.23978792E+02 E0= -.23991160E+02  EK= 0.91222E-01 SP= 0.53E-02 SK= 0.59E-02
 bond charge predicted
 prediction of wavefunctions
       N       E                     dE             d eps       ncg     rms          rms(c)
DAV:   1    -0.239513030026E+02    0.27488E-01   -0.99271E-01    64   0.899E+00    0.721E-01
RMM:   2    -0.240441140114E+02   -0.92811E-01   -0.34032E-01    64   0.391E+00    0.155E+00
RMM:   3    -0.242363004944E+02   -0.19219E+00   -0.22378E-01    64   0.294E+00    0.254E+00
RMM:   4    -0.241382282561E+02    0.98072E-01   -0.33578E-02    64   0.117E+00    0.216E+00
RMM:   5    -0.240419359145E+02    0.96292E-01   -0.56446E-02    64   0.149E+00    0.154E+00
RMM:   6    -0.240118297777E+02    0.30106E-01   -0.15152E-02    64   0.796E-01    0.126E+00
RMM:   7    -0.239863429559E+02    0.25487E-01   -0.13270E-02    64   0.735E-01    0.987E-01
RMM:   8    -0.239665785598E+02    0.19764E-01   -0.14187E-02    64   0.753E-01    0.707E-01
RMM:   9    -0.239536714803E+02    0.12907E-01   -0.14773E-02    64   0.781E-01    0.430E-01
RMM:  10    -0.239489542924E+02    0.47172E-02   -0.71789E-03    64   0.545E-01    0.253E-01
RMM:  11    -0.239477882102E+02    0.11661E-02   -0.15207E-03    64   0.259E-01    0.182E-01
RMM:  12    -0.239472942159E+02    0.49399E-03   -0.56044E-04    64   0.158E-01    0.138E-01
RMM:  13    -0.239468968765E+02    0.39734E-03   -0.40697E-04    64   0.129E-01    0.953E-02
RMM:  14    -0.239467087948E+02    0.18808E-03   -0.25428E-04    64   0.101E-01    0.653E-02
RMM:  15    -0.239466181254E+02    0.90669E-04   -0.16076E-04    64   0.812E-02    0.400E-02
RMM:  16    -0.239465938236E+02    0.24302E-04   -0.48571E-05    64   0.448E-02    0.289E-02
RMM:  17    -0.239465769947E+02    0.16829E-04   -0.39421E-05    64   0.397E-02    0.163E-02
RMM:  18    -0.239465728533E+02    0.41413E-05   -0.23605E-05    64   0.309E-02    0.677E-03
RMM:  19    -0.239465738144E+02   -0.96109E-06   -0.15932E-05    64   0.250E-02    0.239E-03
RMM:  20    -0.239465749097E+02   -0.10953E-05   -0.13541E-06    48   0.898E-03    0.250E-03
RMM:  21    -0.239465752502E+02   -0.34051E-06   -0.38303E-07    48   0.514E-03
    7 T=    80. E= -.23885768E+02 F= -.23946575E+02 E0= -.23950927E+02  EK= 0.41211E-01 SP= 0.88E-02 SK= 0.11E-01
 bond charge predicted
 prediction of wavefunctions
       N       E                     dE             d eps       ncg     rms          rms(c)
DAV:   1    -0.239359024125E+02    0.10672E-01   -0.22375E+00    64   0.143E+01    0.104E+00
RMM:   2    -0.239396100545E+02   -0.37076E-02   -0.14408E-01    64   0.286E+00    0.940E-01
RMM:   3    -0.239422107866E+02   -0.26007E-02   -0.52917E-02    64   0.154E+00    0.987E-01
RMM:   4    -0.239297192021E+02    0.12492E-01   -0.36030E-02    64   0.132E+00    0.533E-01
RMM:   5    -0.239375797748E+02   -0.78606E-02   -0.21975E-02    64   0.971E-01    0.634E-01
RMM:   6    -0.239250333410E+02    0.12546E-01   -0.15725E-02    64   0.790E-01    0.295E-01
RMM:   7    -0.239222986966E+02    0.27346E-02   -0.82444E-03    64   0.549E-01    0.960E-02
RMM:   8    -0.239224002838E+02   -0.10159E-03   -0.17515E-03    64   0.270E-01    0.604E-02
RMM:   9    -0.239229130387E+02   -0.51275E-03   -0.22503E-03    64   0.286E-01    0.120E-01
RMM:  10    -0.239225667752E+02    0.34626E-03   -0.29422E-04    64   0.113E-01    0.706E-02
RMM:  11    -0.239224689936E+02    0.97782E-04   -0.12384E-03    64   0.212E-01    0.242E-02
RMM:  12    -0.239224708198E+02   -0.18262E-05   -0.48216E-05    64   0.491E-02    0.446E-03
RMM:  13    -0.239224842471E+02   -0.13427E-04   -0.23424E-06    56   0.114E-02    0.419E-03
RMM:  14    -0.239224927481E+02   -0.85009E-05   -0.40140E-06    64   0.132E-02    0.704E-03
RMM:  15    -0.239224959819E+02   -0.32338E-05   -0.54690E-06    58   0.143E-02    0.165E-03
RMM:  16    -0.239224967117E+02   -0.72984E-06   -0.38555E-07    48   0.450E-03
    8 T=    59. E= -.23867172E+02 F= -.23922497E+02 E0= -.23927007E+02  EK= 0.30417E-01 SP= 0.13E-01 SK= 0.12E-01
 bond charge predicted
 prediction of wavefunctions
       N       E                     dE             d eps       ncg     rms          rms(c)
DAV:   1    -0.239499342043E+02   -0.27438E-01   -0.88619E-01    64   0.939E+00    0.291E-01
RMM:   2    -0.239518581574E+02   -0.19240E-02   -0.16298E-02    64   0.941E-01    0.319E-01
RMM:   3    -0.239927330071E+02   -0.40875E-01   -0.11010E-01    64   0.201E+00    0.965E-01
RMM:   4    -0.239496866818E+02    0.43046E-01   -0.98052E-02    64   0.190E+00    0.114E-01
RMM:   5    -0.239501497426E+02   -0.46306E-03   -0.28309E-03    64   0.366E-01    0.783E-02
RMM:   6    -0.239502494544E+02   -0.99712E-04   -0.28044E-04    64   0.120E-01    0.535E-02
RMM:   7    -0.239501829955E+02    0.66459E-04   -0.53543E-04    64   0.136E-01    0.217E-02
RMM:   8    -0.239504077117E+02   -0.22472E-03   -0.37769E-04    64   0.125E-01    0.603E-02
RMM:   9    -0.239503535895E+02    0.54122E-04   -0.51052E-05    64   0.444E-02    0.396E-02
RMM:  10    -0.239503357185E+02    0.17871E-04   -0.86250E-05    64   0.551E-02    0.186E-02
RMM:  11    -0.239503352590E+02    0.45955E-06   -0.82795E-05    64   0.563E-02    0.611E-03
RMM:  12    -0.239503419570E+02   -0.66981E-05   -0.27434E-06    56   0.134E-02    0.252E-03
RMM:  13    -0.239503459514E+02   -0.39944E-05   -0.15591E-06    48   0.862E-03    0.184E-03
RMM:  14    -0.239503467595E+02   -0.80808E-06   -0.36573E-07    48   0.466E-03
    9 T=   109. E= -.23861785E+02 F= -.23950347E+02 E0= -.23954890E+02  EK= 0.56605E-01 SP= 0.17E-01 SK= 0.15E-01
 bond charge predicted
 prediction of wavefunctions
       N       E                     dE             d eps       ncg     rms          rms(c)
DAV:   1    -0.239995948006E+02   -0.49249E-01   -0.17898E+00    64   0.120E+01    0.831E-01
RMM:   2    -0.240049204354E+02   -0.53256E-02   -0.12373E-01    64   0.245E+00    0.774E-01
RMM:   3    -0.239884013976E+02    0.16519E-01   -0.23412E-02    64   0.102E+00    0.436E-01
RMM:   4    -0.239880914892E+02    0.30991E-03   -0.14183E-02    64   0.868E-01    0.576E-01
RMM:   5    -0.239979816785E+02   -0.98902E-02   -0.44182E-02    64   0.133E+00    0.455E-01
RMM:   6    -0.239877556965E+02    0.10226E-01   -0.61819E-03    64   0.494E-01    0.441E-01
RMM:   7    -0.239847467968E+02    0.30089E-02   -0.71881E-03    64   0.545E-01    0.186E-01
RMM:   8    -0.239862044528E+02   -0.14577E-02   -0.24782E-03    64   0.316E-01    0.315E-01
RMM:   9    -0.239857297663E+02    0.47469E-03   -0.36902E-03    64   0.383E-01    0.294E-01
RMM:  10    -0.239851142779E+02    0.61549E-03   -0.54287E-04    64   0.165E-01    0.115E-01
RMM:  11    -0.239850075959E+02    0.10668E-03   -0.21423E-04    64   0.922E-02    0.364E-02
RMM:  12    -0.239851256293E+02   -0.11803E-03   -0.15013E-04    64   0.807E-02    0.531E-02
RMM:  13    -0.239851105164E+02    0.15113E-04   -0.47098E-05    64   0.481E-02    0.228E-02
RMM:  14    -0.239851306391E+02   -0.20123E-04   -0.18296E-05    64   0.263E-02    0.201E-02
RMM:  15    -0.239851351904E+02   -0.45513E-05   -0.11504E-05    64   0.206E-02    0.158E-02
RMM:  16    -0.239851402729E+02   -0.50825E-05   -0.33109E-06    56   0.129E-02    0.595E-03
RMM:  17    -0.239851469165E+02   -0.66436E-05   -0.42083E-07    48   0.532E-03    0.429E-03
RMM:  18    -0.239851496982E+02   -0.27817E-05   -0.23391E-07    48   0.304E-03    0.289E-03
RMM:  19    -0.239851505676E+02   -0.86942E-06   -0.22944E-07    48   0.294E-03
   10 T=   165. E= -.23854253E+02 F= -.23985151E+02 E0= -.23997850E+02  EK= 0.85091E-01 SP= 0.21E-01 SK= 0.24E-01
 bond charge predicted
 prediction of wavefunctions
 wavefunctions rotated
