<?xml version="1.0" encoding="ISO-8859-1"?>
<modeling>
 <generator>
  <i name="program" type="string">vasp </i>
  <i name="version" type="string">5.4.4.18Apr17-6-g9f103f2a35  </i>
  <i name="subversion" type="string">(build Jul 12 2018 13:43:46) complex            parallel </i>
  <i name="platform" type="string">LinuxGNU </i>
  <i name="date" type="string">2019 06 22 </i>
  <i name="time" type="string">02:17:32 </i>
 </generator>
 <incar>
  <i type="int" name="ISTART">     0</i>
  <i type="string" name="PREC">a</i>
  <i type="string" name="ALGO">fast</i>
  <i type="int" name="MAXMIX">    50</i>
  <i type="int" name="ICHARG">     2</i>
  <i type="int" name="IBRION">     0</i>
  <i name="EDIFF">      0.00000100</i>
  <i type="int" name="NSW">    10</i>
  <i type="int" name="ISIF">     2</i>
  <i type="int" name="ISYM">     0</i>
  <i type="int" name="NBLOCK">     1</i>
  <i type="int" name="KBLOCK">   100</i>
  <i name="ENCUT">    400.00000000</i>
  <i name="POTIM">      2.00000000</i>
  <i name="TEBEG">     50.00000000</i>
  <i name="TEEND">     50.00000000</i>
  <i name="SMASS">      0.00000000</i>
  <i type="logical" name="LREAL"> T  </i>
  <i type="int" name="ISMEAR">     1</i>
  <i name="SIGMA">      0.20000000</i>
  <i name="KSPACING">      0.50000000</i>
  <i type="logical" name="KGAMMA"> F  </i>
  <i name="PSTRESS">      0.00000000</i>
  <i type="logical" name="LWAVE"> F  </i>
  <i type="logical" name="LCHARG"> F  </i>
  <v type="int" name="KPOINT_BSE">    -1     0     0     0</v>
 </incar>
 <structure name="primitive_cell" >
  <crystal>
   <varray name="basis" >
    <v>      10.23121120       0.00000000       0.00000000 </v>
    <v>       0.20240482      10.22041284       0.00000000 </v>
    <v>       0.22392373      -0.03019508      10.26643294 </v>
   </varray>
   <i name="volume">   1073.53216999 </i>
   <varray name="rec_basis" >
    <v>       0.09774014      -0.00193564      -0.00213753 </v>
    <v>      -0.00000000       0.09784341       0.00028777 </v>
    <v>       0.00000000       0.00000000       0.09740481 </v>
   </varray>
  </crystal>
  <varray name="positions" >
   <v>      -0.46181554       0.40657853       0.36041583 </v>
   <v>      -0.49727944       0.46665440       0.44484553 </v>
   <v>       0.39466175       0.48020513       0.43835736 </v>
   <v>      -0.47183321       0.41609558      -0.46115476 </v>
   <v>      -0.44775948      -0.43441105       0.44269338 </v>
  </varray>
 </structure>
 <varray name="primitive_index" >
  <v type="int" >        1 </v>
  <v type="int" >        5 </v>
  <v type="int" >        2 </v>
  <v type="int" >        4 </v>
  <v type="int" >        3 </v>
 </varray>
 <kpoints>
  <generation param="Monkhorst-Pack">
   <v type="int" name="divisions">       2        2        2 </v>
   <v name="usershift">      0.00000000       0.00000000       0.00000000 </v>
   <v name="genvec1">      0.50000000       0.00000000       0.00000000 </v>
   <v name="genvec2">      0.00000000       0.50000000       0.00000000 </v>
   <v name="genvec3">      0.00000000       0.00000000       0.50000000 </v>
   <v name="shift">      0.50000000       0.50000000       0.50000000 </v>
  </generation>
  <varray name="kpointlist" >
   <v>       0.25000000       0.25000000       0.25000000 </v>
   <v>      -0.25000000       0.25000000       0.25000000 </v>
   <v>       0.25000000      -0.25000000       0.25000000 </v>
   <v>      -0.25000000      -0.25000000       0.25000000 </v>
  </varray>
  <varray name="weights" >
   <v>       0.25000000 </v>
   <v>       0.25000000 </v>
   <v>       0.25000000 </v>
   <v>       0.25000000 </v>
  </varray>
 </kpoints>
 <parameters>
  <separator name="general" >
   <i type="string" name="SYSTEM">unknown system</i>
   <i type="logical" name="LCOMPAT"> F  </i>
  </separator>
  <separator name="electronic" >
   <i type="string" name="PREC">a</i>
   <i name="ENMAX">    400.00000000</i>
   <i name="ENAUG">    644.87300000</i>
   <i name="EDIFF">      0.00000100</i>
   <i type="int" name="IALGO">    68</i>
   <i type="int" name="IWAVPR">    12</i>
   <i type="int" name="NBANDS">     8</i>
   <i name="NELECT">      8.00000000</i>
   <i type="int" name="TURBO">     0</i>
   <i type="int" name="IRESTART">     0</i>
   <i type="int" name="NREBOOT">     0</i>
   <i type="int" name="NMIN">     0</i>
   <i name="EREF">      0.00000000</i>
   <separator name="electronic smearing" >
    <i type="int" name="ISMEAR">     1</i>
    <i name="SIGMA">      0.20000000</i>
    <i name="KSPACING">      0.50000000</i>
    <i type="logical" name="KGAMMA"> F  </i>
   </separator>
   <separator name="electronic projectors" >
    <i type="logical" name="LREAL"> T  </i>
    <v name="ROPT">      0.00000000      0.00000000</v>
    <i type="int" name="LMAXPAW">  -100</i>
    <i type="int" name="LMAXMIX">     2</i>
    <i type="logical" name="NLSPLINE"> F  </i>
   </separator>
   <separator name="electronic startup" >
    <i type="int" name="ISTART">     0</i>
    <i type="int" name="ICHARG">     2</i>
    <i type="int" name="INIWAV">     1</i>
   </separator>
   <separator name="electronic spin" >
    <i type="int" name="ISPIN">     1</i>
    <i type="logical" name="LNONCOLLINEAR"> F  </i>
    <v name="MAGMOM">      1.00000000      1.00000000      1.00000000      1.00000000      1.00000000</v>
    <i name="NUPDOWN">     -1.00000000</i>
    <i type="logical" name="LSORBIT"> F  </i>
    <v name="SAXIS">      0.00000000      0.00000000      1.00000000</v>
    <i type="logical" name="LSPIRAL"> F  </i>
    <v name="QSPIRAL">      0.00000000      0.00000000      0.00000000</v>
    <i type="logical" name="LZEROZ"> F  </i>
   </separator>
   <separator name="electronic exchange-correlation" >
    <i type="logical" name="LASPH"> F  </i>
    <i type="logical" name="LMETAGGA"> F  </i>
   </separator>
   <separator name="electronic convergence" >
    <i type="int" name="NELM">    60</i>
    <i type="int" name="NELMDL">    -5</i>
    <i type="int" name="NELMIN">     2</i>
    <i name="ENINI">    400.00000000</i>
    <separator name="electronic convergence detail" >
     <i type="logical" name="LDIAG"> T  </i>
     <i type="logical" name="LSUBROT"> F  </i>
     <i name="WEIMIN">      0.00100000</i>
     <i name="EBREAK">      0.00000003</i>
     <i name="DEPER">      0.30000000</i>
     <i type="int" name="NRMM">     4</i>
     <i name="TIME">      0.40000000</i>
    </separator>
   </separator>
   <separator name="electronic mixer" >
    <i name="AMIX">      0.40000000</i>
    <i name="BMIX">      1.00000000</i>
    <i name="AMIN">      0.10000000</i>
    <i name="AMIX_MAG">      1.60000000</i>
    <i name="BMIX_MAG">      1.00000000</i>
    <separator name="electronic mixer details" >
     <i type="int" name="IMIX">     4</i>
     <i type="logical" name="MIXFIRST"> F  </i>
     <i type="int" name="MAXMIX">    50</i>
     <i name="WC">    100.00000000</i>
     <i type="int" name="INIMIX">     1</i>
     <i type="int" name="MIXPRE">     1</i>
     <i type="int" name="MREMOVE">     5</i>
    </separator>
   </separator>
   <separator name="electronic dipolcorrection" >
    <i type="logical" name="LDIPOL"> F  </i>
    <i type="logical" name="LMONO"> F  </i>
    <i type="int" name="IDIPOL">     0</i>
    <i name="EPSILON">      1.00000000</i>
    <v name="DIPOL">   -100.00000000   -100.00000000   -100.00000000</v>
    <i name="EFIELD">      0.00000000</i>
   </separator>
  </separator>
  <separator name="grids" >
   <i type="int" name="NGX">    70</i>
   <i type="int" name="NGY">    70</i>
   <i type="int" name="NGZ">    70</i>
   <i type="int" name="NGXF">   140</i>
   <i type="int" name="NGYF">   140</i>
   <i type="int" name="NGZF">   140</i>
   <i type="logical" name="ADDGRID"> F  </i>
  </separator>
  <separator name="ionic" >
   <i type="int" name="NSW">    10</i>
   <i type="int" name="IBRION">     0</i>
   <i type="int" name="MDALGO">     0</i>
   <i type="int" name="ISIF">     2</i>
   <i name="PSTRESS">      0.00000000</i>
   <i name="EDIFFG">      0.00001000</i>
   <i type="int" name="NFREE">     0</i>
   <i name="POTIM">      2.00000000</i>
   <i name="SMASS">      0.00154520</i>
   <i name="SCALEE">      1.00000000</i>
  </separator>
  <separator name="ionic md" >
   <i name="TEBEG">     50.00000000</i>
   <i name="TEEND">     50.00000000</i>
   <i type="int" name="NBLOCK">     1</i>
   <i type="int" name="KBLOCK">     1</i>
   <i type="int" name="NPACO">   256</i>
   <i name="APACO">     16.00000000</i>
  </separator>
  <separator name="symmetry" >
   <i type="int" name="ISYM">     0</i>
   <i name="SYMPREC">      0.00001000</i>
  </separator>
  <separator name="dos" >
   <i type="int" name="LORBIT">     0</i>
   <v name="RWIGS">     -1.00000000     -1.00000000</v>
   <i type="int" name="NEDOS">   301</i>
   <i name="EMIN">     10.00000000</i>
   <i name="EMAX">    -10.00000000</i>
   <i name="EFERMI">      0.00000000</i>
  </separator>
  <separator name="writing" >
   <i type="int" name="NWRITE">     2</i>
   <i type="logical" name="LWAVE"> F  </i>
   <i type="logical" name="LDOWNSAMPLE"> F  </i>
   <i type="logical" name="LCHARG"> F  </i>
   <i type="logical" name="LPARD"> F  </i>
   <i type="logical" name="LVTOT"> F  </i>
   <i type="logical" name="LVHAR"> F  </i>
   <i type="logical" name="LELF"> F  </i>
   <i type="logical" name="LOPTICS"> F  </i>
   <v name="STM">      0.00000000      0.00000000      0.00000000      0.00000000      0.00000000      0.00000000      0.00000000</v>
  </separator>
  <separator name="performance" >
   <i type="int" name="NPAR">     1</i>
   <i type="int" name="NSIM">     4</i>
   <i type="int" name="NBLK">    -1</i>
   <i type="logical" name="LPLANE"> T  </i>
   <i type="logical" name="LSCALAPACK"> T  </i>
   <i type="logical" name="LSCAAWARE"> F  </i>
   <i type="logical" name="LSCALU"> F  </i>
   <i type="logical" name="LASYNC"> F  </i>
   <i type="logical" name="LORBITALREAL"> F  </i>
  </separator>
  <separator name="miscellaneous" >
   <i type="int" name="IDIOT">     3</i>
   <i type="int" name="ISPECIAL">     0</i>
   <i type="logical" name="LMUSIC"> F  </i>
   <v name="POMASS">      1.00000000     12.01100000</v>
   <v name="DARWINR">      0.00000000      0.00000000</v>
   <v name="DARWINV">      1.00000000      1.00000000</v>
   <i type="logical" name="LCORR"> T  </i>
  </separator>
  <i type="logical" name="GGA_COMPAT"> T  </i>
  <i type="logical" name="LBERRY"> F  </i>
  <i type="int" name="ICORELEVEL">     0</i>
  <i type="logical" name="LDAU"> F  </i>
  <i type="int" name="I_CONSTRAINED_M">     0</i>
  <separator name="electronic exchange-correlation" >
   <i type="string" name="GGA">--</i>
   <i type="int" name="VOSKOWN">     0</i>
   <i type="logical" name="LHFCALC"> F  </i>
   <i type="string" name="PRECFOCK"></i>
   <i type="logical" name="LSYMGRAD"> F  </i>
   <i type="logical" name="LHFONE"> F  </i>
   <i type="logical" name="LRHFCALC"> F  </i>
   <i type="logical" name="LTHOMAS"> F  </i>
   <i type="logical" name="LMODELHF"> F  </i>
   <i name="ENCUT4O">     -1.00000000</i>
   <i type="int" name="EXXOEP">     0</i>
   <i type="int" name="FOURORBIT">     0</i>
   <i name="AEXX">      0.00000000</i>
   <i name="HFALPHA">      0.00000000</i>
   <i name="MCALPHA">      0.00000000</i>
   <i name="ALDAX">      1.00000000</i>
   <i name="AGGAX">      1.00000000</i>
   <i name="ALDAC">      1.00000000</i>
   <i name="AGGAC">      1.00000000</i>
   <i type="int" name="NKREDX">     1</i>
   <i type="int" name="NKREDY">     1</i>
   <i type="int" name="NKREDZ">     1</i>
   <i type="logical" name="SHIFTRED"> F  </i>
   <i type="logical" name="ODDONLY"> F  </i>
   <i type="logical" name="EVENONLY"> F  </i>
   <i type="int" name="LMAXFOCK">     0</i>
   <i type="int" name="NMAXFOCKAE">     0</i>
   <i type="logical" name="LFOCKAEDFT"> F  </i>
   <i name="HFSCREEN">      0.00000000</i>
   <i name="HFSCREENC">      0.00000000</i>
   <i type="int" name="NBANDSGWLOW">     0</i>
  </separator>
  <separator name="vdW DFT" >
   <i type="logical" name="LUSE_VDW"> F  </i>
   <i name="Zab_VDW">     -0.84910000</i>
   <i name="PARAM1">      0.12340000</i>
   <i name="PARAM2">      1.00000000</i>
   <i name="PARAM3">      0.00000000</i>
  </separator>
  <separator name="model GW" >
   <i type="int" name="MODEL_GW">     0</i>
   <i name="MODEL_EPS0">    128.82386040</i>
   <i name="MODEL_ALPHA">      1.00000000</i>
  </separator>
  <separator name="linear response parameters" >
   <i type="logical" name="LEPSILON"> F  </i>
   <i type="logical" name="LRPA"> F  </i>
   <i type="logical" name="LNABLA"> F  </i>
   <i type="logical" name="LVEL"> F  </i>
   <i type="int" name="KINTER">     0</i>
   <i name="CSHIFT">      0.10000000</i>
   <i name="OMEGAMAX">     -1.00000000</i>
   <i name="DEG_THRESHOLD">      0.00200000</i>
   <i name="RTIME">     -0.10000000</i>
   <i name="WPLASMAI">      0.00000000</i>
   <v name="DFIELD">      0.00000000      0.00000000      0.00000000</v>
   <v name="WPLASMA">      0.00000000      0.00000000      0.00000000      0.00000000      0.00000000      0.00000000      0.00000000      0.00000000      0.00000000</v>
  </separator>
  <separator name="orbital magnetization" >
   <i type="logical" name="NUCIND"> F  </i>
   <v name="MAGPOS">      0.00000000      0.00000000      0.00000000</v>
   <i type="logical" name="LNICSALL"> T  </i>
   <i type="logical" name="ORBITALMAG"> F  </i>
   <i type="logical" name="LMAGBLOCH"> F  </i>
   <i type="logical" name="LCHIMAG"> F  </i>
   <i type="logical" name="LGAUGE"> T  </i>
   <i type="int" name="MAGATOM">     0</i>
   <v name="MAGDIPOL">      0.00000000      0.00000000      0.00000000</v>
   <v name="AVECCONST">      0.00000000      0.00000000      0.00000000</v>
  </separator>
  <separator name="response functions" >
   <i type="logical" name="LADDER"> F  </i>
   <i type="logical" name="LRPAFORCE"> F  </i>
   <i type="logical" name="LFXC"> F  </i>
   <i type="logical" name="LHARTREE"> T  </i>
   <i type="int" name="IBSE">     0</i>
   <v type="int" name="KPOINT">    -1     0     0     0</v>
   <i type="logical" name="LTCTE"> F  </i>
   <i type="logical" name="LTETE"> F  </i>
   <i type="logical" name="LTRIPLET"> F  </i>
   <i type="logical" name="LFXCEPS"> F  </i>
   <i type="logical" name="LFXHEG"> F  </i>
   <i type="int" name="NATURALO">     2</i>
   <i type="logical" name="L2ORDER"> F  </i>
   <i type="logical" name="LMP2LT"> F  </i>
   <i type="logical" name="LUSEW"> F  </i>
   <i name="ENCUTGW">     -2.00000000</i>
   <i name="ENCUTGWSOFT">     -2.00000000</i>
   <i name="ENCUTLF">     -1.00000000</i>
   <i type="int" name="LMAXMP2">    -1</i>
   <i name="SCISSOR">      0.00000000</i>
   <i type="int" name="NOMEGA">     0</i>
   <i type="int" name="NOMEGAR">     0</i>
   <i type="int" name="NBANDSGW">    -1</i>
   <i type="int" name="NBANDSO">    -1</i>
   <i type="int" name="NBANDSV">    -1</i>
   <i type="int" name="NELM">     1</i>
   <i type="int" name="NELMHF">     1</i>
   <i type="int" name="DIM">     3</i>
   <i type="int" name="ANTIRES">     0</i>
   <i name="OMEGAMAX">    -30.00000000</i>
   <i name="OMEGAMIN">    -30.00000000</i>
   <i name="OMEGATL">   -200.00000000</i>
   <i type="int" name="OMEGAGRID">   140</i>
   <i name="CSHIFT">     -0.10000000</i>
   <i type="logical" name="SELFENERGY"> F  </i>
   <i type="logical" name="LSPECTRAL"> F  </i>
   <i type="logical" name="LSPECTRALGW"> F  </i>
   <i type="logical" name="LSINGLES"> F  </i>
   <i type="logical" name="LFERMIGW"> F  </i>
   <i type="logical" name="ODDONLYGW"> F  </i>
   <i type="logical" name="EVENONLYGW"> F  </i>
   <i type="int" name="NKREDLFX">     1</i>
   <i type="int" name="NKREDLFY">     1</i>
   <i type="int" name="NKREDLFZ">     1</i>
   <i type="int" name="MAXMEM">  2800</i>
   <i type="int" name="TELESCOPE">     0</i>
   <i type="int" name="TAUPAR">     1</i>
   <i type="int" name="OMEGAPAR">    -1</i>
   <i name="LAMBDA">      1.00000000</i>
  </separator>
  <separator name="External order field" >
   <i name="OFIELD_KAPPA">      0.00000000</i>
   <v name="OFIELD_K">      0.00000000      0.00000000      0.00000000</v>
   <i name="OFIELD_Q6_NEAR">      0.00000000</i>
   <i name="OFIELD_Q6_FAR">      0.00000000</i>
   <i name="OFIELD_A">      0.00000000</i>
  </separator>
 </parameters>
 <atominfo>
  <atoms>       5 </atoms>
  <types>       2 </types>
  <array name="atoms" >
   <dimension dim="1">ion</dimension>
   <field type="string">element</field>
   <field type="int">atomtype</field>
   <set>
    <rc><c>H </c><c>   1</c></rc>
    <rc><c>H </c><c>   1</c></rc>
    <rc><c>H </c><c>   1</c></rc>
    <rc><c>H </c><c>   1</c></rc>
    <rc><c>C </c><c>   2</c></rc>
   </set>
  </array>
  <array name="atomtypes" >
   <dimension dim="1">type</dimension>
   <field type="int">atomspertype</field>
   <field type="string">element</field>
   <field>mass</field>
   <field>valence</field>
   <field type="string">pseudopotential</field>
   <set>
    <rc><c>   4</c><c>H </c><c>      1.00000000</c><c>      1.00000000</c><c>  PAW_PBE H 15Jun2001                   </c></rc>
    <rc><c>   1</c><c>C </c><c>     12.01100000</c><c>      4.00000000</c><c>  PAW_PBE C 08Apr2002                   </c></rc>
   </set>
  </array>
 </atominfo>
 <structure name="initialpos" >
  <crystal>
   <varray name="basis" >
    <v>      10.23121120       0.00000000       0.00000000 </v>
    <v>       0.20240482      10.22041284       0.00000000 </v>
    <v>       0.22392373      -0.03019508      10.26643294 </v>
   </varray>
   <i name="volume">   1073.53216999 </i>
   <varray name="rec_basis" >
    <v>       0.09774014      -0.00193564      -0.00213753 </v>
    <v>      -0.00000000       0.09784341       0.00028777 </v>
    <v>       0.00000000       0.00000000       0.09740481 </v>
   </varray>
  </crystal>
  <varray name="positions" >
   <v>       0.53818446       0.40657853       0.36041583 </v>
   <v>       0.39466175       0.48020513       0.43835736 </v>
   <v>       0.55224052       0.56558895       0.44269338 </v>
   <v>       0.52816679       0.41609558       0.53884524 </v>
   <v>       0.50272056       0.46665440       0.44484553 </v>
  </varray>
  <varray name="velocities" >
   <v>       0.00111230      -0.00299283       0.00044204 </v>
   <v>      -0.00168444      -0.00004996      -0.00091919 </v>
   <v>      -0.00035074       0.00167457       0.00026201 </v>
   <v>      -0.00001465       0.00066045      -0.00115679 </v>
   <v>       0.00007806       0.00005893       0.00011422 </v>
  </varray>
 </structure>
 <calculation>
  <scstep>
   <time name="dav">    2.95    2.96</time>
   <time name="total">    4.71    4.73</time>
   <energy>
    <i name="alphaZ">      0.22565769 </i>
    <i name="ewald">    125.54673118 </i>
    <i name="hartreedc">   -243.61661353 </i>
    <i name="XCdc">     21.86115221 </i>
    <i name="pawpsdc">    117.05815612 </i>
    <i name="pawaedc">   -117.66307307 </i>
    <i name="eentropy">      0.00289895 </i>
    <i name="bandstr">    -85.21680496 </i>
    <i name="atom">    197.04175453 </i>
    <i name="e_fr_energy">     15.23985914 </i>
    <i name="e_wo_entrp">     15.23696018 </i>
    <i name="e_0_energy">     15.23889282 </i>
   </energy>
  </scstep>
  <scstep>
   <time name="dav">    2.23    2.24</time>
   <time name="total">    2.23    2.24</time>
   <energy>
    <i name="e_fr_energy">    -22.34693523 </i>
    <i name="e_wo_entrp">    -22.35116400 </i>
    <i name="e_0_energy">    -22.34834482 </i>
   </energy>
  </scstep>
  <scstep>
   <time name="dav">    2.20    2.20</time>
   <time name="total">    2.20    2.21</time>
   <energy>
    <i name="e_fr_energy">    -26.94634399 </i>
    <i name="e_wo_entrp">    -26.97183084 </i>
    <i name="e_0_energy">    -26.95483961 </i>
   </energy>
  </scstep>
  <scstep>
   <time name="dav">    3.97    3.98</time>
   <time name="total">    3.97    3.98</time>
   <energy>
    <i name="e_fr_energy">    -27.14836817 </i>
    <i name="e_wo_entrp">    -27.17355962 </i>
    <i name="e_0_energy">    -27.15676532 </i>
   </energy>
  </scstep>
  <scstep>
   <time name="dav">    3.07    3.08</time>
   <time name="total">    3.34    3.34</time>
   <energy>
    <i name="e_fr_energy">    -27.14844048 </i>
    <i name="e_wo_entrp">    -27.17363185 </i>
    <i name="e_0_energy">    -27.15683760 </i>
   </energy>
  </scstep>
  <scstep>
   <time name="diag">    0.49    0.49</time>
   <time name="diis">    1.56    1.56</time>
   <time name="orth">    0.01    0.01</time>
   <time name="total">    4.20    4.21</time>
   <energy>
    <i name="e_fr_energy">    -24.54301399 </i>
    <i name="e_wo_entrp">    -24.58040014 </i>
    <i name="e_0_energy">    -24.55547604 </i>
   </energy>
  </scstep>
  <scstep>
   <time name="diag">    0.48    0.48</time>
   <time name="diis">    1.56    1.56</time>
   <time name="orth">    0.01    0.01</time>
   <time name="total">    4.23    4.24</time>
   <energy>
    <i name="e_fr_energy">    -24.10867628 </i>
    <i name="e_wo_entrp">    -24.14712602 </i>
    <i name="e_0_energy">    -24.12149286 </i>
   </energy>
  </scstep>
  <scstep>
   <time name="diag">    0.47    0.47</time>
   <time name="diis">    1.60    1.60</time>
   <time name="orth">    0.01    0.01</time>
   <time name="total">    4.25    4.26</time>
   <energy>
    <i name="e_fr_energy">    -24.00411865 </i>
    <i name="e_wo_entrp">    -24.02786058 </i>
    <i name="e_0_energy">    -24.01203263 </i>
   </energy>
  </scstep>
  <scstep>
   <time name="diag">    0.48    0.48</time>
   <time name="diis">    1.64    1.64</time>
   <time name="orth">    0.01    0.01</time>
   <time name="total">    4.28    4.29</time>
   <energy>
    <i name="e_fr_energy">    -23.97222012 </i>
    <i name="e_wo_entrp">    -23.99814287 </i>
    <i name="e_0_energy">    -23.98086104 </i>
   </energy>
  </scstep>
  <scstep>
   <time name="diag">    0.48    0.48</time>
   <time name="diis">    1.66    1.66</time>
   <time name="orth">    0.01    0.01</time>
   <time name="total">    4.26    4.27</time>
   <energy>
    <i name="e_fr_energy">    -23.95691277 </i>
    <i name="e_wo_entrp">    -23.99580041 </i>
    <i name="e_0_energy">    -23.96987532 </i>
   </energy>
  </scstep>
  <scstep>
   <time name="diag">    0.50    0.50</time>
   <time name="diis">    1.63    1.63</time>
   <time name="orth">    0.01    0.01</time>
   <time name="total">    4.28    4.29</time>
   <energy>
    <i name="e_fr_energy">    -23.95661947 </i>
    <i name="e_wo_entrp">    -23.99396503 </i>
    <i name="e_0_energy">    -23.96906799 </i>
   </energy>
  </scstep>
  <scstep>
   <time name="diag">    0.48    0.49</time>
   <time name="diis">    1.65    1.65</time>
   <time name="orth">    0.01    0.01</time>
   <time name="total">    4.19    4.20</time>
   <energy>
    <i name="e_fr_energy">    -23.95026877 </i>
    <i name="e_wo_entrp">    -23.98723999 </i>
    <i name="e_0_energy">    -23.96259251 </i>
   </energy>
  </scstep>
  <scstep>
   <time name="diag">    0.49    0.49</time>
   <time name="diis">    1.65    1.66</time>
   <time name="orth">    0.01    0.01</time>
   <time name="total">    4.18    4.19</time>
   <energy>
    <i name="e_fr_energy">    -23.95239695 </i>
    <i name="e_wo_entrp">    -23.98934748 </i>
    <i name="e_0_energy">    -23.96471379 </i>
   </energy>
  </scstep>
  <scstep>
   <time name="diag">    0.51    0.51</time>
   <time name="diis">    1.64    1.64</time>
   <time name="orth">    0.01    0.01</time>
   <time name="total">    4.16    4.17</time>
   <energy>
    <i name="e_fr_energy">    -23.95481548 </i>
    <i name="e_wo_entrp">    -23.99224355 </i>
    <i name="e_0_energy">    -23.96729150 </i>
   </energy>
  </scstep>
  <scstep>
   <time name="diag">    0.50    0.51</time>
   <time name="diis">    1.62    1.63</time>
   <time name="orth">    0.01    0.01</time>
   <time name="total">    4.06    4.07</time>
   <energy>
    <i name="e_fr_energy">    -23.95998134 </i>
    <i name="e_wo_entrp">    -23.99808356 </i>
    <i name="e_0_energy">    -23.97268208 </i>
   </energy>
  </scstep>
  <scstep>
   <time name="diag">    0.49    0.49</time>
   <time name="diis">    1.62    1.62</time>
   <time name="orth">    0.01    0.01</time>
   <time name="total">    4.07    4.08</time>
   <energy>
    <i name="e_fr_energy">    -23.96037115 </i>
    <i name="e_wo_entrp">    -23.99747419 </i>
    <i name="e_0_energy">    -23.97273883 </i>
   </energy>
  </scstep>
  <scstep>
   <time name="diag">    0.48    0.48</time>
   <time name="diis">    1.65    1.66</time>
   <time name="orth">    0.01    0.01</time>
   <time name="total">    4.08    4.09</time>
   <energy>
    <i name="e_fr_energy">    -23.96163367 </i>
    <i name="e_wo_entrp">    -23.99861240 </i>
    <i name="e_0_energy">    -23.97395991 </i>
   </energy>
  </scstep>
  <scstep>
   <time name="diag">    0.49    0.49</time>
   <time name="diis">    1.64    1.64</time>
   <time name="orth">    0.01    0.01</time>
   <time name="total">    4.02    4.03</time>
   <energy>
    <i name="e_fr_energy">    -23.96169690 </i>
    <i name="e_wo_entrp">    -23.99889052 </i>
    <i name="e_0_energy">    -23.97409477 </i>
   </energy>
  </scstep>
  <scstep>
   <time name="diag">    0.49    0.49</time>
   <time name="diis">    1.68    1.68</time>
   <time name="orth">    0.01    0.01</time>
   <time name="total">    4.07    4.08</time>
   <energy>
    <i name="e_fr_energy">    -23.96181193 </i>
    <i name="e_wo_entrp">    -23.99898056 </i>
    <i name="e_0_energy">    -23.97420147 </i>
   </energy>
  </scstep>
  <scstep>
   <time name="diag">    0.47    0.47</time>
   <time name="diis">    1.63    1.64</time>
   <time name="orth">    0.01    0.01</time>
   <time name="total">    4.03    4.04</time>
   <energy>
    <i name="e_fr_energy">    -23.96191088 </i>
    <i name="e_wo_entrp">    -23.99912750 </i>
    <i name="e_0_energy">    -23.97431642 </i>
   </energy>
  </scstep>
  <scstep>
   <time name="diag">    0.49    0.49</time>
   <time name="diis">    1.54    1.54</time>
   <time name="orth">    0.01    0.01</time>
   <time name="total">    3.95    3.96</time>
   <energy>
    <i name="e_fr_energy">    -23.96192616 </i>
    <i name="e_wo_entrp">    -23.99914233 </i>
    <i name="e_0_energy">    -23.97433155 </i>
   </energy>
  </scstep>
  <scstep>
   <time name="diag">    0.48    0.48</time>
   <time name="diis">    1.46    1.46</time>
   <time name="orth">    0.01    0.01</time>
   <time name="total">    3.93    3.94</time>
   <energy>
    <i name="e_fr_energy">    -23.96194281 </i>
    <i name="e_wo_entrp">    -23.99919983 </i>
    <i name="e_0_energy">    -23.97436182 </i>
   </energy>
  </scstep>
  <scstep>
   <time name="diag">    0.48    0.48</time>
   <time name="diis">    1.21    1.21</time>
   <time name="orth">    0.01    0.01</time>
   <time name="total">    3.43    3.43</time>
   <energy>
    <i name="alphaZ">      0.22565769 </i>
    <i name="ewald">    125.54673118 </i>
    <i name="hartreedc">   -281.98001583 </i>
    <i name="XCdc">     24.45755447 </i>
    <i name="pawpsdc">    432.52389844 </i>
    <i name="pawaedc">   -433.29169685 </i>
    <i name="eentropy">      0.03723981 </i>
    <i name="bandstr">    -88.52306618 </i>
    <i name="atom">    197.04175453 </i>
    <i name="e_fr_energy">    -23.96194273 </i>
    <i name="e_wo_entrp">    -23.99918255 </i>
    <i name="e_0_energy">    -23.97435600 </i>
   </energy>
  </scstep>
  <structure>
   <crystal>
    <varray name="basis" >
     <v>      10.23121120       0.00000000       0.00000000 </v>
     <v>       0.20240482      10.22041284       0.00000000 </v>
     <v>       0.22392373      -0.03019508      10.26643294 </v>
    </varray>
    <i name="volume">   1073.53216999 </i>
    <varray name="rec_basis" >
     <v>       0.09774014      -0.00193564      -0.00213753 </v>
     <v>      -0.00000000       0.09784341       0.00028777 </v>
     <v>       0.00000000       0.00000000       0.09740481 </v>
    </varray>
   </crystal>
   <varray name="positions" >
    <v>       0.53818446       0.40657853       0.36041583 </v>
    <v>       0.39466175       0.48020513       0.43835736 </v>
    <v>       0.55224052       0.56558895       0.44269338 </v>
    <v>       0.52816679       0.41609558       0.53884524 </v>
    <v>       0.50272056       0.46665440       0.44484553 </v>
   </varray>
  </structure>
  <varray name="forces" >
   <v>      -0.21783114       0.15649339       0.56432059 </v>
   <v>       0.38760500       0.17176521       0.27631321 </v>
   <v>      -0.71227647      -0.84693099       0.30937037 </v>
   <v>      -0.41617940       0.41012381      -0.61662736 </v>
   <v>      -0.51012652       1.80415488      -0.43942919 </v>
  </varray>
  <varray name="stress" >
   <v>      -1.88067651      -0.59195889       0.25688083 </v>
   <v>      -0.59195889      -1.96753694       0.11534009 </v>
   <v>       0.25688083       0.11534010      -1.67485536 </v>
  </varray>
  <energy>
   <i name="e_fr_energy">    -23.96194273 </i>
   <i name="e_wo_entrp">    -23.97435600 </i>
   <i name="e_0_energy">      0.03723981 </i>
   <i name="kinetic">      0.03121498 </i>
   <i name="lattice kinetic">      0.00000000 </i>
   <i name="nosepot">      0.00000000 </i>
   <i name="nosekinetic">      0.00000344 </i>
   <i name="total">    -23.93072432 </i>
  </energy>
  <dos>
   <i name="efermi">     -9.00023977 </i>
   <total>
    <array>
     <dimension dim="1">gridpoints</dimension>
     <dimension dim="2">spin</dimension>
     <field>energy</field>
     <field>total</field>
     <field>integrated</field>
     <set>
      <set comment="spin 1">
       <r>   -18.6911     0.0000     0.0000 </r>
       <r>   -18.6199     0.0000     0.0000 </r>
       <r>   -18.5487     0.0000     0.0000 </r>
       <r>   -18.4775     0.0000     0.0000 </r>
       <r>   -18.4063     0.0000     0.0000 </r>
       <r>   -18.3351    -0.0000    -0.0000 </r>
       <r>   -18.2639    -0.0000    -0.0000 </r>
       <r>   -18.1927    -0.0000    -0.0000 </r>
       <r>   -18.1215    -0.0000    -0.0000 </r>
       <r>   -18.0503    -0.0000    -0.0000 </r>
       <r>   -17.9791    -0.0000    -0.0000 </r>
       <r>   -17.9079    -0.0000    -0.0000 </r>
       <r>   -17.8367    -0.0000    -0.0000 </r>
       <r>   -17.7655    -0.0000    -0.0000 </r>
       <r>   -17.6943    -0.0000    -0.0000 </r>
       <r>   -17.6231    -0.0000    -0.0000 </r>
       <r>   -17.5519    -0.0000    -0.0000 </r>
       <r>   -17.4806    -0.0000    -0.0000 </r>
       <r>   -17.4094    -0.0001    -0.0000 </r>
       <r>   -17.3382    -0.0006    -0.0000 </r>
       <r>   -17.2670    -0.0044    -0.0004 </r>
       <r>   -17.1958    -0.0242    -0.0021 </r>
       <r>   -17.1246    -0.0966    -0.0090 </r>
       <r>   -17.0534    -0.2669    -0.0280 </r>
       <r>   -16.9822    -0.4379    -0.0591 </r>
       <r>   -16.9110    -0.0858    -0.0652 </r>
       <r>   -16.8398     1.6401     0.0515 </r>
       <r>   -16.7686     4.8266     0.3952 </r>
       <r>   -16.6974     7.7397     0.9463 </r>
       <r>   -16.6262     8.0314     1.5181 </r>
       <r>   -16.5550     5.4415     1.9056 </r>
       <r>   -16.4838     2.1263     2.0570 </r>
       <r>   -16.4126     0.0999     2.0641 </r>
       <r>   -16.3414    -0.4369     2.0330 </r>
       <r>   -16.2702    -0.3053     2.0113 </r>
       <r>   -16.1990    -0.1192     2.0028 </r>
       <r>   -16.1278    -0.0317     2.0005 </r>
       <r>   -16.0566    -0.0061     2.0001 </r>
       <r>   -15.9854    -0.0009     2.0000 </r>
       <r>   -15.9142    -0.0001     2.0000 </r>
       <r>   -15.8430    -0.0000     2.0000 </r>
       <r>   -15.7718    -0.0000     2.0000 </r>
       <r>   -15.7006    -0.0000     2.0000 </r>
       <r>   -15.6294    -0.0000     2.0000 </r>
       <r>   -15.5582    -0.0000     2.0000 </r>
       <r>   -15.4870    -0.0000     2.0000 </r>
       <r>   -15.4158    -0.0000     2.0000 </r>
       <r>   -15.3446     0.0000     2.0000 </r>
       <r>   -15.2734     0.0000     2.0000 </r>
       <r>   -15.2022     0.0000     2.0000 </r>
       <r>   -15.1310     0.0000     2.0000 </r>
       <r>   -15.0598     0.0000     2.0000 </r>
       <r>   -14.9886     0.0000     2.0000 </r>
       <r>   -14.9174     0.0000     2.0000 </r>
       <r>   -14.8462     0.0000     2.0000 </r>
       <r>   -14.7750     0.0000     2.0000 </r>
       <r>   -14.7038     0.0000     2.0000 </r>
       <r>   -14.6326     0.0000     2.0000 </r>
       <r>   -14.5613     0.0000     2.0000 </r>
       <r>   -14.4901     0.0000     2.0000 </r>
       <r>   -14.4189     0.0000     2.0000 </r>
       <r>   -14.3477     0.0000     2.0000 </r>
       <r>   -14.2765     0.0000     2.0000 </r>
       <r>   -14.2053     0.0000     2.0000 </r>
       <r>   -14.1341     0.0000     2.0000 </r>
       <r>   -14.0629     0.0000     2.0000 </r>
       <r>   -13.9917     0.0000     2.0000 </r>
       <r>   -13.9205     0.0000     2.0000 </r>
       <r>   -13.8493     0.0000     2.0000 </r>
       <r>   -13.7781     0.0000     2.0000 </r>
       <r>   -13.7069     0.0000     2.0000 </r>
       <r>   -13.6357     0.0000     2.0000 </r>
       <r>   -13.5645     0.0000     2.0000 </r>
       <r>   -13.4933     0.0000     2.0000 </r>
       <r>   -13.4221     0.0000     2.0000 </r>
       <r>   -13.3509     0.0000     2.0000 </r>
       <r>   -13.2797     0.0000     2.0000 </r>
       <r>   -13.2085     0.0000     2.0000 </r>
       <r>   -13.1373     0.0000     2.0000 </r>
       <r>   -13.0661     0.0000     2.0000 </r>
       <r>   -12.9949     0.0000     2.0000 </r>
       <r>   -12.9237     0.0000     2.0000 </r>
       <r>   -12.8525     0.0000     2.0000 </r>
       <r>   -12.7813     0.0000     2.0000 </r>
       <r>   -12.7101     0.0000     2.0000 </r>
       <r>   -12.6389     0.0000     2.0000 </r>
       <r>   -12.5677     0.0000     2.0000 </r>
       <r>   -12.4965     0.0000     2.0000 </r>
       <r>   -12.4253     0.0000     2.0000 </r>
       <r>   -12.3541     0.0000     2.0000 </r>
       <r>   -12.2829     0.0000     2.0000 </r>
       <r>   -12.2117     0.0000     2.0000 </r>
       <r>   -12.1405     0.0000     2.0000 </r>
       <r>   -12.0693     0.0000     2.0000 </r>
       <r>   -11.9981     0.0000     2.0000 </r>
       <r>   -11.9269     0.0000     2.0000 </r>
       <r>   -11.8557     0.0000     2.0000 </r>
       <r>   -11.7845     0.0000     2.0000 </r>
       <r>   -11.7133     0.0000     2.0000 </r>
       <r>   -11.6420     0.0000     2.0000 </r>
       <r>   -11.5708     0.0000     2.0000 </r>
       <r>   -11.4996     0.0000     2.0000 </r>
       <r>   -11.4284     0.0000     2.0000 </r>
       <r>   -11.3572     0.0000     2.0000 </r>
       <r>   -11.2860     0.0000     2.0000 </r>
       <r>   -11.2148     0.0000     2.0000 </r>
       <r>   -11.1436     0.0000     2.0000 </r>
       <r>   -11.0724     0.0000     2.0000 </r>
       <r>   -11.0012     0.0000     2.0000 </r>
       <r>   -10.9300     0.0000     2.0000 </r>
       <r>   -10.8588    -0.0000     2.0000 </r>
       <r>   -10.7876    -0.0000     2.0000 </r>
       <r>   -10.7164    -0.0000     2.0000 </r>
       <r>   -10.6452    -0.0000     2.0000 </r>
       <r>   -10.5740    -0.0000     2.0000 </r>
       <r>   -10.5028    -0.0000     2.0000 </r>
       <r>   -10.4316    -0.0000     2.0000 </r>
       <r>   -10.3604    -0.0000     2.0000 </r>
       <r>   -10.2892    -0.0000     2.0000 </r>
       <r>   -10.2180    -0.0000     2.0000 </r>
       <r>   -10.1468    -0.0000     2.0000 </r>
       <r>   -10.0756    -0.0000     2.0000 </r>
       <r>   -10.0044    -0.0000     2.0000 </r>
       <r>    -9.9332    -0.0002     2.0000 </r>
       <r>    -9.8620    -0.0021     1.9998 </r>
       <r>    -9.7908    -0.0138     1.9988 </r>
       <r>    -9.7196    -0.0678     1.9940 </r>
       <r>    -9.6484    -0.2452     1.9766 </r>
       <r>    -9.5772    -0.6238     1.9321 </r>
       <r>    -9.5060    -0.9632     1.8636 </r>
       <r>    -9.4348    -0.1733     1.8512 </r>
       <r>    -9.3636     3.5605     2.1047 </r>
       <r>    -9.2924    10.9244     2.8826 </r>
       <r>    -9.2212    19.1173     4.2438 </r>
       <r>    -9.1500    22.7620     5.8645 </r>
       <r>    -9.0788    18.9209     7.2117 </r>
       <r>    -9.0076    10.4747     7.9575 </r>
       <r>    -8.9364     3.0304     8.1733 </r>
       <r>    -8.8652    -0.5096     8.1370 </r>
       <r>    -8.7940    -1.0524     8.0621 </r>
       <r>    -8.7227    -0.5973     8.0195 </r>
       <r>    -8.6515    -0.2111     8.0045 </r>
       <r>    -8.5803    -0.0524     8.0008 </r>
       <r>    -8.5091    -0.0096     8.0001 </r>
       <r>    -8.4379    -0.0013     8.0000 </r>
       <r>    -8.3667    -0.0001     8.0000 </r>
       <r>    -8.2955    -0.0000     8.0000 </r>
       <r>    -8.2243    -0.0000     8.0000 </r>
       <r>    -8.1531    -0.0000     8.0000 </r>
       <r>    -8.0819    -0.0000     8.0000 </r>
       <r>    -8.0107    -0.0000     8.0000 </r>
       <r>    -7.9395    -0.0000     8.0000 </r>
       <r>    -7.8683    -0.0000     8.0000 </r>
       <r>    -7.7971     0.0000     8.0000 </r>
       <r>    -7.7259     0.0000     8.0000 </r>
       <r>    -7.6547     0.0000     8.0000 </r>
       <r>    -7.5835     0.0000     8.0000 </r>
       <r>    -7.5123     0.0000     8.0000 </r>
       <r>    -7.4411     0.0000     8.0000 </r>
       <r>    -7.3699     0.0000     8.0000 </r>
       <r>    -7.2987     0.0000     8.0000 </r>
       <r>    -7.2275     0.0000     8.0000 </r>
       <r>    -7.1563     0.0000     8.0000 </r>
       <r>    -7.0851     0.0000     8.0000 </r>
       <r>    -7.0139     0.0000     8.0000 </r>
       <r>    -6.9427     0.0000     8.0000 </r>
       <r>    -6.8715     0.0000     8.0000 </r>
       <r>    -6.8003     0.0000     8.0000 </r>
       <r>    -6.7291     0.0000     8.0000 </r>
       <r>    -6.6579     0.0000     8.0000 </r>
       <r>    -6.5867     0.0000     8.0000 </r>
       <r>    -6.5155     0.0000     8.0000 </r>
       <r>    -6.4443     0.0000     8.0000 </r>
       <r>    -6.3731     0.0000     8.0000 </r>
       <r>    -6.3019     0.0000     8.0000 </r>
       <r>    -6.2307     0.0000     8.0000 </r>
       <r>    -6.1595     0.0000     8.0000 </r>
       <r>    -6.0883     0.0000     8.0000 </r>
       <r>    -6.0171     0.0000     8.0000 </r>
       <r>    -5.9459     0.0000     8.0000 </r>
       <r>    -5.8747     0.0000     8.0000 </r>
       <r>    -5.8034     0.0000     8.0000 </r>
       <r>    -5.7322     0.0000     8.0000 </r>
       <r>    -5.6610     0.0000     8.0000 </r>
       <r>    -5.5898     0.0000     8.0000 </r>
       <r>    -5.5186     0.0000     8.0000 </r>
       <r>    -5.4474     0.0000     8.0000 </r>
       <r>    -5.3762     0.0000     8.0000 </r>
       <r>    -5.3050     0.0000     8.0000 </r>
       <r>    -5.2338     0.0000     8.0000 </r>
       <r>    -5.1626     0.0000     8.0000 </r>
       <r>    -5.0914     0.0000     8.0000 </r>
       <r>    -5.0202     0.0000     8.0000 </r>
       <r>    -4.9490     0.0000     8.0000 </r>
       <r>    -4.8778     0.0000     8.0000 </r>
       <r>    -4.8066     0.0000     8.0000 </r>
       <r>    -4.7354     0.0000     8.0000 </r>
       <r>    -4.6642     0.0000     8.0000 </r>
       <r>    -4.5930     0.0000     8.0000 </r>
       <r>    -4.5218     0.0000     8.0000 </r>
       <r>    -4.4506     0.0000     8.0000 </r>
       <r>    -4.3794     0.0000     8.0000 </r>
       <r>    -4.3082     0.0000     8.0000 </r>
       <r>    -4.2370     0.0000     8.0000 </r>
       <r>    -4.1658     0.0000     8.0000 </r>
       <r>    -4.0946     0.0000     8.0000 </r>
       <r>    -4.0234     0.0000     8.0000 </r>
       <r>    -3.9522     0.0000     8.0000 </r>
       <r>    -3.8810     0.0000     8.0000 </r>
       <r>    -3.8098     0.0000     8.0000 </r>
       <r>    -3.7386     0.0000     8.0000 </r>
       <r>    -3.6674     0.0000     8.0000 </r>
       <r>    -3.5962     0.0000     8.0000 </r>
       <r>    -3.5250     0.0000     8.0000 </r>
       <r>    -3.4538     0.0000     8.0000 </r>
       <r>    -3.3826     0.0000     8.0000 </r>
       <r>    -3.3114     0.0000     8.0000 </r>
       <r>    -3.2402     0.0000     8.0000 </r>
       <r>    -3.1690     0.0000     8.0000 </r>
       <r>    -3.0978     0.0000     8.0000 </r>
       <r>    -3.0266     0.0000     8.0000 </r>
       <r>    -2.9554     0.0000     8.0000 </r>
       <r>    -2.8842     0.0000     8.0000 </r>
       <r>    -2.8129     0.0000     8.0000 </r>
       <r>    -2.7417     0.0000     8.0000 </r>
       <r>    -2.6705     0.0000     8.0000 </r>
       <r>    -2.5993     0.0000     8.0000 </r>
       <r>    -2.5281     0.0000     8.0000 </r>
       <r>    -2.4569     0.0000     8.0000 </r>
       <r>    -2.3857     0.0000     8.0000 </r>
       <r>    -2.3145     0.0000     8.0000 </r>
       <r>    -2.2433     0.0000     8.0000 </r>
       <r>    -2.1721     0.0000     8.0000 </r>
       <r>    -2.1009     0.0000     8.0000 </r>
       <r>    -2.0297    -0.0000     8.0000 </r>
       <r>    -1.9585    -0.0000     8.0000 </r>
       <r>    -1.8873    -0.0000     8.0000 </r>
       <r>    -1.8161    -0.0000     8.0000 </r>
       <r>    -1.7449    -0.0000     8.0000 </r>
       <r>    -1.6737    -0.0000     8.0000 </r>
       <r>    -1.6025    -0.0000     8.0000 </r>
       <r>    -1.5313    -0.0000     8.0000 </r>
       <r>    -1.4601    -0.0000     8.0000 </r>
       <r>    -1.3889    -0.0000     8.0000 </r>
       <r>    -1.3177    -0.0000     8.0000 </r>
       <r>    -1.2465    -0.0000     8.0000 </r>
       <r>    -1.1753    -0.0000     8.0000 </r>
       <r>    -1.1041    -0.0000     8.0000 </r>
       <r>    -1.0329    -0.0003     8.0000 </r>
       <r>    -0.9617    -0.0022     7.9998 </r>
       <r>    -0.8905    -0.0136     7.9989 </r>
       <r>    -0.8193    -0.0612     7.9945 </r>
       <r>    -0.7481    -0.1947     7.9806 </r>
       <r>    -0.6769    -0.3977     7.9523 </r>
       <r>    -0.6057    -0.3257     7.9291 </r>
       <r>    -0.5345     0.8257     7.9879 </r>
       <r>    -0.4633     3.5889     8.2435 </r>
       <r>    -0.3921     6.8946     8.7344 </r>
       <r>    -0.3209     8.3094     9.3260 </r>
       <r>    -0.2497     6.5912     9.7953 </r>
       <r>    -0.1785     3.2354    10.0257 </r>
       <r>    -0.1073     0.6263    10.0703 </r>
       <r>    -0.0361    -0.3783    10.0434 </r>
       <r>     0.0351    -0.4295    10.0128 </r>
       <r>     0.1064    -0.3573     9.9873 </r>
       <r>     0.1776    -0.5133     9.9508 </r>
       <r>     0.2488    -0.7316     9.8987 </r>
       <r>     0.3200    -0.2377     9.8818 </r>
       <r>     0.3912     2.2122    10.0393 </r>
       <r>     0.4624     7.3814    10.5648 </r>
       <r>     0.5336    14.2574    11.5800 </r>
       <r>     0.6048    19.7336    12.9851 </r>
       <r>     0.6760    20.2932    14.4300 </r>
       <r>     0.7472    15.1354    15.5077 </r>
       <r>     0.8184     7.4842    16.0406 </r>
       <r>     0.8896     1.6578    16.1586 </r>
       <r>     0.9608    -0.7265    16.1069 </r>
       <r>     1.0320    -0.8774    16.0444 </r>
       <r>     1.1032    -0.4407    16.0130 </r>
       <r>     1.1744    -0.1434    16.0028 </r>
       <r>     1.2456    -0.0332    16.0005 </r>
       <r>     1.3168    -0.0057    16.0001 </r>
       <r>     1.3880    -0.0007    16.0000 </r>
       <r>     1.4592    -0.0001    16.0000 </r>
       <r>     1.5304    -0.0000    16.0000 </r>
       <r>     1.6016    -0.0000    16.0000 </r>
       <r>     1.6728    -0.0000    16.0000 </r>
       <r>     1.7440    -0.0000    16.0000 </r>
       <r>     1.8152    -0.0000    16.0000 </r>
       <r>     1.8864    -0.0000    16.0000 </r>
       <r>     1.9576    -0.0000    16.0000 </r>
       <r>     2.0288     0.0000    16.0000 </r>
       <r>     2.1000     0.0000    16.0000 </r>
       <r>     2.1712     0.0000    16.0000 </r>
       <r>     2.2424     0.0000    16.0000 </r>
       <r>     2.3136     0.0000    16.0000 </r>
       <r>     2.3848     0.0000    16.0000 </r>
       <r>     2.4560     0.0000    16.0000 </r>
       <r>     2.5272     0.0000    16.0000 </r>
       <r>     2.5984     0.0000    16.0000 </r>
       <r>     2.6696     0.0000    16.0000 </r>
      </set>
     </set>
    </array>
   </total>
  </dos>
  <time name="totalsc">   98.38   98.62</time>
 </calculation>
 <calculation>
  <scstep>
   <time name="dav">    2.23    2.24</time>
   <time name="total">    4.23    4.24</time>
   <energy>
    <i name="alphaZ">      0.22565769 </i>
    <i name="ewald">    129.80167055 </i>
    <i name="hartreedc">   -284.47951335 </i>
    <i name="XCdc">     24.58305089 </i>
    <i name="pawpsdc">    432.54588541 </i>
    <i name="pawaedc">   -433.31366087 </i>
    <i name="eentropy">      0.02317831 </i>
    <i name="bandstr">    -90.44451183 </i>
    <i name="atom">    197.04175453 </i>
    <i name="e_fr_energy">    -24.01648867 </i>
    <i name="e_wo_entrp">    -24.03966698 </i>
    <i name="e_0_energy">    -24.02421478 </i>
   </energy>
  </scstep>
  <scstep>
   <time name="diag">    0.51    0.51</time>
   <time name="diis">    1.63    1.63</time>
   <time name="orth">    0.01    0.01</time>
   <time name="total">    4.00    4.01</time>
   <energy>
    <i name="e_fr_energy">    -24.01230664 </i>
    <i name="e_wo_entrp">    -24.03302279 </i>
    <i name="e_0_energy">    -24.01921203 </i>
   </energy>
  </scstep>
  <scstep>
   <time name="diag">    0.50    0.50</time>
   <time name="diis">    1.62    1.62</time>
   <time name="orth">    0.01    0.01</time>
   <time name="total">    4.05    4.06</time>
   <energy>
    <i name="e_fr_energy">    -24.01684045 </i>
    <i name="e_wo_entrp">    -24.03619650 </i>
    <i name="e_0_energy">    -24.02329246 </i>
   </energy>
  </scstep>
  <scstep>
   <time name="diag">    0.48    0.48</time>
   <time name="diis">    1.67    1.68</time>
   <time name="orth">    0.01    0.01</time>
   <time name="total">    4.13    4.14</time>
   <energy>
    <i name="e_fr_energy">    -24.01059029 </i>
    <i name="e_wo_entrp">    -24.03313801 </i>
    <i name="e_0_energy">    -24.01810619 </i>
   </energy>
  </scstep>
  <scstep>
   <time name="diag">    0.49    0.49</time>
   <time name="diis">    1.66    1.66</time>
   <time name="orth">    0.01    0.01</time>
   <time name="total">    4.09    4.10</time>
   <energy>
    <i name="e_fr_energy">    -24.00619108 </i>
    <i name="e_wo_entrp">    -24.03355569 </i>
    <i name="e_0_energy">    -24.01531262 </i>
   </energy>
  </scstep>
  <scstep>
   <time name="diag">    0.51    0.51</time>
   <time name="diis">    1.67    1.67</time>
   <time name="orth">    0.01    0.01</time>
   <time name="total">    4.07    4.08</time>
   <energy>
    <i name="e_fr_energy">    -24.00618387 </i>
    <i name="e_wo_entrp">    -24.03316117 </i>
    <i name="e_0_energy">    -24.01517630 </i>
   </energy>
  </scstep>
  <scstep>
   <time name="diag">    0.51    0.51</time>
   <time name="diis">    1.59    1.60</time>
   <time name="orth">    0.01    0.01</time>
   <time name="total">    4.07    4.08</time>
   <energy>
    <i name="e_fr_energy">    -24.00538081 </i>
    <i name="e_wo_entrp">    -24.03399406 </i>
    <i name="e_0_energy">    -24.01491856 </i>
   </energy>
  </scstep>
  <scstep>
   <time name="diag">    0.50    0.50</time>
   <time name="diis">    1.60    1.61</time>
   <time name="orth">    0.01    0.01</time>
   <time name="total">    4.08    4.09</time>
   <energy>
    <i name="e_fr_energy">    -24.00432124 </i>
    <i name="e_wo_entrp">    -24.03459548 </i>
    <i name="e_0_energy">    -24.01441266 </i>
   </energy>
  </scstep>
  <scstep>
   <time name="diag">    0.50    0.50</time>
   <time name="diis">    1.63    1.63</time>
   <time name="orth">    0.01    0.01</time>
   <time name="total">    4.10    4.11</time>
   <energy>
    <i name="e_fr_energy">    -24.00194515 </i>
    <i name="e_wo_entrp">    -24.03381970 </i>
    <i name="e_0_energy">    -24.01257000 </i>
   </energy>
  </scstep>
  <scstep>
   <time name="diag">    0.51    0.51</time>
   <time name="diis">    1.59    1.59</time>
   <time name="orth">    0.01    0.01</time>
   <time name="total">    4.06    4.07</time>
   <energy>
    <i name="e_fr_energy">    -24.00192803 </i>
    <i name="e_wo_entrp">    -24.03420827 </i>
    <i name="e_0_energy">    -24.01268811 </i>
   </energy>
  </scstep>
  <scstep>
   <time name="diag">    0.48    0.48</time>
   <time name="diis">    1.59    1.59</time>
   <time name="orth">    0.01    0.01</time>
   <time name="total">    4.06    4.07</time>
   <energy>
    <i name="e_fr_energy">    -24.00155567 </i>
    <i name="e_wo_entrp">    -24.03450230 </i>
    <i name="e_0_energy">    -24.01253788 </i>
   </energy>
  </scstep>
  <scstep>
   <time name="diag">    0.48    0.48</time>
   <time name="diis">    1.62    1.63</time>
   <time name="orth">    0.01    0.01</time>
   <time name="total">    4.10    4.11</time>
   <energy>
    <i name="e_fr_energy">    -24.00126881 </i>
    <i name="e_wo_entrp">    -24.03479738 </i>
    <i name="e_0_energy">    -24.01244500 </i>
   </energy>
  </scstep>
  <scstep>
   <time name="diag">    0.49    0.49</time>
   <time name="diis">    1.60    1.60</time>
   <time name="orth">    0.01    0.01</time>
   <time name="total">    4.05    4.06</time>
   <energy>
    <i name="e_fr_energy">    -24.00119800 </i>
    <i name="e_wo_entrp">    -24.03521223 </i>
    <i name="e_0_energy">    -24.01253607 </i>
   </energy>
  </scstep>
  <scstep>
   <time name="diag">    0.48    0.48</time>
   <time name="diis">    1.60    1.60</time>
   <time name="orth">    0.01    0.01</time>
   <time name="total">    4.07    4.07</time>
   <energy>
    <i name="e_fr_energy">    -24.00105809 </i>
    <i name="e_wo_entrp">    -24.03677105 </i>
    <i name="e_0_energy">    -24.01296241 </i>
   </energy>
  </scstep>
  <scstep>
   <time name="diag">    0.46    0.47</time>
   <time name="diis">    1.57    1.58</time>
   <time name="orth">    0.01    0.01</time>
   <time name="total">    4.03    4.04</time>
   <energy>
    <i name="e_fr_energy">    -24.00110215 </i>
    <i name="e_wo_entrp">    -24.03743665 </i>
    <i name="e_0_energy">    -24.01321365 </i>
   </energy>
  </scstep>
  <scstep>
   <time name="diag">    0.46    0.46</time>
   <time name="diis">    1.61    1.62</time>
   <time name="orth">    0.01    0.01</time>
   <time name="total">    4.10    4.11</time>
   <energy>
    <i name="e_fr_energy">    -24.00111701 </i>
    <i name="e_wo_entrp">    -24.03752159 </i>
    <i name="e_0_energy">    -24.01325187 </i>
   </energy>
  </scstep>
  <scstep>
   <time name="diag">    0.47    0.47</time>
   <time name="diis">    1.66    1.67</time>
   <time name="orth">    0.01    0.01</time>
   <time name="total">    4.18    4.19</time>
   <energy>
    <i name="e_fr_energy">    -24.00112852 </i>
    <i name="e_wo_entrp">    -24.03786044 </i>
    <i name="e_0_energy">    -24.01337249 </i>
   </energy>
  </scstep>
  <scstep>
   <time name="diag">    0.49    0.49</time>
   <time name="diis">    1.64    1.64</time>
   <time name="orth">    0.01    0.01</time>
   <time name="total">    4.16    4.17</time>
   <energy>
    <i name="e_fr_energy">    -24.00113586 </i>
    <i name="e_wo_entrp">    -24.03787623 </i>
    <i name="e_0_energy">    -24.01338265 </i>
   </energy>
  </scstep>
  <scstep>
   <time name="diag">    0.48    0.48</time>
   <time name="diis">    1.43    1.43</time>
   <time name="orth">    0.01    0.01</time>
   <time name="total">    3.99    4.00</time>
   <energy>
    <i name="e_fr_energy">    -24.00113773 </i>
    <i name="e_wo_entrp">    -24.03798790 </i>
    <i name="e_0_energy">    -24.01342112 </i>
   </energy>
  </scstep>
  <scstep>
   <time name="diag">    0.49    0.49</time>
   <time name="diis">    1.27    1.28</time>
   <time name="orth">    0.01    0.01</time>
   <time name="total">    3.89    3.90</time>
   <energy>
    <i name="e_fr_energy">    -24.00114284 </i>
    <i name="e_wo_entrp">    -24.03796315 </i>
    <i name="e_0_energy">    -24.01341627 </i>
   </energy>
  </scstep>
  <scstep>
   <time name="diag">    0.48    0.48</time>
   <time name="diis">    1.30    1.31</time>
   <time name="orth">    0.01    0.01</time>
   <time name="total">    3.95    3.96</time>
   <energy>
    <i name="e_fr_energy">    -24.00114494 </i>
    <i name="e_wo_entrp">    -24.03796353 </i>
    <i name="e_0_energy">    -24.01341781 </i>
   </energy>
  </scstep>
  <scstep>
   <time name="diag">    0.47    0.47</time>
   <time name="diis">    1.30    1.30</time>
   <time name="orth">    0.01    0.01</time>
   <time name="total">    3.56    3.57</time>
   <energy>
    <i name="alphaZ">      0.22565769 </i>
    <i name="ewald">    129.80167055 </i>
    <i name="hartreedc">   -285.73826769 </i>
    <i name="XCdc">     24.65611311 </i>
    <i name="pawpsdc">    453.29506673 </i>
    <i name="pawaedc">   -454.07679839 </i>
    <i name="eentropy">      0.03681741 </i>
    <i name="bandstr">    -89.24315908 </i>
    <i name="atom">    197.04175453 </i>
    <i name="e_fr_energy">    -24.00114515 </i>
    <i name="e_wo_entrp">    -24.03796256 </i>
    <i name="e_0_energy">    -24.01341762 </i>
   </energy>
  </scstep>
  <structure>
   <crystal>
    <varray name="basis" >
     <v>      10.23121120       0.00000000       0.00000000 </v>
     <v>       0.20240482      10.22041284       0.00000000 </v>
     <v>       0.22392373      -0.03019508      10.26643294 </v>
    </varray>
    <i name="volume">   1073.53216999 </i>
    <varray name="rec_basis" >
     <v>       0.09774014      -0.00193564      -0.00213753 </v>
     <v>      -0.00000000       0.09784341       0.00028777 </v>
     <v>       0.00000000       0.00000000       0.09740481 </v>
    </varray>
   </crystal>
   <varray name="positions" >
    <v>       0.53877017       0.40378665       0.36295533 </v>
    <v>       0.39475926       0.48040678       0.43845537 </v>
    <v>       0.54959705       0.56366898       0.44409528 </v>
    <v>       0.52695770       0.41789633       0.53535132 </v>
    <v>       0.50298443       0.46687998       0.44480011 </v>
   </varray>
  </structure>
  <varray name="forces" >
   <v>      -0.46397156       0.60827173       0.27531506 </v>
   <v>       0.42285160       0.40210692       0.01924132 </v>
   <v>       0.23501480       0.26386165      -0.37084249 </v>
   <v>       0.45984647      -0.42549974       0.02795809 </v>
   <v>      -1.30312938       1.60253657      -0.74696154 </v>
  </varray>
  <varray name="stress" >
   <v>      -1.04167120      -0.48905419       0.65206288 </v>
   <v>      -0.48905420      -0.50977529      -0.72579110 </v>
   <v>       0.65206288      -0.72579110      -0.24463166 </v>
  </varray>
  <energy>
   <i name="e_fr_energy">    -24.00114515 </i>
   <i name="e_wo_entrp">    -24.01341762 </i>
   <i name="e_0_energy">      0.03681741 </i>
   <i name="kinetic">      0.04840937 </i>
   <i name="lattice kinetic">      0.00000000 </i>
   <i name="nosepot">      0.00013224 </i>
   <i name="nosekinetic">      0.00013305 </i>
   <i name="total">    -23.95247049 </i>
  </energy>
  <dos>
   <i name="efermi">     -9.03440871 </i>
   <total>
    <array>
     <dimension dim="1">gridpoints</dimension>
     <dimension dim="2">spin</dimension>
     <field>energy</field>
     <field>total</field>
     <field>integrated</field>
     <set>
      <set comment="spin 1">
       <r>   -18.8336     0.0000     0.0000 </r>
       <r>   -18.7619     0.0000     0.0000 </r>
       <r>   -18.6902     0.0000     0.0000 </r>
       <r>   -18.6185     0.0000     0.0000 </r>
       <r>   -18.5468     0.0000     0.0000 </r>
       <r>   -18.4751    -0.0000    -0.0000 </r>
       <r>   -18.4034    -0.0000    -0.0000 </r>
       <r>   -18.3317    -0.0000    -0.0000 </r>
       <r>   -18.2600    -0.0000    -0.0000 </r>
       <r>   -18.1883    -0.0000    -0.0000 </r>
       <r>   -18.1166    -0.0000    -0.0000 </r>
       <r>   -18.0448    -0.0000    -0.0000 </r>
       <r>   -17.9731    -0.0000    -0.0000 </r>
       <r>   -17.9014    -0.0000    -0.0000 </r>
       <r>   -17.8297    -0.0000    -0.0000 </r>
       <r>   -17.7580    -0.0000    -0.0000 </r>
       <r>   -17.6863    -0.0000    -0.0000 </r>
       <r>   -17.6146    -0.0000    -0.0000 </r>
       <r>   -17.5429    -0.0001    -0.0000 </r>
       <r>   -17.4712    -0.0008    -0.0001 </r>
       <r>   -17.3995    -0.0057    -0.0005 </r>
       <r>   -17.3278    -0.0302    -0.0026 </r>
       <r>   -17.2561    -0.1157    -0.0109 </r>
       <r>   -17.1844    -0.3010    -0.0325 </r>
       <r>   -17.1127    -0.4373    -0.0639 </r>
       <r>   -17.0410     0.0940    -0.0571 </r>
       <r>   -16.9693     2.1307     0.0957 </r>
       <r>   -16.8976     5.4692     0.4878 </r>
       <r>   -16.8259     8.0501     1.0650 </r>
       <r>   -16.7542     7.6949     1.6168 </r>
       <r>   -16.6825     4.7241     1.9555 </r>
       <r>   -16.6108     1.5481     2.0665 </r>
       <r>   -16.5391    -0.1231     2.0577 </r>
       <r>   -16.4674    -0.4349     2.0265 </r>
       <r>   -16.3957    -0.2547     2.0083 </r>
       <r>   -16.3240    -0.0893     2.0019 </r>
       <r>   -16.2522    -0.0216     2.0003 </r>
       <r>   -16.1805    -0.0038     2.0000 </r>
       <r>   -16.1088    -0.0005     2.0000 </r>
       <r>   -16.0371    -0.0000     2.0000 </r>
       <r>   -15.9654    -0.0000     2.0000 </r>
       <r>   -15.8937    -0.0000     2.0000 </r>
       <r>   -15.8220    -0.0000     2.0000 </r>
       <r>   -15.7503    -0.0000     2.0000 </r>
       <r>   -15.6786    -0.0000     2.0000 </r>
       <r>   -15.6069    -0.0000     2.0000 </r>
       <r>   -15.5352     0.0000     2.0000 </r>
       <r>   -15.4635     0.0000     2.0000 </r>
       <r>   -15.3918     0.0000     2.0000 </r>
       <r>   -15.3201     0.0000     2.0000 </r>
       <r>   -15.2484     0.0000     2.0000 </r>
       <r>   -15.1767     0.0000     2.0000 </r>
       <r>   -15.1050     0.0000     2.0000 </r>
       <r>   -15.0333     0.0000     2.0000 </r>
       <r>   -14.9616     0.0000     2.0000 </r>
       <r>   -14.8899     0.0000     2.0000 </r>
       <r>   -14.8182     0.0000     2.0000 </r>
       <r>   -14.7465     0.0000     2.0000 </r>
       <r>   -14.6748     0.0000     2.0000 </r>
       <r>   -14.6031     0.0000     2.0000 </r>
       <r>   -14.5314     0.0000     2.0000 </r>
       <r>   -14.4597     0.0000     2.0000 </r>
       <r>   -14.3879     0.0000     2.0000 </r>
       <r>   -14.3162     0.0000     2.0000 </r>
       <r>   -14.2445     0.0000     2.0000 </r>
       <r>   -14.1728     0.0000     2.0000 </r>
       <r>   -14.1011     0.0000     2.0000 </r>
       <r>   -14.0294     0.0000     2.0000 </r>
       <r>   -13.9577     0.0000     2.0000 </r>
       <r>   -13.8860     0.0000     2.0000 </r>
       <r>   -13.8143     0.0000     2.0000 </r>
       <r>   -13.7426     0.0000     2.0000 </r>
       <r>   -13.6709     0.0000     2.0000 </r>
       <r>   -13.5992     0.0000     2.0000 </r>
       <r>   -13.5275     0.0000     2.0000 </r>
       <r>   -13.4558     0.0000     2.0000 </r>
       <r>   -13.3841     0.0000     2.0000 </r>
       <r>   -13.3124     0.0000     2.0000 </r>
       <r>   -13.2407     0.0000     2.0000 </r>
       <r>   -13.1690     0.0000     2.0000 </r>
       <r>   -13.0973     0.0000     2.0000 </r>
       <r>   -13.0256     0.0000     2.0000 </r>
       <r>   -12.9539     0.0000     2.0000 </r>
       <r>   -12.8822     0.0000     2.0000 </r>
       <r>   -12.8105     0.0000     2.0000 </r>
       <r>   -12.7388     0.0000     2.0000 </r>
       <r>   -12.6671     0.0000     2.0000 </r>
       <r>   -12.5953     0.0000     2.0000 </r>
       <r>   -12.5236     0.0000     2.0000 </r>
       <r>   -12.4519     0.0000     2.0000 </r>
       <r>   -12.3802     0.0000     2.0000 </r>
       <r>   -12.3085     0.0000     2.0000 </r>
       <r>   -12.2368     0.0000     2.0000 </r>
       <r>   -12.1651     0.0000     2.0000 </r>
       <r>   -12.0934     0.0000     2.0000 </r>
       <r>   -12.0217     0.0000     2.0000 </r>
       <r>   -11.9500     0.0000     2.0000 </r>
       <r>   -11.8783     0.0000     2.0000 </r>
       <r>   -11.8066     0.0000     2.0000 </r>
       <r>   -11.7349     0.0000     2.0000 </r>
       <r>   -11.6632     0.0000     2.0000 </r>
       <r>   -11.5915     0.0000     2.0000 </r>
       <r>   -11.5198     0.0000     2.0000 </r>
       <r>   -11.4481     0.0000     2.0000 </r>
       <r>   -11.3764     0.0000     2.0000 </r>
       <r>   -11.3047     0.0000     2.0000 </r>
       <r>   -11.2330     0.0000     2.0000 </r>
       <r>   -11.1613     0.0000     2.0000 </r>
       <r>   -11.0896     0.0000     2.0000 </r>
       <r>   -11.0179    -0.0000     2.0000 </r>
       <r>   -10.9462    -0.0000     2.0000 </r>
       <r>   -10.8745    -0.0000     2.0000 </r>
       <r>   -10.8028    -0.0000     2.0000 </r>
       <r>   -10.7310    -0.0000     2.0000 </r>
       <r>   -10.6593    -0.0000     2.0000 </r>
       <r>   -10.5876    -0.0000     2.0000 </r>
       <r>   -10.5159    -0.0000     2.0000 </r>
       <r>   -10.4442    -0.0000     2.0000 </r>
       <r>   -10.3725    -0.0000     2.0000 </r>
       <r>   -10.3008    -0.0000     2.0000 </r>
       <r>   -10.2291    -0.0000     2.0000 </r>
       <r>   -10.1574    -0.0000     2.0000 </r>
       <r>   -10.0857    -0.0000     2.0000 </r>
       <r>   -10.0140    -0.0005     2.0000 </r>
       <r>    -9.9423    -0.0036     1.9997 </r>
       <r>    -9.8706    -0.0216     1.9982 </r>
       <r>    -9.7989    -0.0949     1.9913 </r>
       <r>    -9.7272    -0.2998     1.9699 </r>
       <r>    -9.6555    -0.6325     1.9245 </r>
       <r>    -9.5838    -0.6632     1.8769 </r>
       <r>    -9.5121     0.7257     1.9290 </r>
       <r>    -9.4404     4.7021     2.2661 </r>
       <r>    -9.3687    10.9575     3.0518 </r>
       <r>    -9.2970    17.0131     4.2717 </r>
       <r>    -9.2253    19.6478     5.6806 </r>
       <r>    -9.1536    17.2838     6.9199 </r>
       <r>    -9.0819    11.2530     7.7268 </r>
       <r>    -9.0102     4.8416     8.0739 </r>
       <r>    -8.9385     0.7338     8.1265 </r>
       <r>    -8.8667    -0.6905     8.0770 </r>
       <r>    -8.7950    -0.6488     8.0305 </r>
       <r>    -8.7233    -0.3043     8.0087 </r>
       <r>    -8.6516    -0.0955     8.0018 </r>
       <r>    -8.5799    -0.0215     8.0003 </r>
       <r>    -8.5082    -0.0036     8.0000 </r>
       <r>    -8.4365    -0.0005     8.0000 </r>
       <r>    -8.3648    -0.0000     8.0000 </r>
       <r>    -8.2931    -0.0000     8.0000 </r>
       <r>    -8.2214    -0.0000     8.0000 </r>
       <r>    -8.1497    -0.0000     8.0000 </r>
       <r>    -8.0780    -0.0000     8.0000 </r>
       <r>    -8.0063    -0.0000     8.0000 </r>
       <r>    -7.9346    -0.0000     8.0000 </r>
       <r>    -7.8629     0.0000     8.0000 </r>
       <r>    -7.7912     0.0000     8.0000 </r>
       <r>    -7.7195     0.0000     8.0000 </r>
       <r>    -7.6478     0.0000     8.0000 </r>
       <r>    -7.5761     0.0000     8.0000 </r>
       <r>    -7.5044     0.0000     8.0000 </r>
       <r>    -7.4327     0.0000     8.0000 </r>
       <r>    -7.3610     0.0000     8.0000 </r>
       <r>    -7.2893     0.0000     8.0000 </r>
       <r>    -7.2176     0.0000     8.0000 </r>
       <r>    -7.1459     0.0000     8.0000 </r>
       <r>    -7.0741     0.0000     8.0000 </r>
       <r>    -7.0024     0.0000     8.0000 </r>
       <r>    -6.9307     0.0000     8.0000 </r>
       <r>    -6.8590     0.0000     8.0000 </r>
       <r>    -6.7873     0.0000     8.0000 </r>
       <r>    -6.7156     0.0000     8.0000 </r>
       <r>    -6.6439     0.0000     8.0000 </r>
       <r>    -6.5722     0.0000     8.0000 </r>
       <r>    -6.5005     0.0000     8.0000 </r>
       <r>    -6.4288     0.0000     8.0000 </r>
       <r>    -6.3571     0.0000     8.0000 </r>
       <r>    -6.2854     0.0000     8.0000 </r>
       <r>    -6.2137     0.0000     8.0000 </r>
       <r>    -6.1420     0.0000     8.0000 </r>
       <r>    -6.0703     0.0000     8.0000 </r>
       <r>    -5.9986     0.0000     8.0000 </r>
       <r>    -5.9269     0.0000     8.0000 </r>
       <r>    -5.8552     0.0000     8.0000 </r>
       <r>    -5.7835     0.0000     8.0000 </r>
       <r>    -5.7118     0.0000     8.0000 </r>
       <r>    -5.6401     0.0000     8.0000 </r>
       <r>    -5.5684     0.0000     8.0000 </r>
       <r>    -5.4967     0.0000     8.0000 </r>
       <r>    -5.4250     0.0000     8.0000 </r>
       <r>    -5.3533     0.0000     8.0000 </r>
       <r>    -5.2816     0.0000     8.0000 </r>
       <r>    -5.2098     0.0000     8.0000 </r>
       <r>    -5.1381     0.0000     8.0000 </r>
       <r>    -5.0664     0.0000     8.0000 </r>
       <r>    -4.9947     0.0000     8.0000 </r>
       <r>    -4.9230     0.0000     8.0000 </r>
       <r>    -4.8513     0.0000     8.0000 </r>
       <r>    -4.7796     0.0000     8.0000 </r>
       <r>    -4.7079     0.0000     8.0000 </r>
       <r>    -4.6362     0.0000     8.0000 </r>
       <r>    -4.5645     0.0000     8.0000 </r>
       <r>    -4.4928     0.0000     8.0000 </r>
       <r>    -4.4211     0.0000     8.0000 </r>
       <r>    -4.3494     0.0000     8.0000 </r>
       <r>    -4.2777     0.0000     8.0000 </r>
       <r>    -4.2060     0.0000     8.0000 </r>
       <r>    -4.1343     0.0000     8.0000 </r>
       <r>    -4.0626     0.0000     8.0000 </r>
       <r>    -3.9909     0.0000     8.0000 </r>
       <r>    -3.9192     0.0000     8.0000 </r>
       <r>    -3.8475     0.0000     8.0000 </r>
       <r>    -3.7758     0.0000     8.0000 </r>
       <r>    -3.7041     0.0000     8.0000 </r>
       <r>    -3.6324     0.0000     8.0000 </r>
       <r>    -3.5607     0.0000     8.0000 </r>
       <r>    -3.4890     0.0000     8.0000 </r>
       <r>    -3.4172     0.0000     8.0000 </r>
       <r>    -3.3455     0.0000     8.0000 </r>
       <r>    -3.2738     0.0000     8.0000 </r>
       <r>    -3.2021     0.0000     8.0000 </r>
       <r>    -3.1304     0.0000     8.0000 </r>
       <r>    -3.0587     0.0000     8.0000 </r>
       <r>    -2.9870     0.0000     8.0000 </r>
       <r>    -2.9153     0.0000     8.0000 </r>
       <r>    -2.8436     0.0000     8.0000 </r>
       <r>    -2.7719     0.0000     8.0000 </r>
       <r>    -2.7002     0.0000     8.0000 </r>
       <r>    -2.6285     0.0000     8.0000 </r>
       <r>    -2.5568     0.0000     8.0000 </r>
       <r>    -2.4851     0.0000     8.0000 </r>
       <r>    -2.4134     0.0000     8.0000 </r>
       <r>    -2.3417     0.0000     8.0000 </r>
       <r>    -2.2700     0.0000     8.0000 </r>
       <r>    -2.1983     0.0000     8.0000 </r>
       <r>    -2.1266     0.0000     8.0000 </r>
       <r>    -2.0549     0.0000     8.0000 </r>
       <r>    -1.9832    -0.0000     8.0000 </r>
       <r>    -1.9115    -0.0000     8.0000 </r>
       <r>    -1.8398    -0.0000     8.0000 </r>
       <r>    -1.7681    -0.0000     8.0000 </r>
       <r>    -1.6964    -0.0000     8.0000 </r>
       <r>    -1.6247    -0.0000     8.0000 </r>
       <r>    -1.5529    -0.0000     8.0000 </r>
       <r>    -1.4812    -0.0000     8.0000 </r>
       <r>    -1.4095    -0.0000     8.0000 </r>
       <r>    -1.3378    -0.0000     8.0000 </r>
       <r>    -1.2661    -0.0000     8.0000 </r>
       <r>    -1.1944    -0.0000     8.0000 </r>
       <r>    -1.1227    -0.0000     8.0000 </r>
       <r>    -1.0510    -0.0001     8.0000 </r>
       <r>    -0.9793    -0.0006     8.0000 </r>
       <r>    -0.9076    -0.0043     7.9996 </r>
       <r>    -0.8359    -0.0241     7.9979 </r>
       <r>    -0.7642    -0.0972     7.9909 </r>
       <r>    -0.6925    -0.2693     7.9716 </r>
       <r>    -0.6208    -0.4379     7.9402 </r>
       <r>    -0.5491    -0.0608     7.9359 </r>
       <r>    -0.4774     1.7259     8.0596 </r>
       <r>    -0.4057     4.9622     8.4154 </r>
       <r>    -0.3340     7.8206     8.9762 </r>
       <r>    -0.2623     7.9505     9.5463 </r>
       <r>    -0.1906     5.2347     9.9216 </r>
       <r>    -0.1189     1.9383    10.0606 </r>
       <r>    -0.0472     0.0133    10.0616 </r>
       <r>     0.0245    -0.4681    10.0280 </r>
       <r>     0.0962    -0.4067     9.9989 </r>
       <r>     0.1679    -0.4622     9.9657 </r>
       <r>     0.2397    -0.7211     9.9140 </r>
       <r>     0.3114    -0.6210     9.8695 </r>
       <r>     0.3831     1.0936     9.9479 </r>
       <r>     0.4548     5.6629    10.3540 </r>
       <r>     0.5265    12.7177    11.2659 </r>
       <r>     0.5982    19.2647    12.6472 </r>
       <r>     0.6699    21.1438    14.1633 </r>
       <r>     0.7416    16.6957    15.3605 </r>
       <r>     0.8133     8.8375    15.9941 </r>
       <r>     0.8850     2.3326    16.1614 </r>
       <r>     0.9567    -0.5905    16.1190 </r>
       <r>     1.0284    -0.9388    16.0517 </r>
       <r>     1.1001    -0.5030    16.0157 </r>
       <r>     1.1718    -0.1700    16.0035 </r>
       <r>     1.2435    -0.0404    16.0006 </r>
       <r>     1.3152    -0.0070    16.0001 </r>
       <r>     1.3869    -0.0009    16.0000 </r>
       <r>     1.4586    -0.0001    16.0000 </r>
       <r>     1.5303    -0.0000    16.0000 </r>
       <r>     1.6020    -0.0000    16.0000 </r>
       <r>     1.6737    -0.0000    16.0000 </r>
       <r>     1.7454    -0.0000    16.0000 </r>
       <r>     1.8171    -0.0000    16.0000 </r>
       <r>     1.8888    -0.0000    16.0000 </r>
       <r>     1.9605    -0.0000    16.0000 </r>
       <r>     2.0322     0.0000    16.0000 </r>
       <r>     2.1040     0.0000    16.0000 </r>
       <r>     2.1757     0.0000    16.0000 </r>
       <r>     2.2474     0.0000    16.0000 </r>
       <r>     2.3191     0.0000    16.0000 </r>
       <r>     2.3908     0.0000    16.0000 </r>
       <r>     2.4625     0.0000    16.0000 </r>
       <r>     2.5342     0.0000    16.0000 </r>
       <r>     2.6059     0.0000    16.0000 </r>
       <r>     2.6776     0.0000    16.0000 </r>
      </set>
     </set>
    </array>
   </total>
  </dos>
  <time name="totalsc">   97.53   97.78</time>
 </calculation>
 <calculation>
  <scstep>
   <time name="dav">    2.23    2.23</time>
   <time name="total">    4.28    4.29</time>
   <energy>
    <i name="alphaZ">      0.22565769 </i>
    <i name="ewald">    134.98456806 </i>
    <i name="hartreedc">   -289.58703557 </i>
    <i name="XCdc">     24.85891696 </i>
    <i name="pawpsdc">    467.31418663 </i>
    <i name="pawaedc">   -468.10528987 </i>
    <i name="eentropy">      0.02001462 </i>
    <i name="bandstr">    -90.71854303 </i>
    <i name="atom">    197.04175453 </i>
    <i name="e_fr_energy">    -23.96576997 </i>
    <i name="e_wo_entrp">    -23.98578459 </i>
    <i name="e_0_energy">    -23.97244151 </i>
   </energy>
  </scstep>
  <scstep>
   <time name="diag">    0.49    0.49</time>
   <time name="diis">    1.63    1.63</time>
   <time name="orth">    0.01    0.01</time>
   <time name="total">    4.15    4.16</time>
   <energy>
    <i name="e_fr_energy">    -23.99131042 </i>
    <i name="e_wo_entrp">    -24.01016014 </i>
    <i name="e_0_energy">    -23.99759366 </i>
   </energy>
  </scstep>
  <scstep>
   <time name="diag">    0.48    0.48</time>
   <time name="diis">    1.65    1.65</time>
   <time name="orth">    0.01    0.01</time>
   <time name="total">    4.19    4.20</time>
   <energy>
    <i name="e_fr_energy">    -23.96791750 </i>
    <i name="e_wo_entrp">    -23.98726764 </i>
    <i name="e_0_energy">    -23.97436754 </i>
   </energy>
  </scstep>
  <scstep>
   <time name="diag">    0.50    0.50</time>
   <time name="diis">    1.64    1.65</time>
   <time name="orth">    0.01    0.01</time>
   <time name="total">    4.20    4.21</time>
   <energy>
    <i name="e_fr_energy">    -23.95650959 </i>
    <i name="e_wo_entrp">    -23.97313833 </i>
    <i name="e_0_energy">    -23.96205250 </i>
   </energy>
  </scstep>
  <scstep>
   <time name="diag">    0.48    0.48</time>
   <time name="diis">    1.63    1.63</time>
   <time name="orth">    0.01    0.01</time>
   <time name="total">    4.18    4.19</time>
   <energy>
    <i name="e_fr_energy">    -23.95608790 </i>
    <i name="e_wo_entrp">    -23.97222235 </i>
    <i name="e_0_energy">    -23.96146605 </i>
   </energy>
  </scstep>
  <scstep>
   <time name="diag">    0.47    0.47</time>
   <time name="diis">    1.60    1.60</time>
   <time name="orth">    0.01    0.01</time>
   <time name="total">    4.10    4.11</time>
   <energy>
    <i name="e_fr_energy">    -23.95611676 </i>
    <i name="e_wo_entrp">    -23.97185294 </i>
    <i name="e_0_energy">    -23.96136215 </i>
   </energy>
  </scstep>
  <scstep>
   <time name="diag">    0.46    0.46</time>
   <time name="diis">    1.61    1.61</time>
   <time name="orth">    0.01    0.01</time>
   <time name="total">    4.14    4.15</time>
   <energy>
    <i name="e_fr_energy">    -23.95610018 </i>
    <i name="e_wo_entrp">    -23.97186734 </i>
    <i name="e_0_energy">    -23.96135590 </i>
   </energy>
  </scstep>
  <scstep>
   <time name="diag">    0.48    0.48</time>
   <time name="diis">    1.66    1.66</time>
   <time name="orth">    0.01    0.01</time>
   <time name="total">    4.21    4.22</time>
   <energy>
    <i name="e_fr_energy">    -23.95609769 </i>
    <i name="e_wo_entrp">    -23.97224157 </i>
    <i name="e_0_energy">    -23.96147898 </i>
   </energy>
  </scstep>
  <scstep>
   <time name="diag">    0.48    0.49</time>
   <time name="diis">    1.62    1.63</time>
   <time name="orth">    0.01    0.01</time>
   <time name="total">    4.14    4.15</time>
   <energy>
    <i name="e_fr_energy">    -23.95610788 </i>
    <i name="e_wo_entrp">    -23.97247409 </i>
    <i name="e_0_energy">    -23.96156328 </i>
   </energy>
  </scstep>
  <scstep>
   <time name="diag">    0.50    0.50</time>
   <time name="diis">    1.60    1.60</time>
   <time name="orth">    0.01    0.01</time>
   <time name="total">    4.18    4.19</time>
   <energy>
    <i name="e_fr_energy">    -23.95612300 </i>
    <i name="e_wo_entrp">    -23.97261157 </i>
    <i name="e_0_energy">    -23.96161919 </i>
   </energy>
  </scstep>
  <scstep>
   <time name="diag">    0.47    0.47</time>
   <time name="diis">    1.61    1.62</time>
   <time name="orth">    0.01    0.01</time>
   <time name="total">    4.27    4.28</time>
   <energy>
    <i name="e_fr_energy">    -23.95612791 </i>
    <i name="e_wo_entrp">    -23.97265355 </i>
    <i name="e_0_energy">    -23.96163646 </i>
   </energy>
  </scstep>
  <scstep>
   <time name="diag">    0.48    0.48</time>
   <time name="diis">    1.36    1.37</time>
   <time name="orth">    0.01    0.01</time>
   <time name="total">    4.03    4.04</time>
   <energy>
    <i name="e_fr_energy">    -23.95613334 </i>
    <i name="e_wo_entrp">    -23.97264215 </i>
    <i name="e_0_energy">    -23.96163627 </i>
   </energy>
  </scstep>
  <scstep>
   <time name="diag">    0.50    0.50</time>
   <time name="diis">    1.34    1.34</time>
   <time name="orth">    0.01    0.01</time>
   <time name="total">    4.03    4.04</time>
   <energy>
    <i name="e_fr_energy">    -23.95613468 </i>
    <i name="e_wo_entrp">    -23.97259378 </i>
    <i name="e_0_energy">    -23.96162105 </i>
   </energy>
  </scstep>
  <scstep>
   <time name="diag">    0.50    0.50</time>
   <time name="diis">    1.24    1.24</time>
   <time name="orth">    0.01    0.01</time>
   <time name="total">    3.55    3.56</time>
   <energy>
    <i name="alphaZ">      0.22565769 </i>
    <i name="ewald">    134.98456806 </i>
    <i name="hartreedc">   -290.21683962 </i>
    <i name="XCdc">     24.89101024 </i>
    <i name="pawpsdc">    479.90338708 </i>
    <i name="pawaedc">   -480.70216745 </i>
    <i name="eentropy">      0.01645054 </i>
    <i name="bandstr">    -90.09995637 </i>
    <i name="atom">    197.04175453 </i>
    <i name="e_fr_energy">    -23.95613529 </i>
    <i name="e_wo_entrp">    -23.97258584 </i>
    <i name="e_0_energy">    -23.96161881 </i>
   </energy>
  </scstep>
  <structure>
   <crystal>
    <varray name="basis" >
     <v>      10.23121120       0.00000000       0.00000000 </v>
     <v>       0.20240482      10.22041284       0.00000000 </v>
     <v>       0.22392373      -0.03019508      10.26643294 </v>
    </varray>
    <i name="volume">   1073.53216999 </i>
    <varray name="rec_basis" >
     <v>       0.09774014      -0.00193564      -0.00213753 </v>
     <v>      -0.00000000       0.09784341       0.00028777 </v>
     <v>       0.00000000       0.00000000       0.09740481 </v>
    </varray>
   </crystal>
   <varray name="positions" >
    <v>       0.53769981       0.40273251       0.36669153 </v>
    <v>       0.39657295       0.48154416       0.43881064 </v>
    <v>       0.54802810       0.56217728       0.44428347 </v>
    <v>       0.52767501       0.41750743       0.53217579 </v>
    <v>       0.50299344       0.46702963       0.44470819 </v>
   </varray>
  </structure>
  <varray name="forces" >
   <v>       0.10919382      -0.30581349      -0.72364216 </v>
   <v>       0.77603949       0.35933278       0.47620772 </v>
   <v>       0.45417544       0.53087562      -0.46595029 </v>
   <v>      -0.08290427      -0.10028287       1.59519161 </v>
   <v>      -1.71329149       1.68330211      -0.79946419 </v>
  </varray>
  <varray name="stress" >
   <v>      -0.74179829      -0.17716735      -0.09948713 </v>
   <v>      -0.17716735       0.25959951      -0.44421629 </v>
   <v>      -0.09948713      -0.44421629       2.10751668 </v>
  </varray>
  <energy>
   <i name="e_fr_energy">    -23.95613529 </i>
   <i name="e_wo_entrp">    -23.96161881 </i>
   <i name="e_0_energy">      0.01645054 </i>
   <i name="kinetic">      0.03871143 </i>
   <i name="lattice kinetic">      0.00000000 </i>
   <i name="nosepot">      0.00081958 </i>
   <i name="nosekinetic">      0.00056420 </i>
   <i name="total">    -23.91604009 </i>
  </energy>
  <dos>
   <i name="efermi">     -8.94276284 </i>
   <total>
    <array>
     <dimension dim="1">gridpoints</dimension>
     <dimension dim="2">spin</dimension>
     <field>energy</field>
     <field>total</field>
     <field>integrated</field>
     <set>
      <set comment="spin 1">
       <r>   -19.0097     0.0000     0.0000 </r>
       <r>   -18.9374     0.0000     0.0000 </r>
       <r>   -18.8651     0.0000     0.0000 </r>
       <r>   -18.7928     0.0000     0.0000 </r>
       <r>   -18.7205     0.0000     0.0000 </r>
       <r>   -18.6482    -0.0000    -0.0000 </r>
       <r>   -18.5759    -0.0000    -0.0000 </r>
       <r>   -18.5035    -0.0000    -0.0000 </r>
       <r>   -18.4312    -0.0000    -0.0000 </r>
       <r>   -18.3589    -0.0000    -0.0000 </r>
       <r>   -18.2866    -0.0000    -0.0000 </r>
       <r>   -18.2143    -0.0000    -0.0000 </r>
       <r>   -18.1420    -0.0000    -0.0000 </r>
       <r>   -18.0697    -0.0000    -0.0000 </r>
       <r>   -17.9974    -0.0000    -0.0000 </r>
       <r>   -17.9251    -0.0000    -0.0000 </r>
       <r>   -17.8528    -0.0000    -0.0000 </r>
       <r>   -17.7805    -0.0000    -0.0000 </r>
       <r>   -17.7082    -0.0001    -0.0000 </r>
       <r>   -17.6359    -0.0011    -0.0001 </r>
       <r>   -17.5636    -0.0076    -0.0006 </r>
       <r>   -17.4912    -0.0390    -0.0035 </r>
       <r>   -17.4189    -0.1420    -0.0137 </r>
       <r>   -17.3466    -0.3417    -0.0384 </r>
       <r>   -17.2743    -0.4132    -0.0683 </r>
       <r>   -17.2020     0.3728    -0.0414 </r>
       <r>   -17.1297     2.7828     0.1599 </r>
       <r>   -17.0574     6.2066     0.6086 </r>
       <r>   -16.9851     8.2664     1.2064 </r>
       <r>   -16.9128     7.1439     1.7229 </r>
[...]
       <r>     0.2339    -0.6813     9.9239 </r>
       <r>     0.3058    -0.6983     9.8737 </r>
       <r>     0.3778     0.6618     9.9213 </r>
       <r>     0.4498     4.7374    10.2622 </r>
       <r>     0.5217    11.5329    11.0921 </r>
       <r>     0.5937    18.4540    12.4200 </r>
       <r>     0.6656    21.2755    13.9510 </r>
       <r>     0.7376    17.6792    15.2231 </r>
       <r>     0.8095     9.9703    15.9406 </r>
       <r>     0.8815     3.0163    16.1576 </r>
       <r>     0.9535    -0.4002    16.1288 </r>
       <r>     1.0254    -0.9736    16.0588 </r>
       <r>     1.0974    -0.5606    16.0184 </r>
       <r>     1.1693    -0.1976    16.0042 </r>
       <r>     1.2413    -0.0485    16.0007 </r>
       <r>     1.3133    -0.0087    16.0001 </r>
       <r>     1.3852    -0.0011    16.0000 </r>
       <r>     1.4572    -0.0001    16.0000 </r>
       <r>     1.5291    -0.0000    16.0000 </r>
       <r>     1.6011    -0.0000    16.0000 </r>
       <r>     1.6730    -0.0000    16.0000 </r>
       <r>     1.7450    -0.0000    16.0000 </r>
       <r>     1.8170    -0.0000    16.0000 </r>
       <r>     1.8889    -0.0000    16.0000 </r>
       <r>     1.9609    -0.0000    16.0000 </r>
       <r>     2.0328     0.0000    16.0000 </r>
       <r>     2.1048     0.0000    16.0000 </r>
       <r>     2.1768     0.0000    16.0000 </r>
       <r>     2.2487     0.0000    16.0000 </r>
       <r>     2.3207     0.0000    16.0000 </r>
       <r>     2.3926     0.0000    16.0000 </r>
       <r>     2.4646     0.0000    16.0000 </r>
       <r>     2.5366     0.0000    16.0000 </r>
       <r>     2.6085     0.0000    16.0000 </r>
       <r>     2.6805     0.0000    16.0000 </r>
      </set>
     </set>
    </array>
   </total>
  </dos>
  <time name="totalsc">   80.54   80.75</time>
  <eigenvalues>
   <array>
    <dimension dim="1">band</dimension>
    <dimension dim="2">kpoint</dimension>
    <dimension dim="3">spin</dimension>
    <field>eigene</field>
    <field>occ</field>
    <set>
     <set comment="spin 1">
      <set comment="kpoint 1">
       <r>  -16.9337    1.0000 </r>
       <r>   -9.5660    1.0000 </r>
       <r>   -9.2241    1.0219 </r>
       <r>   -9.0504    0.9782 </r>
       <r>   -0.3076    0.0000 </r>
       <r>    0.5440    0.0000 </r>
       <r>    0.6621    0.0000 </r>
       <r>    0.6915    0.0000 </r>
      </set>
      <set comment="kpoint 2">
       <r>  -16.9338    1.0000 </r>
       <r>   -9.5658    1.0000 </r>
       <r>   -9.2241    1.0219 </r>
       <r>   -9.0503    0.9781 </r>
       <r>   -0.3007    0.0000 </r>
       <r>    0.5281    0.0000 </r>
       <r>    0.6380    0.0000 </r>
       <r>    0.6776    0.0000 </r>
      </set>
      <set comment="kpoint 3">
       <r>  -16.9336    1.0000 </r>
       <r>   -9.5660    1.0000 </r>
       <r>   -9.2240    1.0219 </r>
       <r>   -9.0503    0.9781 </r>
       <r>   -0.3055    0.0000 </r>
       <r>    0.5448    0.0000 </r>
       <r>    0.6513    0.0000 </r>
       <r>    0.6831    0.0000 </r>
      </set>
      <set comment="kpoint 4">
       <r>  -16.9338    1.0000 </r>
       <r>   -9.5658    1.0000 </r>
       <r>   -9.2239    1.0219 </r>
       <r>   -9.0503    0.9780 </r>
       <r>   -0.3042    0.0000 </r>
       <r>    0.5342    0.0000 </r>
       <r>    0.6577    0.0000 </r>
       <r>    0.6829    0.0000 </r>
      </set>
     </set>
    </set>
   </array>
  </eigenvalues>
  <separator name="orbital magnetization" >
   <v name="MAGDIPOLOUT">      0.00000000      0.00000000      0.00000000</v>
  </separator>
  <dos>
   <i name="efermi">     -8.89901259 </i>
   <total>
    <array>
     <dimension dim="1">gridpoints</dimension>
     <dimension dim="2">spin</dimension>
     <field>energy</field>
     <field>total</field>
     <field>integrated</field>
     <set>
      <set comment="spin 1">
       <r>   -18.9338     0.0000     0.0000 </r>
       <r>   -18.8617     0.0000     0.0000 </r>
       <r>   -18.7896     0.0000     0.0000 </r>
       <r>   -18.7175     0.0000     0.0000 </r>
       <r>   -18.6454     0.0000     0.0000 </r>
       <r>   -18.5733    -0.0000    -0.0000 </r>
       <r>   -18.5013    -0.0000    -0.0000 </r>
       <r>   -18.4292    -0.0000    -0.0000 </r>
       <r>   -18.3571    -0.0000    -0.0000 </r>
       <r>   -18.2850    -0.0000    -0.0000 </r>
       <r>   -18.2129    -0.0000    -0.0000 </r>
       <r>   -18.1408    -0.0000    -0.0000 </r>
       <r>   -18.0688    -0.0000    -0.0000 </r>
       <r>   -17.9967    -0.0000    -0.0000 </r>
       <r>   -17.9246    -0.0000    -0.0000 </r>
       <r>   -17.8525    -0.0000    -0.0000 </r>
       <r>   -17.7804    -0.0000    -0.0000 </r>
       <r>   -17.7083    -0.0000    -0.0000 </r>
       <r>   -17.6362    -0.0001    -0.0000 </r>
       <r>   -17.5642    -0.0010    -0.0001 </r>
       <r>   -17.4921    -0.0068    -0.0006 </r>
       <r>   -17.4200    -0.0355    -0.0031 </r>
       <r>   -17.3479    -0.1318    -0.0126 </r>
       <r>   -17.2758    -0.3267    -0.0362 </r>
       <r>   -17.2037    -0.4255    -0.0669 </r>
       <r>   -17.1317     0.2607    -0.0481 </r>
       <r>   -17.0596     2.5330     0.1345 </r>
       <r>   -16.9875     5.9387     0.5626 </r>
       <r>   -16.9154     8.2068     1.1542 </r>
       <r>   -16.8433     7.3657     1.6852 </r>
       <r>   -16.7712     4.1776     1.9863 </r>
       <r>   -16.6992     1.1616     2.0700 </r>
       <r>   -16.6271    -0.2459     2.0523 </r>
       <r>   -16.5550    -0.4175     2.0222 </r>
       <r>   -16.4829    -0.2182     2.0065 </r>
       <r>   -16.4108    -0.0708     2.0014 </r>
       <r>   -16.3387    -0.0160     2.0002 </r>
       <r>   -16.2667    -0.0026     2.0000 </r>
       <r>   -16.1946    -0.0003     2.0000 </r>
       <r>   -16.1225    -0.0000     2.0000 </r>
       <r>   -16.0504    -0.0000     2.0000 </r>
       <r>   -15.9783    -0.0000     2.0000 </r>
       <r>   -15.9062    -0.0000     2.0000 </r>
       <r>   -15.8341    -0.0000     2.0000 </r>
       <r>   -15.7621    -0.0000     2.0000 </r>
       <r>   -15.6900    -0.0000     2.0000 </r>
       <r>   -15.6179     0.0000     2.0000 </r>
       <r>   -15.5458     0.0000     2.0000 </r>
       <r>   -15.4737     0.0000     2.0000 </r>
       <r>   -15.4016     0.0000     2.0000 </r>
       <r>   -15.3296     0.0000     2.0000 </r>
       <r>   -15.2575     0.0000     2.0000 </r>
       <r>   -15.1854     0.0000     2.0000 </r>
       <r>   -15.1133     0.0000     2.0000 </r>
       <r>   -15.0412     0.0000     2.0000 </r>
       <r>   -14.9691     0.0000     2.0000 </r>
       <r>   -14.8971     0.0000     2.0000 </r>
       <r>   -14.8250     0.0000     2.0000 </r>
       <r>   -14.7529     0.0000     2.0000 </r>
       <r>   -14.6808     0.0000     2.0000 </r>
       <r>   -14.6087     0.0000     2.0000 </r>
       <r>   -14.5366     0.0000     2.0000 </r>
       <r>   -14.4645     0.0000     2.0000 </r>
       <r>   -14.3925     0.0000     2.0000 </r>
       <r>   -14.3204     0.0000     2.0000 </r>
       <r>   -14.2483     0.0000     2.0000 </r>
       <r>   -14.1762     0.0000     2.0000 </r>
       <r>   -14.1041     0.0000     2.0000 </r>
       <r>   -14.0320     0.0000     2.0000 </r>
       <r>   -13.9600     0.0000     2.0000 </r>
       <r>   -13.8879     0.0000     2.0000 </r>
       <r>   -13.8158     0.0000     2.0000 </r>
       <r>   -13.7437     0.0000     2.0000 </r>
       <r>   -13.6716     0.0000     2.0000 </r>
       <r>   -13.5995     0.0000     2.0000 </r>
       <r>   -13.5275     0.0000     2.0000 </r>
       <r>   -13.4554     0.0000     2.0000 </r>
       <r>   -13.3833     0.0000     2.0000 </r>
       <r>   -13.3112     0.0000     2.0000 </r>
       <r>   -13.2391     0.0000     2.0000 </r>
       <r>   -13.1670     0.0000     2.0000 </r>
       <r>   -13.0949     0.0000     2.0000 </r>
       <r>   -13.0229     0.0000     2.0000 </r>
       <r>   -12.9508     0.0000     2.0000 </r>
       <r>   -12.8787     0.0000     2.0000 </r>
       <r>   -12.8066     0.0000     2.0000 </r>
       <r>   -12.7345     0.0000     2.0000 </r>
       <r>   -12.6624     0.0000     2.0000 </r>
       <r>   -12.5904     0.0000     2.0000 </r>
       <r>   -12.5183     0.0000     2.0000 </r>
       <r>   -12.4462     0.0000     2.0000 </r>
       <r>   -12.3741     0.0000     2.0000 </r>
       <r>   -12.3020     0.0000     2.0000 </r>
       <r>   -12.2299     0.0000     2.0000 </r>
       <r>   -12.1579     0.0000     2.0000 </r>
       <r>   -12.0858     0.0000     2.0000 </r>
       <r>   -12.0137     0.0000     2.0000 </r>
       <r>   -11.9416     0.0000     2.0000 </r>
       <r>   -11.8695     0.0000     2.0000 </r>
       <r>   -11.7974     0.0000     2.0000 </r>
       <r>   -11.7253     0.0000     2.0000 </r>
       <r>   -11.6533     0.0000     2.0000 </r>
       <r>   -11.5812     0.0000     2.0000 </r>
       <r>   -11.5091     0.0000     2.0000 </r>
       <r>   -11.4370     0.0000     2.0000 </r>
       <r>   -11.3649     0.0000     2.0000 </r>
       <r>   -11.2928     0.0000     2.0000 </r>
       <r>   -11.2208    -0.0000     2.0000 </r>
       <r>   -11.1487    -0.0000     2.0000 </r>
       <r>   -11.0766    -0.0000     2.0000 </r>
       <r>   -11.0045    -0.0000     2.0000 </r>
       <r>   -10.9324    -0.0000     2.0000 </r>
       <r>   -10.8603    -0.0000     2.0000 </r>
       <r>   -10.7883    -0.0000     2.0000 </r>
       <r>   -10.7162    -0.0000     2.0000 </r>
       <r>   -10.6441    -0.0000     2.0000 </r>
       <r>   -10.5720    -0.0000     2.0000 </r>
       <r>   -10.4999    -0.0000     2.0000 </r>
       <r>   -10.4278    -0.0000     2.0000 </r>
       <r>   -10.3557    -0.0000     2.0000 </r>
       <r>   -10.2837    -0.0001     2.0000 </r>
       <r>   -10.2116    -0.0006     2.0000 </r>
       <r>   -10.1395    -0.0046     1.9996 </r>
       <r>   -10.0674    -0.0258     1.9978 </r>
       <r>    -9.9953    -0.1030     1.9903 </r>
       <r>    -9.9232    -0.2809     1.9701 </r>
       <r>    -9.8512    -0.4401     1.9384 </r>
       <r>    -9.7791    -0.0046     1.9380 </r>
       <r>    -9.7070     1.8748     2.0732 </r>
       <r>    -9.6349     5.0793     2.4393 </r>
       <r>    -9.5628     7.5965     2.9869 </r>
       <r>    -9.4907     7.3056     3.5135 </r>
       <r>    -9.4187     4.9994     3.8739 </r>
       <r>    -9.3466     3.9242     4.1568 </r>
       <r>    -9.2745     5.8671     4.5797 </r>
       <r>    -9.2024     9.3132     5.2510 </r>
       <r>    -9.1303    11.6761     6.0927 </r>
       <r>    -9.0582    11.6054     6.9293 </r>
       <r>    -8.9861     9.0852     7.5842 </r>
       <r>    -8.9141     5.1744     7.9571 </r>
       <r>    -8.8420     1.6905     8.0790 </r>
       <r>    -8.7699    -0.1324     8.0695 </r>
       <r>    -8.6978    -0.5045     8.0331 </r>
       <r>    -8.6257    -0.3102     8.0107 </r>
       <r>    -8.5536    -0.1139     8.0025 </r>
       <r>    -8.4816    -0.0288     8.0004 </r>
       <r>    -8.4095    -0.0053     8.0001 </r>
       <r>    -8.3374    -0.0007     8.0000 </r>
       <r>    -8.2653    -0.0001     8.0000 </r>
       <r>    -8.1932    -0.0000     8.0000 </r>
       <r>    -8.1211    -0.0000     8.0000 </r>
       <r>    -8.0491    -0.0000     8.0000 </r>
       <r>    -7.9770    -0.0000     8.0000 </r>
       <r>    -7.9049    -0.0000     8.0000 </r>
       <r>    -7.8328    -0.0000     8.0000 </r>
       <r>    -7.7607    -0.0000     8.0000 </r>
       <r>    -7.6886     0.0000     8.0000 </r>
       <r>    -7.6166     0.0000     8.0000 </r>
       <r>    -7.5445     0.0000     8.0000 </r>
       <r>    -7.4724     0.0000     8.0000 </r>
       <r>    -7.4003     0.0000     8.0000 </r>
       <r>    -7.3282     0.0000     8.0000 </r>
       <r>    -7.2561     0.0000     8.0000 </r>
       <r>    -7.1840     0.0000     8.0000 </r>
       <r>    -7.1120     0.0000     8.0000 </r>
       <r>    -7.0399     0.0000     8.0000 </r>
       <r>    -6.9678     0.0000     8.0000 </r>
       <r>    -6.8957     0.0000     8.0000 </r>
       <r>    -6.8236     0.0000     8.0000 </r>
       <r>    -6.7515     0.0000     8.0000 </r>
       <r>    -6.6795     0.0000     8.0000 </r>
       <r>    -6.6074     0.0000     8.0000 </r>
       <r>    -6.5353     0.0000     8.0000 </r>
       <r>    -6.4632     0.0000     8.0000 </r>
       <r>    -6.3911     0.0000     8.0000 </r>
       <r>    -6.3190     0.0000     8.0000 </r>
       <r>    -6.2470     0.0000     8.0000 </r>
       <r>    -6.1749     0.0000     8.0000 </r>
       <r>    -6.1028     0.0000     8.0000 </r>
       <r>    -6.0307     0.0000     8.0000 </r>
       <r>    -5.9586     0.0000     8.0000 </r>
       <r>    -5.8865     0.0000     8.0000 </r>
       <r>    -5.8144     0.0000     8.0000 </r>
       <r>    -5.7424     0.0000     8.0000 </r>
       <r>    -5.6703     0.0000     8.0000 </r>
       <r>    -5.5982     0.0000     8.0000 </r>
       <r>    -5.5261     0.0000     8.0000 </r>
       <r>    -5.4540     0.0000     8.0000 </r>
       <r>    -5.3819     0.0000     8.0000 </r>
       <r>    -5.3099     0.0000     8.0000 </r>
       <r>    -5.2378     0.0000     8.0000 </r>
       <r>    -5.1657     0.0000     8.0000 </r>
       <r>    -5.0936     0.0000     8.0000 </r>
       <r>    -5.0215     0.0000     8.0000 </r>
       <r>    -4.9494     0.0000     8.0000 </r>
       <r>    -4.8774     0.0000     8.0000 </r>
       <r>    -4.8053     0.0000     8.0000 </r>
       <r>    -4.7332     0.0000     8.0000 </r>
       <r>    -4.6611     0.0000     8.0000 </r>
       <r>    -4.5890     0.0000     8.0000 </r>
       <r>    -4.5169     0.0000     8.0000 </r>
       <r>    -4.4448     0.0000     8.0000 </r>
       <r>    -4.3728     0.0000     8.0000 </r>
       <r>    -4.3007     0.0000     8.0000 </r>
       <r>    -4.2286     0.0000     8.0000 </r>
       <r>    -4.1565     0.0000     8.0000 </r>
       <r>    -4.0844     0.0000     8.0000 </r>
       <r>    -4.0123     0.0000     8.0000 </r>
       <r>    -3.9403     0.0000     8.0000 </r>
       <r>    -3.8682     0.0000     8.0000 </r>
       <r>    -3.7961     0.0000     8.0000 </r>
       <r>    -3.7240     0.0000     8.0000 </r>
       <r>    -3.6519     0.0000     8.0000 </r>
       <r>    -3.5798     0.0000     8.0000 </r>
       <r>    -3.5078     0.0000     8.0000 </r>
       <r>    -3.4357     0.0000     8.0000 </r>
       <r>    -3.3636     0.0000     8.0000 </r>
       <r>    -3.2915     0.0000     8.0000 </r>
       <r>    -3.2194     0.0000     8.0000 </r>
       <r>    -3.1473     0.0000     8.0000 </r>
       <r>    -3.0752     0.0000     8.0000 </r>
       <r>    -3.0032     0.0000     8.0000 </r>
       <r>    -2.9311     0.0000     8.0000 </r>
       <r>    -2.8590     0.0000     8.0000 </r>
       <r>    -2.7869     0.0000     8.0000 </r>
       <r>    -2.7148     0.0000     8.0000 </r>
       <r>    -2.6427     0.0000     8.0000 </r>
       <r>    -2.5707     0.0000     8.0000 </r>
       <r>    -2.4986     0.0000     8.0000 </r>
       <r>    -2.4265     0.0000     8.0000 </r>
       <r>    -2.3544     0.0000     8.0000 </r>
       <r>    -2.2823     0.0000     8.0000 </r>
       <r>    -2.2102     0.0000     8.0000 </r>
       <r>    -2.1382     0.0000     8.0000 </r>
       <r>    -2.0661     0.0000     8.0000 </r>
       <r>    -1.9940     0.0000     8.0000 </r>
       <r>    -1.9219    -0.0000     8.0000 </r>
       <r>    -1.8498    -0.0000     8.0000 </r>
       <r>    -1.7777    -0.0000     8.0000 </r>
       <r>    -1.7056    -0.0000     8.0000 </r>
       <r>    -1.6336    -0.0000     8.0000 </r>
       <r>    -1.5615    -0.0000     8.0000 </r>
       <r>    -1.4894    -0.0000     8.0000 </r>
       <r>    -1.4173    -0.0000     8.0000 </r>
       <r>    -1.3452    -0.0000     8.0000 </r>
       <r>    -1.2731    -0.0000     8.0000 </r>
       <r>    -1.2011    -0.0000     8.0000 </r>
       <r>    -1.1290    -0.0000     8.0000 </r>
       <r>    -1.0569    -0.0000     8.0000 </r>
       <r>    -0.9848    -0.0002     8.0000 </r>
       <r>    -0.9127    -0.0018     7.9999 </r>
       <r>    -0.8406    -0.0118     7.9990 </r>
       <r>    -0.7686    -0.0553     7.9950 </r>
       <r>    -0.6965    -0.1830     7.9818 </r>
       <r>    -0.6244    -0.3886     7.9538 </r>
       <r>    -0.5523    -0.3416     7.9292 </r>
       <r>    -0.4802     0.7755     7.9851 </r>
       <r>    -0.4081     3.5406     8.2403 </r>
       <r>    -0.3360     6.8862     8.7367 </r>
       <r>    -0.2640     8.3033     9.3352 </r>
       <r>    -0.1919     6.5218     9.8054 </r>
       <r>    -0.1198     3.1215    10.0304 </r>
       <r>    -0.0477     0.5441    10.0696 </r>
       <r>     0.0244    -0.4075    10.0402 </r>
       <r>     0.0965    -0.4601    10.0070 </r>
       <r>     0.1685    -0.4638     9.9736 </r>
       <r>     0.2406    -0.6957     9.9235 </r>
       <r>     0.3127    -0.7275     9.8710 </r>
       <r>     0.3848     0.6409     9.9172 </r>
       <r>     0.4569     4.7983    10.2631 </r>
       <r>     0.5290    11.7137    11.1075 </r>
       <r>     0.6010    18.6455    12.4515 </r>
       <r>     0.6731    21.2963    13.9866 </r>
       <r>     0.7452    17.4957    15.2478 </r>
       <r>     0.8173     9.7365    15.9497 </r>
       <r>     0.8894     2.8788    16.1572 </r>
       <r>     0.9615    -0.4301    16.1262 </r>
       <r>     1.0335    -0.9586    16.0571 </r>
       <r>     1.1056    -0.5449    16.0178 </r>
       <r>     1.1777    -0.1907    16.0040 </r>
       <r>     1.2498    -0.0465    16.0007 </r>
       <r>     1.3219    -0.0083    16.0001 </r>
       <r>     1.3940    -0.0011    16.0000 </r>
       <r>     1.4661    -0.0001    16.0000 </r>
       <r>     1.5381    -0.0000    16.0000 </r>
       <r>     1.6102    -0.0000    16.0000 </r>
       <r>     1.6823    -0.0000    16.0000 </r>
       <r>     1.7544    -0.0000    16.0000 </r>
       <r>     1.8265    -0.0000    16.0000 </r>
       <r>     1.8986    -0.0000    16.0000 </r>
       <r>     1.9706    -0.0000    16.0000 </r>
       <r>     2.0427     0.0000    16.0000 </r>
       <r>     2.1148     0.0000    16.0000 </r>
       <r>     2.1869     0.0000    16.0000 </r>
       <r>     2.2590     0.0000    16.0000 </r>
       <r>     2.3311     0.0000    16.0000 </r>
       <r>     2.4031     0.0000    16.0000 </r>
       <r>     2.4752     0.0000    16.0000 </r>
       <r>     2.5473     0.0000    16.0000 </r>
       <r>     2.6194     0.0000    16.0000 </r>
       <r>     2.6915     0.0000    16.0000 </r>
      </set>
     </set>
    </array>
   </total>
  </dos>
 </calculation>
 <structure name="finalpos" >
  <crystal>
   <varray name="basis" >
    <v>      10.23121120       0.00000000       0.00000000 </v>
    <v>       0.20240482      10.22041284       0.00000000 </v>
    <v>       0.22392373      -0.03019508      10.26643294 </v>
   </varray>
   <i name="volume">   1073.53216999 </i>
   <varray name="rec_basis" >
    <v>       0.09774014      -0.00193564      -0.00213753 </v>
    <v>      -0.00000000       0.09784341       0.00028777 </v>
    <v>       0.00000000       0.00000000       0.09740481 </v>
   </varray>
  </crystal>
  <varray name="positions" >
   <v>       0.54221237       0.41085270       0.35988878 </v>
   <v>       0.40286116       0.48553986       0.43600922 </v>
   <v>       0.55535327       0.56138612       0.44701391 </v>
   <v>       0.52147248       0.41588383       0.53542194 </v>
   <v>       0.50200074       0.46622194       0.44501021 </v>
  </varray>
  <varray name="velocities" >
   <v>       0.00135571       0.00243769      -0.00083903 </v>
   <v>       0.00628739       0.00077996      -0.00071554 </v>
   <v>       0.00209052       0.00135272       0.00079528 </v>
   <v>      -0.00004906      -0.00208182       0.00001877 </v>
   <v>      -0.00080631      -0.00020719       0.00006165 </v>
  </varray>
 </structure>
</modeling>
