unknown system                          
           1
    10.231211    0.000000    0.000000
     0.202405   10.220413    0.000000
     0.223924   -0.030195   10.266433
   H    C 
   4   1
Direct configuration=     1
   0.53818446  0.40657853  0.36041583
   0.39466175  0.48020513  0.43835736
   0.55224052  0.56558895  0.44269338
   0.52816679  0.41609558  0.53884524
   0.50272056  0.46665440  0.44484553
Direct configuration=     2
   0.53877017  0.40378665  0.36295533
   0.39475926  0.48040678  0.43845537
   0.54959705  0.56366898  0.44409528
   0.52695770  0.41789633  0.53535132
   0.50298443  0.46687998  0.44480011
Direct configuration=     3
   0.53769981  0.40273251  0.36669153
   0.39657295  0.48154416  0.43881064
   0.54802810  0.56217728  0.44428347
   0.52767501  0.41750743  0.53217579
   0.50299344  0.46702963  0.44470819
Direct configuration=     4
   0.53725449  0.40003507  0.36764953
   0.40131228  0.48350707  0.44091656
   0.54829997  0.56218602  0.44271206
   0.52806456  0.41625975  0.53498070
   0.50258087  0.46719393  0.44435040
Direct configuration=     5
   0.53698775  0.39935832  0.36737960
   0.40232102  0.48223454  0.44081702
   0.55072842  0.56459166  0.44063206
   0.52696501  0.41516427  0.53948169
   0.50240845  0.46724714  0.44417959
Direct configuration=     6
   0.53721045  0.39976068  0.36554266
   0.39488712  0.48082572  0.43932931
   0.55259986  0.56441051  0.44049013
   0.52418595  0.41790811  0.53798594
   0.50308440  0.46711758  0.44459274
Direct configuration=     7
   0.53734527  0.40184973  0.36415724
   0.39026655  0.48100383  0.43845787
   0.55303853  0.56092468  0.44266940
   0.52230503  0.42042955  0.53706007
   0.50357795  0.46700911  0.44467629
Direct configuration=     8
   0.53748459  0.40432754  0.36321614
   0.39130220  0.48014113  0.43656346
   0.55265478  0.55874621  0.44430879
   0.52326628  0.41824030  0.54280219
   0.50343204  0.46723829  0.44429780
Direct configuration=     9
   0.53950671  0.40711951  0.36147611
   0.39135171  0.48288461  0.43648228
   0.55269934  0.55850929  0.44538348
   0.52262124  0.41759489  0.54127923
   0.50330956  0.46685088  0.44448675
Direct configuration=    10
   0.54085666  0.40841501  0.36072781
   0.39657377  0.48475990  0.43672476
   0.55326275  0.56003340  0.44621864
   0.52152155  0.41796565  0.53540317
   0.50280704  0.46642913  0.44494855
