ITEM: TIMESTEP
0
ITEM: NUMBER OF ATOMS
40
ITEM: BOX BOUNDS xy xz yz pp pp pp
-9.8757300000000006e-02 2.0492245900000000e+01 4.6357460000000000e-01
-1.2918030000000000e-01 1.9766445200000000e+01 -9.8757300000000006e-02
0.0000000000000000e+00 2.0250841200000000e+01 -1.2918030000000000e-01
ITEM: ATOMS id type x y z 
1 1 5.46824 3.99408 3.65577 
2 1 4.04478 4.71206 4.44449 
3 1 5.63947 5.56622 4.48694 
4 1 5.36178 4.08136 5.46053 
5 1 5.42155 3.9354 13.7773 
6 1 3.99426 4.6533 14.5678 
7 1 5.58876 5.49528 14.6079 
8 1 5.30465 4.01203 15.5807 
9 1 5.69845 13.8798 3.6526 
10 1 4.27295 14.6026 4.44133 
11 1 5.86387 15.4455 4.48853 
12 1 5.59521 13.9597 5.46021 
13 1 5.64583 13.8194 13.7729 
14 1 4.22144 14.5444 14.5697 
15 1 5.82058 15.3796 14.6071 
16 1 5.53852 13.9015 15.5851 
17 1 15.4818 3.99828 3.65294 
18 1 14.0482 4.72034 4.43478 
19 1 15.6532 5.56714 4.48434 
20 1 15.3782 4.08677 5.46138 
21 1 15.431 3.93389 13.775 
22 1 14.0047 4.65458 14.566 
23 1 15.5985 5.50193 14.6098 
24 1 15.3271 4.01814 15.5762 
25 1 15.7174 13.8817 3.65025 
26 1 14.2877 14.5961 4.43677 
27 1 15.8817 15.4508 4.4821 
28 1 15.6071 13.9645 5.4546 
29 1 15.6613 13.8151 13.7772 
30 1 14.2393 14.5402 14.5624 
31 1 15.8406 15.3744 14.6123 
32 1 15.5568 13.9066 15.5838 
33 2 5.1286 4.58726 4.50938 
34 2 5.07993 4.52787 14.6355 
35 2 5.36253 14.4761 4.50411 
36 2 5.30888 14.4074 14.6333 
37 2 15.1407 4.59338 4.51048 
38 2 15.0875 4.52545 14.6275 
39 2 15.3749 14.4755 4.50453 
40 2 15.3227 14.411 14.6366 
