ITEM: TIMESTEP
10
ITEM: NUMBER OF ATOMS
40
ITEM: BOX BOUNDS xy xz yz pp pp pp
-1.0739711371880829e-01 2.0501197384295647e+01 4.6397064087578094e-01
-1.3773409223362842e-01 1.9774888630968931e+01 -9.8841670298937381e-02
-8.6503454720681106e-03 2.0259491545472073e+01 -1.2929066126471478e-01
ITEM: ATOMS id type x y z 
1 1 5.43452 4.00803 3.59626 
2 1 4.0204 4.52885 4.53476 
3 1 5.41623 5.63983 4.31537 
4 1 5.53882 4.21957 5.38202 
5 1 5.33552 3.82743 13.8596 
6 1 3.9289 4.61446 14.6142 
7 1 5.55 5.46968 14.4773 
8 1 5.33841 4.09339 15.5998 
9 1 5.60561 13.9432 3.62737 
10 1 4.23351 14.6288 4.52063 
11 1 5.83781 15.4999 4.49299 
12 1 5.62794 13.9685 5.46675 
13 1 5.55112 13.7881 13.7561 
14 1 4.22872 14.5702 14.7127 
15 1 5.85746 15.3393 14.6098 
16 1 5.63678 13.8628 15.5637 
17 1 15.5704 4.18193 3.59491 
18 1 14.0872 4.64121 4.52724 
19 1 15.6187 5.60084 4.66746 
20 1 15.533 3.9843 5.40009 
21 1 15.3954 3.89055 13.839 
22 1 14.0125 4.63907 14.6205 
23 1 15.5722 5.53875 14.5076 
24 1 15.409 4.14812 15.6349 
25 1 15.7799 13.8208 3.70779 
26 1 14.342 14.5421 4.36137 
27 1 15.9165 15.4571 4.37649 
28 1 15.6461 14.0392 5.47734 
29 1 15.6161 13.6624 13.7911 
30 1 14.2398 14.5204 14.5197 
31 1 15.8488 15.3065 14.4599 
32 1 15.5711 13.9542 15.592 
33 2 5.10088 4.59496 4.44928 
34 2 5.01866 4.53043 14.6429 
35 2 5.3391 14.5163 4.5311 
36 2 5.3109 14.3846 14.6467 
37 2 15.1921 4.59253 4.54348 
38 2 15.0985 4.54929 14.6547 
39 2 15.4203 14.4832 4.49891 
40 2 15.3183 14.3545 14.5954 
