ITEM: TIMESTEP
100
ITEM: NUMBER OF ATOMS
40
ITEM: BOX BOUNDS xy xz yz pp pp pp
-3.2541525499191265e-01 2.0727080259932762e+01 4.7396438592817114e-01
-3.5358155657790274e-01 1.9987951225339792e+01 -1.0097068098731937e-01
-2.2693424632560877e-01 2.0477775446325602e+01 -1.3207553123815846e-01
ITEM: ATOMS id type x y z 
1 1 5.02357 3.97917 2.92774 
2 1 5.43239 4.39144 4.60828 
3 1 3.73262 4.43868 4.08224 
4 1 4.89784 5.66784 3.51578 
5 1 4.57675 3.35755 14.941 
6 1 3.4304 4.69091 15.2152 
7 1 4.43368 4.55195 13.685 
8 1 5.19895 4.96457 15.2473 
9 1 4.71197 14.6274 3.72251 
10 1 4.12853 14.9855 5.36598 
11 1 5.41299 16.0075 4.61785 
12 1 5.76996 14.2778 5.11234 
13 1 4.45934 13.9004 14.2274 
14 1 4.93501 14.5602 15.8538 
15 1 5.83978 15.0139 14.3742 
16 1 5.98828 13.4008 15.0767 
17 1 15.4809 5.56823 4.57206 
18 1 15.041 3.80291 4.45297 
19 1 15.8949 4.48084 5.89695 
20 1 16.773 4.33264 4.38397 
21 1 15.5603 3.66566 15.1022 
22 1 14.3189 4.8614 15.4415 
23 1 15.153 4.85215 13.8664 
24 1 16.0203 5.36275 15.4119 
25 1 16.6044 13.7147 4.4205 
26 1 14.9901 14.2074 4.0387 
27 1 16.3677 15.2059 3.48538 
28 1 15.8947 15.0995 5.27072 
29 1 15.3568 12.8209 14.3309 
30 1 14.3294 14.2583 14.1599 
31 1 15.8801 14.1578 13.3099 
32 1 15.815 14.4209 15.0938 
33 2 4.7778 4.61331 3.78111 
34 2 4.39004 4.42404 14.7643 
35 2 5.02221 14.9764 4.70382 
36 2 5.29503 14.2169 14.8763 
37 2 15.7922 4.5398 4.82195 
38 2 15.2657 4.67963 14.971 
39 2 15.9529 14.5805 4.31918 
40 2 15.3388 13.9123 14.23 
