ITEM: TIMESTEP
20
ITEM: NUMBER OF ATOMS
40
ITEM: BOX BOUNDS xy xz yz pp pp pp
-1.1722507608783203e-01 2.0511379878232180e+01 4.6442114536007284e-01
-1.4746420342821490e-01 1.9784493203998931e+01 -9.8937643215716159e-02
-1.8490287922844573e-02 2.0269331487922848e+01 -1.2941619942929963e-01
ITEM: ATOMS id type x y z 
1 1 5.39829 4.02064 3.53493 
2 1 4.04421 4.35749 4.61848 
3 1 5.1682 5.66973 4.15373 
4 1 5.69397 4.37857 5.26185 
5 1 5.23073 3.74034 13.9224 
6 1 3.8736 4.62891 14.6731 
7 1 5.44945 5.45942 14.3635 
8 1 5.34055 4.22158 15.6369 
9 1 5.53768 14.0075 3.61751 
10 1 4.19987 14.6707 4.62004 
11 1 5.81963 15.5427 4.51462 
12 1 5.67863 13.9964 5.46314 
13 1 5.43207 13.7647 13.7495 
14 1 4.24857 14.5842 14.8312 
15 1 5.88228 15.3038 14.5831 
16 1 5.72072 13.7977 15.5231 
17 1 15.6149 4.36203 3.56469 
18 1 14.1425 4.53453 4.59944 
19 1 15.5705 5.61039 4.85372 
20 1 15.6734 3.88531 5.30902 
21 1 15.3805 3.84079 13.9243 
22 1 14.0217 4.62976 14.6962 
23 1 15.5448 5.56177 14.4184 
24 1 15.4943 4.28533 15.6764 
25 1 15.8732 13.7677 3.77141 
26 1 14.3942 14.5304 4.32693 
27 1 15.9395 15.4657 4.30932 
28 1 15.6839 14.1637 5.50919 
29 1 15.5745 13.5024 13.8343 
30 1 14.2389 14.4903 14.4867 
31 1 15.8615 15.2262 14.316 
32 1 15.5867 13.9969 15.5829 
33 2 5.07221 4.60302 4.39101 
34 2 4.96453 4.5208 14.6486 
35 2 5.30998 14.5555 4.554 
36 2 5.31546 14.3643 14.6661 
37 2 15.2495 4.59524 4.57765 
38 2 15.1084 4.57321 14.6798 
39 2 15.4657 14.483 4.48447 
40 2 15.3141 14.301 14.5518 
