ITEM: TIMESTEP
30
ITEM: NUMBER OF ATOMS
40
ITEM: BOX BOUNDS xy xz yz pp pp pp
-1.2818140693060673e-01 2.0522731445137328e+01 4.6492337318622035e-01
-1.5831144860295160e-01 1.9795200497715477e+01 -9.9044634979490981e-02
-2.9459974305073189e-02 2.0280301174305073e+01 -1.2955615088749012e-01
ITEM: ATOMS id type x y z 
1 1 5.35989 4.0271 3.47081 
2 1 4.11389 4.20445 4.70249 
3 1 4.89705 5.65391 4.01783 
4 1 5.81291 4.56022 5.10728 
5 1 5.11632 3.6574 13.9907 
6 1 3.82635 4.663 14.7311 
7 1 5.31631 5.44285 14.2512 
8 1 5.32322 4.3666 15.6647 
9 1 5.47041 14.0676 3.62111 
10 1 4.179 14.7151 4.73213 
11 1 5.79469 15.5818 4.54593 
12 1 5.724 14.0314 5.44646 
13 1 5.30037 13.7563 13.7543 
14 1 4.27929 14.5957 14.9391 
15 1 5.89089 15.2721 14.5434 
16 1 5.78935 13.7253 15.4722 
17 1 15.6332 4.54661 3.56296 
18 1 14.2153 4.41534 4.64581 
19 1 15.5214 5.58557 5.03934 
20 1 15.8126 3.80582 5.18886 
21 1 15.3835 3.79094 14.0286 
22 1 14.0347 4.62856 14.7888 
23 1 15.514 5.57367 14.3353 
24 1 15.5766 4.42396 15.701 
25 1 15.9736 13.7158 3.84614 
26 1 14.4452 14.5295 4.30694 
27 1 15.9559 15.4767 4.2518 
28 1 15.7084 14.3043 5.53147 
29 1 15.5344 13.3535 13.8979 
30 1 14.2384 14.4535 14.4509 
31 1 15.877 15.1286 14.1664 
32 1 15.6056 14.0322 15.5589 
33 2 5.04356 4.61151 4.33156 
34 2 4.91293 4.50754 14.6554 
35 2 5.27956 14.5962 4.57485 
36 2 5.32228 14.3434 14.6884 
37 2 15.3097 4.59921 4.61416 
38 2 15.1179 4.59707 14.7039 
39 2 15.514 14.481 4.46691 
40 2 15.3098 14.2485 14.508 
