ITEM: TIMESTEP
40
ITEM: NUMBER OF ATOMS
40
ITEM: BOX BOUNDS xy xz yz pp pp pp
-1.4111175258469449e-01 2.0536128236992681e+01 4.6551608798119865e-01
-1.7111305449790867e-01 1.9807836936936013e+01 -9.9170903573201949e-02
-4.2406081781622973e-02 2.0293247281781625e+01 -1.2972131756191471e-01
ITEM: ATOMS id type x y z 
1 1 5.32617 4.0275 3.40294 
2 1 4.23131 4.08419 4.79419 
3 1 4.61733 5.5917 3.92862 
4 1 5.87928 4.76791 4.92593 
5 1 5.0261 3.57435 14.1006 
6 1 3.7671 4.6533 14.787 
7 1 5.2194 5.38164 14.1191 
8 1 5.32861 4.46558 15.6561 
9 1 5.37413 14.1288 3.63374 
10 1 4.17005 14.7512 4.82879 
11 1 5.74452 15.6302 4.56312 
12 1 5.74428 14.0505 5.41669 
13 1 5.18235 13.7544 13.7712 
14 1 4.32998 14.6138 15.0736 
15 1 5.89979 15.2363 14.5235 
16 1 5.85305 13.6718 15.4214 
17 1 15.6549 4.75449 3.59969 
18 1 14.2987 4.30598 4.68215 
19 1 15.4975 5.51654 5.2213 
20 1 15.9741 3.78039 5.05934 
21 1 15.3887 3.75173 14.1391 
22 1 14.0536 4.63608 14.8773 
23 1 15.4673 5.56845 14.2381 
24 1 15.6518 4.55757 15.7149 
25 1 16.0541 13.6681 3.9277 
26 1 14.5011 14.4879 4.25876 
27 1 15.9868 15.4738 4.14358 
28 1 15.7297 14.3991 5.53925 
29 1 15.4963 13.2307 13.957 
30 1 14.2437 14.4238 14.401 
31 1 15.8815 15.0139 14.0077 
32 1 15.6279 14.0746 15.5262 
33 2 5.01354 4.61856 4.26673 
34 2 4.85226 4.50412 14.6648 
35 2 5.25277 14.6404 4.59809 
36 2 5.32578 14.3203 14.7075 
37 2 15.3679 4.59845 4.64934 
38 2 15.1302 4.62006 14.7318 
39 2 15.5656 14.4882 4.45491 
40 2 15.3065 14.1939 14.4668 
