ITEM: TIMESTEP
50
ITEM: NUMBER OF ATOMS
40
ITEM: BOX BOUNDS xy xz yz pp pp pp
-1.5723988569170916e-01 2.0552838172521888e+01 4.6625538632353541e-01
-1.8708060937856391e-01 1.9823598477980603e+01 -9.9328399493348651e-02
-5.8553874747504508e-02 2.0309395074747513e+01 -1.2992733139798890e-01
ITEM: ATOMS id type x y z 
1 1 5.2958 4.0293 3.32796 
2 1 4.39479 4.00566 4.87835 
3 1 4.35047 5.48262 3.88332 
4 1 5.88386 4.99238 4.71554 
5 1 4.96362 3.50537 14.2418 
6 1 3.70018 4.61758 14.8543 
7 1 5.14695 5.27656 13.9853 
8 1 5.35498 4.52993 15.6153 
9 1 5.26316 14.2003 3.65407 
10 1 4.16558 14.7858 4.90797 
11 1 5.67775 15.6827 4.56637 
12 1 5.7521 14.0626 5.37264 
13 1 5.07643 13.7519 13.8004 
14 1 4.4073 14.6275 15.2335 
15 1 5.91923 15.1927 14.5186 
16 1 5.91166 13.6317 15.3693 
17 1 15.6726 4.97327 3.68173 
18 1 14.3924 4.20041 4.71271 
19 1 15.5034 5.40688 5.39549 
20 1 16.1485 3.8113 4.93487 
21 1 15.3945 3.72202 14.2532 
22 1 14.0777 4.65293 14.9585 
23 1 15.4042 5.53231 14.1288 
24 1 15.7226 4.6909 15.7192 
25 1 16.1258 13.6336 4.01015 
26 1 14.568 14.4172 4.19207 
27 1 16.0337 15.4463 3.99987 
28 1 15.7608 14.4682 5.53744 
29 1 15.4624 13.1284 14.0077 
30 1 14.2557 14.402 14.3468 
31 1 15.8735 14.8876 13.8547 
32 1 15.6495 14.1307 15.4846 
33 2 4.98034 4.62289 4.19699 
34 2 4.78165 4.50603 14.6755 
35 2 5.22629 14.6878 4.62348 
36 2 5.32401 14.2979 14.7248 
37 2 15.4265 4.59321 4.68093 
38 2 15.1461 4.6411 14.7649 
39 2 15.619 14.5029 4.44549 
40 2 15.3052 14.1381 14.4266 
