ITEM: TIMESTEP
60
ITEM: NUMBER OF ATOMS
40
ITEM: BOX BOUNDS xy xz yz pp pp pp
-1.7784852218670610e-01 2.0574190240048321e+01 4.6720006669648823e-01
-2.0748405794050995e-01 1.9843738680683124e+01 -9.9529648834869575e-02
-7.9187632741824387e-02 2.0330028832741839e+01 -1.3019057725740857e-01
ITEM: ATOMS id type x y z 
1 1 5.25601 4.03429 3.24582 
2 1 4.59595 3.96778 4.9278 
3 1 4.11043 5.32228 3.86485 
4 1 5.82147 5.21332 4.47072 
5 1 4.8889 3.4514 14.3721 
6 1 3.64265 4.62389 14.9251 
7 1 5.03159 5.17149 13.8836 
8 1 5.35692 4.63281 15.5677 
9 1 5.17191 14.2813 3.67517 
10 1 4.16435 14.8313 4.9993 
11 1 5.62098 15.7293 4.5778 
12 1 5.76843 14.0957 5.31938 
13 1 4.95946 13.759 13.847 
14 1 4.49379 14.6229 15.3794 
15 1 5.93089 15.1483 14.4924 
16 1 5.95187 13.579 15.3084 
17 1 15.6561 5.16454 3.79457 
18 1 14.5065 4.08677 4.71368 
19 1 15.5219 5.26218 5.5593 
20 1 16.3058 3.8672 4.80683 
21 1 15.4147 3.69492 14.3863 
22 1 14.1093 4.68145 15.0512 
23 1 15.3439 5.46125 14.0302 
24 1 15.7917 4.83095 15.7062 
25 1 16.2251 13.6196 4.0984 
26 1 14.6351 14.3787 4.14685 
27 1 16.0811 15.4154 3.88566 
28 1 15.7959 14.581 5.52173 
29 1 15.4347 13.0377 14.0693 
30 1 14.2679 14.3756 14.3081 
31 1 15.8706 14.7539 13.7203 
32 1 15.6681 14.1869 15.4302 
33 2 4.94402 4.62569 4.12519 
34 2 4.71124 4.49684 14.6875 
35 2 5.19246 14.7368 4.64611 
36 2 5.32224 14.2786 14.7476 
37 2 15.4923 4.58897 4.71234 
38 2 15.1634 4.65829 14.7998 
39 2 15.6751 14.5124 4.42887 
40 2 15.3059 14.0853 14.3839 
