ITEM: TIMESTEP
70
ITEM: NUMBER OF ATOMS
40
ITEM: BOX BOUNDS xy xz yz pp pp pp
-2.0364893133743150e-01 2.0600921366997440e+01 4.6838273300945660e-01
-2.3302758776656010e-01 1.9868952647178688e+01 -9.9781597349455395e-02
-1.0501949205477601e-01 2.0355860692054783e+01 -1.3052014058790409e-01
ITEM: ATOMS id type x y z 
1 1 5.20036 4.03448 3.16282 
2 1 4.82324 3.97757 4.92833 
3 1 3.91082 5.11094 3.87381 
4 1 5.68329 5.40903 4.20374 
5 1 4.78249 3.401 14.4916 
6 1 3.59717 4.67521 14.9852 
7 1 4.8612 5.07959 13.8127 
8 1 5.31389 4.78573 15.516 
9 1 5.09516 14.3631 3.69095 
10 1 4.16829 14.8815 5.11271 
11 1 5.58156 15.7759 4.60478 
12 1 5.78893 14.1505 5.26669 
13 1 4.826 13.7866 13.9151 
14 1 4.57265 14.6063 15.498 
15 1 5.91477 15.1112 14.4386 
16 1 5.96925 13.5113 15.2417 
17 1 15.6023 5.31514 3.92809 
18 1 14.6427 3.97646 4.67009 
19 1 15.5519 5.08423 5.70399 
20 1 16.4391 3.93617 4.66755 
21 1 15.4526 3.67141 14.5499 
22 1 14.1528 4.72262 15.1624 
23 1 15.2982 5.3603 13.9521 
24 1 15.8562 4.97558 15.6695 
25 1 16.3467 13.6262 4.19846 
26 1 14.6966 14.3781 4.12908 
27 1 16.1256 15.4 3.81116 
28 1 15.8207 14.7398 5.48011 
29 1 15.4121 12.9613 14.1442 
30 1 14.2773 14.3391 14.2843 
31 1 15.8805 14.6095 13.6007 
32 1 15.6888 14.2336 15.3646 
33 2 4.90527 4.62831 4.05051 
34 2 4.6448 4.47472 14.7023 
35 2 5.15093 14.7886 4.66363 
36 2 5.32392 14.261 14.7774 
37 2 15.5665 4.58621 4.74642 
38 2 15.1811 4.67018 14.835 
39 2 15.7367 14.5152 4.4037 
40 2 15.3083 14.0378 14.3393 
