ITEM: TIMESTEP
80
ITEM: NUMBER OF ATOMS
40
ITEM: BOX BOUNDS xy xz yz pp pp pp
-2.3484001595477233e-01 2.0633237631352621e+01 4.6981250277885744e-01
-2.6390812131063723e-01 1.9899434759222224e+01 -1.0008618738102237e-01
-1.3624859795563538e-01 2.0387089797955632e+01 -1.3091856208843952e-01
ITEM: ATOMS id type x y z 
1 1 5.13803 4.02392 3.08461 
2 1 5.05668 4.05518 4.87882 
3 1 3.77553 4.87297 3.92271 
4 1 5.46756 5.56 3.9464 
5 1 4.68663 3.36628 14.6309 
6 1 3.55044 4.70744 15.0473 
7 1 4.69571 4.94951 13.7506 
8 1 5.26001 4.90336 15.4423 
9 1 4.9934 14.4426 3.70257 
10 1 4.16877 14.9216 5.21913 
11 1 5.53747 15.8378 4.62833 
12 1 5.79419 14.1995 5.21993 
13 1 4.69315 13.8281 14.0017 
14 1 4.6648 14.5914 15.6128 
15 1 5.88355 15.0779 14.3943 
16 1 5.97947 13.456 15.1817 
17 1 15.5421 5.43792 4.10179 
18 1 14.7881 3.88911 4.59935 
19 1 15.621 4.88584 5.813 
20 1 16.5632 4.04268 4.54081 
21 1 15.4916 3.65855 14.7318 
22 1 14.2059 4.77079 15.2705 
23 1 15.2537 5.22385 13.8908 
24 1 15.9138 5.11957 15.6087 
25 1 16.4486 13.6453 4.29265 
26 1 14.7722 14.3527 4.11026 
27 1 16.1829 15.3679 3.72339 
28 1 15.8357 14.8815 5.41882 
29 1 15.3915 12.9017 14.2107 
30 1 14.2886 14.3021 14.2527 
31 1 15.8877 14.4544 13.4895 
32 1 15.72 14.2842 15.2885 
33 2 4.86398 4.62901 3.96913 
34 2 4.57241 4.45522 14.7197 
35 2 5.10922 14.8453 4.6791 
36 2 5.3233 14.2428 14.8085 
37 2 15.6429 4.57882 4.77909 
38 2 15.2022 4.67779 14.8736 
39 2 15.804 14.525 4.37761 
40 2 15.3132 13.9935 14.2977 
