ITEM: TIMESTEP
90
ITEM: NUMBER OF ATOMS
40
ITEM: BOX BOUNDS xy xz yz pp pp pp
-2.7416078720985815e-01 2.0673976850719878e+01 4.7161492968192148e-01
-3.0283739903913121e-01 1.9937861770329427e+01 -1.0047016617190943e-01
-1.7561730041318668e-01 2.0426458500413176e+01 -1.3142082870974681e-01
ITEM: ATOMS id type x y z 
1 1 5.07945 4.00452 3.00838 
2 1 5.26557 4.2026 4.7755 
3 1 3.71827 4.64589 4.00083 
4 1 5.19727 5.6486 3.71943 
5 1 4.62727 3.3561 14.7861 
6 1 3.491 4.6933 15.1331 
7 1 4.56915 4.75385 13.696 
8 1 5.23348 4.94417 15.3538 
9 1 4.85553 14.5279 3.71353 
10 1 4.15235 14.9516 5.29813 
11 1 5.47545 15.9201 4.62998 
12 1 5.78207 14.2323 5.17169 
13 1 4.57264 13.8663 14.1035 
14 1 4.79324 14.5787 15.7385 
15 1 5.86245 15.0447 14.3791 
16 1 5.99161 13.4255 15.1308 
17 1 15.5038 5.5314 4.32593 
18 1 14.9233 3.83124 4.52605 
19 1 15.7421 4.68568 5.87719 
20 1 16.6815 4.18667 4.45287 
21 1 15.523 3.65681 14.9156 
22 1 14.2604 4.81657 15.3594 
23 1 15.1998 5.04751 13.8565 
24 1 15.9674 5.25557 15.522 
25 1 16.5231 13.671 4.36261 
26 1 14.8734 14.276 4.07487 
27 1 16.2685 15.2908 3.59807 
28 1 15.8584 14.9848 5.35599 
29 1 15.3716 12.8547 14.2642 
30 1 14.306 14.2754 14.205 
31 1 15.8831 14.3003 13.3904 
32 1 15.7638 14.3518 15.1974 
33 2 4.82087 4.62423 3.87887 
34 2 4.48547 4.4437 14.7393 
35 2 5.06915 14.9082 4.69385 
36 2 5.31288 14.2266 14.8394 
37 2 15.7172 4.56245 4.80396 
38 2 15.2305 4.68186 14.919 
39 2 15.8757 14.5504 4.35196 
40 2 15.3228 13.9508 14.262 
