   5   5   0   0
  0.1999795E+03  0.1008728E-08  0.1003717E-08  0.9876676E-09  0.2000000E-14
   50.000000000000000     
  CAR 
 unknown system                          
      2.70849661    -18.90063805  301     -9.11028416      1.00000000
    -18.901  0.0000E+00  0.0000E+00
    -18.829  0.0000E+00  0.0000E+00
    -18.757  0.0000E+00  0.0000E+00
    -18.685  0.0000E+00  0.0000E+00
    -18.613  0.0000E+00  0.0000E+00
    -18.540 -0.4079E-27 -0.2938E-28
    -18.468 -0.1254E-24 -0.9062E-26
    -18.396 -0.2974E-22 -0.2152E-23
    -18.324 -0.5429E-20 -0.3932E-21
    -18.252 -0.7622E-18 -0.5529E-19
    -18.180 -0.8228E-16 -0.5982E-17
    -18.108 -0.6827E-14 -0.4977E-15
    -18.036 -0.4212E-12 -0.3084E-13
    -17.964 -0.2054E-10 -0.1510E-11
    -17.892 -0.7662E-09 -0.5670E-10
    -17.820 -0.2186E-07 -0.1631E-08
    -17.748 -0.4762E-06 -0.3593E-07
    -17.676 -0.7894E-05 -0.6046E-06
    -17.604 -0.9924E-04 -0.7753E-05
    -17.532 -0.9406E-03 -0.7550E-04
    -17.460 -0.6661E-02 -0.5553E-03
    -17.388 -0.3472E-01 -0.3056E-02
    -17.316 -0.1295E+00 -0.1238E-01
    -17.244 -0.3232E+00 -0.3566E-01
    -17.172 -0.4278E+00 -0.6648E-01
    -17.100  0.2361E+00 -0.4947E-01
    -17.028  0.2476E+01  0.1289E+00
    -16.956  0.5875E+01  0.5521E+00
    -16.884  0.8189E+01  0.1142E+01
    -16.812  0.7415E+01  0.1676E+01
    -16.740  0.4253E+01  0.1982E+01
    -16.668  0.1212E+01  0.2070E+01
    -16.596 -0.2310E+00  0.2053E+01
    -16.524 -0.4206E+00  0.2023E+01
    -16.452 -0.2232E+00  0.2007E+01
    -16.380 -0.7315E-01  0.2001E+01
    -16.308 -0.1669E-01  0.2000E+01
    -16.236 -0.2768E-02  0.2000E+01
    -16.163 -0.3406E-03  0.2000E+01
    -16.091 -0.3147E-04  0.2000E+01
    -16.019 -0.2198E-05  0.2000E+01
    -15.947 -0.1166E-06  0.2000E+01
    -15.875 -0.4719E-08  0.2000E+01
    -15.803 -0.1459E-09  0.2000E+01
    -15.731 -0.3448E-11  0.2000E+01
    -15.659 -0.6782E-13  0.2000E+01
    -15.587  0.0000E+00  0.2000E+01
    -15.515  0.0000E+00  0.2000E+01
    -15.443  0.0000E+00  0.2000E+01
    -15.371  0.0000E+00  0.2000E+01
    -15.299  0.0000E+00  0.2000E+01
    -15.227  0.0000E+00  0.2000E+01
    -15.155  0.0000E+00  0.2000E+01
    -15.083  0.0000E+00  0.2000E+01
    -15.011  0.0000E+00  0.2000E+01
    -14.939  0.0000E+00  0.2000E+01
    -14.867  0.0000E+00  0.2000E+01
    -14.795  0.0000E+00  0.2000E+01
    -14.723  0.0000E+00  0.2000E+01
    -14.651  0.0000E+00  0.2000E+01
    -14.579  0.0000E+00  0.2000E+01
    -14.507  0.0000E+00  0.2000E+01
    -14.435  0.0000E+00  0.2000E+01
    -14.363  0.0000E+00  0.2000E+01
    -14.291  0.0000E+00  0.2000E+01
    -14.219  0.0000E+00  0.2000E+01
    -14.147  0.0000E+00  0.2000E+01
    -14.075  0.0000E+00  0.2000E+01
    -14.003  0.0000E+00  0.2000E+01
    -13.931  0.0000E+00  0.2000E+01
    -13.859  0.0000E+00  0.2000E+01
    -13.786  0.0000E+00  0.2000E+01
    -13.714  0.0000E+00  0.2000E+01
    -13.642  0.0000E+00  0.2000E+01
    -13.570  0.0000E+00  0.2000E+01
    -13.498  0.0000E+00  0.2000E+01
    -13.426  0.0000E+00  0.2000E+01
    -13.354  0.0000E+00  0.2000E+01
    -13.282  0.0000E+00  0.2000E+01
    -13.210  0.0000E+00  0.2000E+01
    -13.138  0.0000E+00  0.2000E+01
    -13.066  0.0000E+00  0.2000E+01
    -12.994  0.0000E+00  0.2000E+01
    -12.922  0.0000E+00  0.2000E+01
    -12.850  0.0000E+00  0.2000E+01
    -12.778  0.0000E+00  0.2000E+01
    -12.706  0.0000E+00  0.2000E+01
    -12.634  0.0000E+00  0.2000E+01
    -12.562  0.0000E+00  0.2000E+01
    -12.490  0.0000E+00  0.2000E+01
    -12.418  0.0000E+00  0.2000E+01
    -12.346  0.0000E+00  0.2000E+01
    -12.274  0.0000E+00  0.2000E+01
    -12.202  0.0000E+00  0.2000E+01
    -12.130  0.0000E+00  0.2000E+01
    -12.058  0.0000E+00  0.2000E+01
    -11.986  0.0000E+00  0.2000E+01
    -11.914  0.0000E+00  0.2000E+01
    -11.842  0.0000E+00  0.2000E+01
    -11.770  0.0000E+00  0.2000E+01
    -11.698  0.0000E+00  0.2000E+01
    -11.626  0.0000E+00  0.2000E+01
    -11.554  0.0000E+00  0.2000E+01
    -11.482  0.0000E+00  0.2000E+01
    -11.409  0.0000E+00  0.2000E+01
    -11.337  0.0000E+00  0.2000E+01
    -11.265  0.0000E+00  0.2000E+01
    -11.193  0.0000E+00  0.2000E+01
    -11.121  0.0000E+00  0.2000E+01
    -11.049  0.0000E+00  0.2000E+01
    -10.977 -0.5925E-27  0.2000E+01
    -10.905 -0.1870E-24  0.2000E+01
    -10.833 -0.4391E-22  0.2000E+01
    -10.761 -0.7942E-20  0.2000E+01
    -10.689 -0.1106E-17  0.2000E+01
    -10.617 -0.1186E-15  0.2000E+01
    -10.545 -0.9795E-14  0.2000E+01
    -10.473 -0.6038E-12  0.2000E+01
    -10.401 -0.2935E-10  0.2000E+01
    -10.329 -0.1097E-08  0.2000E+01
    -10.257 -0.3144E-07  0.2000E+01
    -10.185 -0.6907E-06  0.2000E+01
    -10.113 -0.1160E-04  0.2000E+01
    -10.041 -0.1485E-03  0.2000E+01
     -9.969 -0.1444E-02  0.2000E+01
     -9.897 -0.1059E-01  0.1999E+01
     -9.825 -0.5790E-01  0.1995E+01
     -9.753 -0.2312E+00  0.1978E+01
     -9.681 -0.6436E+00  0.1932E+01
     -9.609 -0.1089E+01  0.1853E+01
     -9.537 -0.3536E+00  0.1828E+01
     -9.465  0.3714E+01  0.2096E+01
     -9.393  0.1182E+02  0.2947E+01
     -9.321  0.2037E+02  0.4414E+01
     -9.249  0.2320E+02  0.6085E+01
     -9.177  0.1800E+02  0.7382E+01
     -9.104  0.8997E+01  0.8030E+01
     -9.032  0.2043E+01  0.8177E+01
     -8.960 -0.7816E+00  0.8121E+01
     -8.888 -0.9770E+00  0.8050E+01
     -8.816 -0.4916E+00  0.8015E+01
     -8.744 -0.1603E+00  0.8003E+01
     -8.672 -0.3725E-01  0.8001E+01
     -8.600 -0.6389E-02  0.8000E+01
     -8.528 -0.8223E-03  0.8000E+01
     -8.456 -0.8015E-04  0.8000E+01
     -8.384 -0.5947E-05  0.8000E+01
     -8.312 -0.3370E-06  0.8000E+01
     -8.240 -0.1461E-07  0.8000E+01
     -8.168 -0.4857E-09  0.8000E+01
     -8.096 -0.1239E-10  0.8000E+01
     -8.024 -0.2404E-12  0.8000E+01
     -7.952 -0.6165E-14  0.8000E+01
     -7.880  0.0000E+00  0.8000E+01
     -7.808  0.0000E+00  0.8000E+01
     -7.736  0.0000E+00  0.8000E+01
     -7.664  0.0000E+00  0.8000E+01
     -7.592  0.0000E+00  0.8000E+01
     -7.520  0.0000E+00  0.8000E+01
     -7.448  0.0000E+00  0.8000E+01
     -7.376  0.0000E+00  0.8000E+01
     -7.304  0.0000E+00  0.8000E+01
     -7.232  0.0000E+00  0.8000E+01
     -7.160  0.0000E+00  0.8000E+01
     -7.088  0.0000E+00  0.8000E+01
     -7.016  0.0000E+00  0.8000E+01
     -6.944  0.0000E+00  0.8000E+01
     -6.872  0.0000E+00  0.8000E+01
     -6.800  0.0000E+00  0.8000E+01
     -6.727  0.0000E+00  0.8000E+01
     -6.655  0.0000E+00  0.8000E+01
     -6.583  0.0000E+00  0.8000E+01
     -6.511  0.0000E+00  0.8000E+01
     -6.439  0.0000E+00  0.8000E+01
     -6.367  0.0000E+00  0.8000E+01
     -6.295  0.0000E+00  0.8000E+01
     -6.223  0.0000E+00  0.8000E+01
     -6.151  0.0000E+00  0.8000E+01
     -6.079  0.0000E+00  0.8000E+01
     -6.007  0.0000E+00  0.8000E+01
     -5.935  0.0000E+00  0.8000E+01
     -5.863  0.0000E+00  0.8000E+01
     -5.791  0.0000E+00  0.8000E+01
     -5.719  0.0000E+00  0.8000E+01
     -5.647  0.0000E+00  0.8000E+01
     -5.575  0.0000E+00  0.8000E+01
     -5.503  0.0000E+00  0.8000E+01
     -5.431  0.0000E+00  0.8000E+01
     -5.359  0.0000E+00  0.8000E+01
     -5.287  0.0000E+00  0.8000E+01
     -5.215  0.0000E+00  0.8000E+01
     -5.143  0.0000E+00  0.8000E+01
     -5.071  0.0000E+00  0.8000E+01
     -4.999  0.0000E+00  0.8000E+01
     -4.927  0.0000E+00  0.8000E+01
     -4.855  0.0000E+00  0.8000E+01
     -4.783  0.0000E+00  0.8000E+01
     -4.711  0.0000E+00  0.8000E+01
     -4.639  0.0000E+00  0.8000E+01
     -4.567  0.0000E+00  0.8000E+01
     -4.495  0.0000E+00  0.8000E+01
     -4.423  0.0000E+00  0.8000E+01
     -4.350  0.0000E+00  0.8000E+01
     -4.278  0.0000E+00  0.8000E+01
     -4.206  0.0000E+00  0.8000E+01
     -4.134  0.0000E+00  0.8000E+01
     -4.062  0.0000E+00  0.8000E+01
     -3.990  0.0000E+00  0.8000E+01
     -3.918  0.0000E+00  0.8000E+01
     -3.846  0.0000E+00  0.8000E+01
     -3.774  0.0000E+00  0.8000E+01
     -3.702  0.0000E+00  0.8000E+01
     -3.630  0.0000E+00  0.8000E+01
     -3.558  0.0000E+00  0.8000E+01
     -3.486  0.0000E+00  0.8000E+01
     -3.414  0.0000E+00  0.8000E+01
     -3.342  0.0000E+00  0.8000E+01
     -3.270  0.0000E+00  0.8000E+01
     -3.198  0.0000E+00  0.8000E+01
     -3.126  0.0000E+00  0.8000E+01
     -3.054  0.0000E+00  0.8000E+01
     -2.982  0.0000E+00  0.8000E+01
     -2.910  0.0000E+00  0.8000E+01
     -2.838  0.0000E+00  0.8000E+01
     -2.766  0.0000E+00  0.8000E+01
     -2.694  0.0000E+00  0.8000E+01
     -2.622  0.0000E+00  0.8000E+01
     -2.550  0.0000E+00  0.8000E+01
     -2.478  0.0000E+00  0.8000E+01
     -2.406  0.0000E+00  0.8000E+01
     -2.334  0.0000E+00  0.8000E+01
     -2.262  0.0000E+00  0.8000E+01
     -2.190  0.0000E+00  0.8000E+01
     -2.118  0.0000E+00  0.8000E+01
     -2.046  0.0000E+00  0.8000E+01
     -1.973 -0.5400E-28  0.8000E+01
     -1.901 -0.1815E-25  0.8000E+01
     -1.829 -0.4708E-23  0.8000E+01
     -1.757 -0.9398E-21  0.8000E+01
     -1.685 -0.1443E-18  0.8000E+01
     -1.613 -0.1705E-16  0.8000E+01
     -1.541 -0.1548E-14  0.8000E+01
     -1.469 -0.1049E-12  0.8000E+01
     -1.397 -0.5587E-11  0.8000E+01
     -1.325 -0.2284E-09  0.8000E+01
     -1.253 -0.7144E-08  0.8000E+01
     -1.181 -0.1707E-06  0.8000E+01
     -1.109 -0.3109E-05  0.8000E+01
     -1.037 -0.4299E-04  0.8000E+01
     -0.965 -0.4492E-03  0.8000E+01
     -0.893 -0.3520E-02  0.8000E+01
     -0.821 -0.2042E-01  0.7998E+01
     -0.749 -0.8582E-01  0.7992E+01
     -0.677 -0.2489E+00  0.7974E+01
     -0.605 -0.4330E+00  0.7943E+01
     -0.533 -0.1381E+00  0.7933E+01
     -0.461  0.1513E+01  0.8042E+01
     -0.389  0.4690E+01  0.8380E+01
     -0.317  0.7683E+01  0.8933E+01
     -0.245  0.8049E+01  0.9513E+01
     -0.173  0.5455E+01  0.9906E+01
     -0.101  0.2107E+01  0.1006E+02
     -0.029  0.7659E-01  0.1006E+02
      0.043 -0.4563E+00  0.1003E+02
      0.115 -0.3809E+00  0.1000E+02
      0.187 -0.3922E+00  0.9975E+01
      0.259 -0.6591E+00  0.9927E+01
      0.331 -0.7787E+00  0.9871E+01
      0.404  0.4061E+00  0.9900E+01
      0.476  0.4364E+01  0.1021E+02
      0.548  0.1126E+02  0.1103E+02
      0.620  0.1845E+02  0.1235E+02
      0.692  0.2149E+02  0.1390E+02
      0.764  0.1796E+02  0.1520E+02
      0.836  0.1019E+02  0.1593E+02
      0.908  0.3139E+01  0.1616E+02
      0.980 -0.3615E+00  0.1613E+02
      1.052 -0.9765E+00  0.1606E+02
      1.124 -0.5711E+00  0.1602E+02
      1.196 -0.2036E+00  0.1600E+02
      1.268 -0.5048E-01  0.1600E+02
      1.340 -0.9113E-02  0.1600E+02
      1.412 -0.1223E-02  0.1600E+02
      1.484 -0.1235E-03  0.1600E+02
      1.556 -0.9447E-05  0.1600E+02
      1.628 -0.5501E-06  0.1600E+02
      1.700 -0.2446E-07  0.1600E+02
      1.772 -0.8326E-09  0.1600E+02
      1.844 -0.2172E-10  0.1600E+02
      1.916 -0.4377E-12  0.1600E+02
      1.988 -0.6165E-14  0.1600E+02
      2.060  0.0000E+00  0.1600E+02
      2.132  0.0000E+00  0.1600E+02
      2.204  0.0000E+00  0.1600E+02
      2.276  0.0000E+00  0.1600E+02
      2.348  0.0000E+00  0.1600E+02
      2.420  0.0000E+00  0.1600E+02
      2.492  0.0000E+00  0.1600E+02
      2.564  0.0000E+00  0.1600E+02
      2.636  0.0000E+00  0.1600E+02
      2.708  0.0000E+00  0.1600E+02
      2.70807870    -18.82084965  301     -8.77538317      1.00000000
    -18.821  0.0000E+00  0.0000E+00
    -18.749  0.0000E+00  0.0000E+00
    -18.677  0.0000E+00  0.0000E+00
    -18.606  0.0000E+00  0.0000E+00
    -18.534  0.0000E+00  0.0000E+00
    -18.462 -0.3670E-27 -0.2634E-28
    -18.390 -0.1110E-24 -0.7993E-26
    -18.319 -0.2597E-22 -0.1871E-23
    -18.247 -0.4683E-20 -0.3379E-21
    -18.175 -0.6508E-18 -0.4704E-19
    -18.103 -0.6969E-16 -0.5048E-17
    -18.031 -0.5746E-14 -0.4174E-15
    -17.960 -0.3538E-12 -0.2581E-13
    -17.888 -0.1718E-10 -0.1259E-11
    -17.816 -0.6409E-09 -0.4725E-10
    -17.744 -0.1832E-07 -0.1362E-08
    -17.673 -0.4007E-06 -0.3012E-07
    -17.601 -0.6685E-05 -0.5098E-06
    -17.529 -0.8476E-04 -0.6592E-05
    -17.457 -0.8122E-03 -0.6488E-04
    -17.386 -0.5833E-02 -0.4835E-03
    -17.314 -0.3094E-01 -0.2704E-02
    -17.242 -0.1181E+00 -0.1118E-01
    -17.170 -0.3050E+00 -0.3307E-01
    -17.099 -0.4361E+00 -0.6437E-01
    -17.027  0.1181E+00 -0.5589E-01
    -16.955  0.2192E+01  0.1014E+00
    -16.883  0.5543E+01  0.4992E+00
    -16.811  0.8079E+01  0.1079E+01
    -16.740  0.7648E+01  0.1628E+01
    -16.668  0.4639E+01  0.1961E+01
    -16.596  0.1485E+01  0.2067E+01
    -16.524 -0.1447E+00  0.2057E+01
    -16.453 -0.4329E+00  0.2026E+01
    -16.381 -0.2489E+00  0.2008E+01
    -16.309 -0.8621E-01  0.2002E+01
    -16.237 -0.2066E-01  0.2000E+01
    -16.166 -0.3592E-02  0.2000E+01
    -16.094 -0.4635E-03  0.2000E+01
    -16.022 -0.4493E-04  0.2000E+01
    -15.950 -0.3298E-05  0.2000E+01
    -15.879 -0.1842E-06  0.2000E+01
    -15.807 -0.7852E-08  0.2000E+01
    -15.735 -0.2562E-09  0.2000E+01
    -15.663 -0.6413E-11  0.2000E+01
    -15.592 -0.1238E-12  0.2000E+01
    -15.520  0.0000E+00  0.2000E+01
    -15.448  0.0000E+00  0.2000E+01
    -15.376  0.0000E+00  0.2000E+01
    -15.304  0.0000E+00  0.2000E+01
    -15.233  0.0000E+00  0.2000E+01
    -15.161  0.0000E+00  0.2000E+01
    -15.089  0.0000E+00  0.2000E+01
    -15.017  0.0000E+00  0.2000E+01
    -14.946  0.0000E+00  0.2000E+01
    -14.874  0.0000E+00  0.2000E+01
    -14.802  0.0000E+00  0.2000E+01
    -14.730  0.0000E+00  0.2000E+01
    -14.659  0.0000E+00  0.2000E+01
    -14.587  0.0000E+00  0.2000E+01
    -14.515  0.0000E+00  0.2000E+01
    -14.443  0.0000E+00  0.2000E+01
    -14.372  0.0000E+00  0.2000E+01
    -14.300  0.0000E+00  0.2000E+01
    -14.228  0.0000E+00  0.2000E+01
    -14.156  0.0000E+00  0.2000E+01
    -14.084  0.0000E+00  0.2000E+01
    -14.013  0.0000E+00  0.2000E+01
    -13.941  0.0000E+00  0.2000E+01
    -13.869  0.0000E+00  0.2000E+01
    -13.797  0.0000E+00  0.2000E+01
    -13.726  0.0000E+00  0.2000E+01
    -13.654  0.0000E+00  0.2000E+01
    -13.582  0.0000E+00  0.2000E+01
    -13.510  0.0000E+00  0.2000E+01
    -13.439  0.0000E+00  0.2000E+01
    -13.367  0.0000E+00  0.2000E+01
    -13.295  0.0000E+00  0.2000E+01
    -13.223  0.0000E+00  0.2000E+01
    -13.152  0.0000E+00  0.2000E+01
    -13.080  0.0000E+00  0.2000E+01
    -13.008  0.0000E+00  0.2000E+01
    -12.936  0.0000E+00  0.2000E+01
    -12.865  0.0000E+00  0.2000E+01
    -12.793  0.0000E+00  0.2000E+01
    -12.721  0.0000E+00  0.2000E+01
    -12.649  0.0000E+00  0.2000E+01
    -12.577  0.0000E+00  0.2000E+01
    -12.506  0.0000E+00  0.2000E+01
    -12.434  0.0000E+00  0.2000E+01
    -12.362  0.0000E+00  0.2000E+01
    -12.290  0.0000E+00  0.2000E+01
    -12.219  0.0000E+00  0.2000E+01
    -12.147  0.0000E+00  0.2000E+01
    -12.075  0.0000E+00  0.2000E+01
    -12.003  0.0000E+00  0.2000E+01
    -11.932  0.0000E+00  0.2000E+01
    -11.860  0.0000E+00  0.2000E+01
    -11.788  0.0000E+00  0.2000E+01
    -11.716  0.0000E+00  0.2000E+01
    -11.645  0.0000E+00  0.2000E+01
    -11.573  0.0000E+00  0.2000E+01
    -11.501  0.0000E+00  0.2000E+01
    -11.429  0.0000E+00  0.2000E+01
    -11.357  0.0000E+00  0.2000E+01
    -11.286 -0.3158E-28  0.2000E+01
    -11.214 -0.1064E-25  0.2000E+01
    -11.142 -0.2774E-23  0.2000E+01
    -11.070 -0.5574E-21  0.2000E+01
    -10.999 -0.8633E-19  0.2000E+01
    -10.927 -0.1030E-16  0.2000E+01
    -10.855 -0.9472E-15  0.2000E+01
    -10.783 -0.6548E-13  0.2000E+01
    -10.712 -0.3529E-11  0.2000E+01
    -10.640 -0.1470E-09  0.2000E+01
    -10.568 -0.4694E-08  0.2000E+01
    -10.496 -0.1148E-06  0.2000E+01
    -10.425 -0.2144E-05  0.2000E+01
    -10.353 -0.3049E-04  0.2000E+01
    -10.281 -0.3285E-03  0.2000E+01
    -10.209 -0.2663E-02  0.2000E+01
    -10.138 -0.1606E-01  0.1999E+01
    -10.066 -0.7061E-01  0.1994E+01
     -9.994 -0.2170E+00  0.1978E+01
     -9.922 -0.4163E+00  0.1948E+01
     -9.850 -0.2559E+00  0.1930E+01
     -9.779  0.1115E+01  0.2010E+01
     -9.707  0.4078E+01  0.2302E+01
     -9.635  0.7228E+01  0.2821E+01
     -9.563  0.8016E+01  0.3396E+01
     -9.492  0.5637E+01  0.3801E+01
     -9.420  0.2367E+01  0.3971E+01
     -9.348  0.1301E+01  0.4064E+01
     -9.276  0.3335E+01  0.4303E+01
     -9.205  0.6539E+01  0.4773E+01
     -9.133  0.8415E+01  0.5377E+01
     -9.061  0.8677E+01  0.5999E+01
     -8.989  0.8707E+01  0.6624E+01
     -8.918  0.8558E+01  0.7238E+01
     -8.846  0.6889E+01  0.7733E+01
     -8.774  0.3768E+01  0.8003E+01
     -8.702  0.9843E+00  0.8074E+01
     -8.630 -0.2925E+00  0.8053E+01
     -8.559 -0.4245E+00  0.8022E+01
     -8.487 -0.2188E+00  0.8006E+01
     -8.415 -0.7105E-01  0.8001E+01
     -8.343 -0.1616E-01  0.8000E+01
     -8.272 -0.2682E-02  0.8000E+01
     -8.200 -0.3311E-03  0.8000E+01
     -8.128 -0.3075E-04  0.8000E+01
     -8.056 -0.2165E-05  0.8000E+01
     -7.985 -0.1160E-06  0.8000E+01
     -7.913 -0.4749E-08  0.8000E+01
     -7.841 -0.1488E-09  0.8000E+01
     -7.769 -0.3575E-11  0.8000E+01
     -7.698 -0.6807E-13  0.8000E+01
     -7.626  0.0000E+00  0.8000E+01
     -7.554  0.0000E+00  0.8000E+01
     -7.482  0.0000E+00  0.8000E+01
     -7.411  0.0000E+00  0.8000E+01
     -7.339  0.0000E+00  0.8000E+01
     -7.267  0.0000E+00  0.8000E+01
     -7.195  0.0000E+00  0.8000E+01
     -7.123  0.0000E+00  0.8000E+01
     -7.052  0.0000E+00  0.8000E+01
     -6.980  0.0000E+00  0.8000E+01
     -6.908  0.0000E+00  0.8000E+01
     -6.836  0.0000E+00  0.8000E+01
     -6.765  0.0000E+00  0.8000E+01
     -6.693  0.0000E+00  0.8000E+01
     -6.621  0.0000E+00  0.8000E+01
     -6.549  0.0000E+00  0.8000E+01
     -6.478  0.0000E+00  0.8000E+01
     -6.406  0.0000E+00  0.8000E+01
     -6.334  0.0000E+00  0.8000E+01
     -6.262  0.0000E+00  0.8000E+01
     -6.191  0.0000E+00  0.8000E+01
     -6.119  0.0000E+00  0.8000E+01
     -6.047  0.0000E+00  0.8000E+01
     -5.975  0.0000E+00  0.8000E+01
     -5.903  0.0000E+00  0.8000E+01
     -5.832  0.0000E+00  0.8000E+01
     -5.760  0.0000E+00  0.8000E+01
     -5.688  0.0000E+00  0.8000E+01
     -5.616  0.0000E+00  0.8000E+01
     -5.545  0.0000E+00  0.8000E+01
     -5.473  0.0000E+00  0.8000E+01
     -5.401  0.0000E+00  0.8000E+01
     -5.329  0.0000E+00  0.8000E+01
     -5.258  0.0000E+00  0.8000E+01
     -5.186  0.0000E+00  0.8000E+01
     -5.114  0.0000E+00  0.8000E+01
     -5.042  0.0000E+00  0.8000E+01
     -4.971  0.0000E+00  0.8000E+01
     -4.899  0.0000E+00  0.8000E+01
     -4.827  0.0000E+00  0.8000E+01
     -4.755  0.0000E+00  0.8000E+01
     -4.684  0.0000E+00  0.8000E+01
     -4.612  0.0000E+00  0.8000E+01
     -4.540  0.0000E+00  0.8000E+01
     -4.468  0.0000E+00  0.8000E+01
     -4.396  0.0000E+00  0.8000E+01
     -4.325  0.0000E+00  0.8000E+01
     -4.253  0.0000E+00  0.8000E+01
     -4.181  0.0000E+00  0.8000E+01
     -4.109  0.0000E+00  0.8000E+01
     -4.038  0.0000E+00  0.8000E+01
     -3.966  0.0000E+00  0.8000E+01
     -3.894  0.0000E+00  0.8000E+01
     -3.822  0.0000E+00  0.8000E+01
     -3.751  0.0000E+00  0.8000E+01
     -3.679  0.0000E+00  0.8000E+01
     -3.607  0.0000E+00  0.8000E+01
     -3.535  0.0000E+00  0.8000E+01
     -3.464  0.0000E+00  0.8000E+01
     -3.392  0.0000E+00  0.8000E+01
     -3.320  0.0000E+00  0.8000E+01
     -3.248  0.0000E+00  0.8000E+01
     -3.176  0.0000E+00  0.8000E+01
     -3.105  0.0000E+00  0.8000E+01
     -3.033  0.0000E+00  0.8000E+01
     -2.961  0.0000E+00  0.8000E+01
     -2.889  0.0000E+00  0.8000E+01
     -2.818  0.0000E+00  0.8000E+01
     -2.746  0.0000E+00  0.8000E+01
     -2.674  0.0000E+00  0.8000E+01
     -2.602  0.0000E+00  0.8000E+01
     -2.531  0.0000E+00  0.8000E+01
     -2.459  0.0000E+00  0.8000E+01
     -2.387  0.0000E+00  0.8000E+01
     -2.315  0.0000E+00  0.8000E+01
     -2.244  0.0000E+00  0.8000E+01
     -2.172  0.0000E+00  0.8000E+01
     -2.100  0.0000E+00  0.8000E+01
     -2.028  0.0000E+00  0.8000E+01
     -1.957 -0.1500E-26  0.8000E+01
     -1.885 -0.4260E-24  0.8000E+01
     -1.813 -0.9354E-22  0.8000E+01
     -1.741 -0.1583E-19  0.8000E+01
     -1.669 -0.2065E-17  0.8000E+01
     -1.598 -0.2076E-15  0.8000E+01
     -1.526 -0.1606E-13  0.8000E+01
     -1.454 -0.9258E-12  0.8000E+01
     -1.382 -0.4222E-10  0.8000E+01
     -1.311 -0.1477E-08  0.8000E+01
     -1.239 -0.3957E-07  0.8000E+01
     -1.167 -0.8107E-06  0.8000E+01
     -1.095 -0.1266E-04  0.8000E+01
     -1.024 -0.1501E-03  0.8000E+01
     -0.952 -0.1343E-02  0.8000E+01
     -0.880 -0.8976E-02  0.7999E+01
     -0.808 -0.4411E-01  0.7996E+01
     -0.737 -0.1544E+00  0.7985E+01
     -0.665 -0.3562E+00  0.7959E+01
     -0.593 -0.3997E+00  0.7931E+01
     -0.521  0.4583E+00  0.7964E+01
     -0.449  0.2934E+01  0.8174E+01
     -0.378  0.6333E+01  0.8629E+01
     -0.306  0.8284E+01  0.9223E+01
     -0.234  0.7080E+01  0.9731E+01
     -0.162  0.3798E+01  0.1000E+02
     -0.091  0.9334E+00  0.1007E+02
     -0.019 -0.3081E+00  0.1005E+02
      0.053 -0.4311E+00  0.1002E+02
      0.125 -0.3166E+00  0.9995E+01
      0.196 -0.4169E+00  0.9965E+01
      0.268 -0.7309E+00  0.9913E+01
      0.340 -0.6910E+00  0.9863E+01
      0.412  0.1017E+01  0.9936E+01
      0.483  0.5741E+01  0.1035E+02
      0.555  0.1305E+02  0.1128E+02
      0.627  0.1966E+02  0.1270E+02
      0.699  0.2124E+02  0.1422E+02
      0.770  0.1642E+02  0.1540E+02
      0.842  0.8483E+01  0.1601E+02
      0.914  0.2139E+01  0.1616E+02
      0.986 -0.6224E+00  0.1612E+02
      1.058 -0.9142E+00  0.1605E+02
      1.129 -0.4831E+00  0.1601E+02
      1.201 -0.1626E+00  0.1600E+02
      1.273 -0.3867E-01  0.1600E+02
      1.345 -0.6756E-02  0.1600E+02
      1.416 -0.8832E-03  0.1600E+02
      1.488 -0.8728E-04  0.1600E+02
      1.560 -0.6564E-05  0.1600E+02
      1.632 -0.3771E-06  0.1600E+02
      1.703 -0.1660E-07  0.1600E+02
      1.775 -0.5612E-09  0.1600E+02
      1.847 -0.1458E-10  0.1600E+02
      1.919 -0.2924E-12  0.1600E+02
      1.990 -0.4641E-14  0.1600E+02
      2.062  0.0000E+00  0.1600E+02
      2.134  0.0000E+00  0.1600E+02
      2.206  0.0000E+00  0.1600E+02
      2.278  0.0000E+00  0.1600E+02
      2.349  0.0000E+00  0.1600E+02
      2.421  0.0000E+00  0.1600E+02
      2.493  0.0000E+00  0.1600E+02
      2.565  0.0000E+00  0.1600E+02
      2.636  0.0000E+00  0.1600E+02
      2.708  0.0000E+00  0.1600E+02
      2.71298357    -18.88166667  301     -8.64827581      1.00000000
    -18.882  0.0000E+00  0.0000E+00
    -18.810  0.0000E+00  0.0000E+00
    -18.738  0.0000E+00  0.0000E+00
    -18.666  0.0000E+00  0.0000E+00
    -18.594  0.0000E+00  0.0000E+00
    -18.522 -0.4000E-27 -0.2879E-28
    -18.450 -0.1226E-24 -0.8853E-26
    -18.378 -0.2901E-22 -0.2097E-23
    -18.306 -0.5283E-20 -0.3824E-21
    -18.234 -0.7403E-18 -0.5367E-19
    -18.162 -0.7981E-16 -0.5798E-17
    -18.090 -0.6614E-14 -0.4819E-15
    -18.018 -0.4089E-12 -0.2991E-13
    -17.946 -0.1988E-10 -0.1461E-11
    -17.874 -0.7416E-09 -0.5484E-10
    -17.802 -0.2117E-07 -0.1579E-08
    -17.730 -0.4614E-06 -0.3479E-07
    -17.658 -0.7659E-05 -0.5861E-06
    -17.586 -0.9644E-04 -0.7528E-05
    -17.514 -0.9159E-03 -0.7345E-04
    -17.442 -0.6503E-02 -0.5415E-03
    -17.370 -0.3400E-01 -0.2989E-02
    -17.298 -0.1273E+00 -0.1215E-01
    -17.226 -0.3199E+00 -0.3518E-01
    -17.154 -0.4297E+00 -0.6612E-01
    -17.082  0.2136E+00 -0.5074E-01
    -17.010  0.2423E+01  0.1237E+00
    -16.938  0.5815E+01  0.5423E+00
    -16.866  0.8172E+01  0.1131E+01
    -16.794  0.7459E+01  0.1667E+01
    -16.722  0.4323E+01  0.1979E+01
    -16.650  0.1260E+01  0.2069E+01
    -16.578 -0.2167E+00  0.2054E+01
    -16.506 -0.4232E+00  0.2023E+01
    -16.434 -0.2278E+00  0.2007E+01
    -16.362 -0.7540E-01  0.2001E+01
    -16.290 -0.1736E-01  0.2000E+01
    -16.218 -0.2903E-02  0.2000E+01
    -16.146 -0.3603E-03  0.2000E+01
    -16.074 -0.3358E-04  0.2000E+01
    -16.002 -0.2367E-05  0.2000E+01
    -15.930 -0.1268E-06  0.2000E+01
    -15.858 -0.5178E-08  0.2000E+01
    -15.786 -0.1616E-09  0.2000E+01
    -15.714 -0.3859E-11  0.2000E+01
    -15.642 -0.7403E-13  0.2000E+01
    -15.570  0.0000E+00  0.2000E+01
    -15.499  0.0000E+00  0.2000E+01
    -15.427  0.0000E+00  0.2000E+01
    -15.355  0.0000E+00  0.2000E+01
    -15.283  0.0000E+00  0.2000E+01
    -15.211  0.0000E+00  0.2000E+01
    -15.139  0.0000E+00  0.2000E+01
    -15.067  0.0000E+00  0.2000E+01
    -14.995  0.0000E+00  0.2000E+01
    -14.923  0.0000E+00  0.2000E+01
    -14.851  0.0000E+00  0.2000E+01
    -14.779  0.0000E+00  0.2000E+01
    -14.707  0.0000E+00  0.2000E+01
    -14.635  0.0000E+00  0.2000E+01
    -14.563  0.0000E+00  0.2000E+01
    -14.491  0.0000E+00  0.2000E+01
    -14.419  0.0000E+00  0.2000E+01
    -14.347  0.0000E+00  0.2000E+01
    -14.275  0.0000E+00  0.2000E+01
    -14.203  0.0000E+00  0.2000E+01
    -14.131  0.0000E+00  0.2000E+01
    -14.059  0.0000E+00  0.2000E+01
    -13.987  0.0000E+00  0.2000E+01
    -13.915  0.0000E+00  0.2000E+01
    -13.843  0.0000E+00  0.2000E+01
    -13.771  0.0000E+00  0.2000E+01
    -13.699  0.0000E+00  0.2000E+01
    -13.627  0.0000E+00  0.2000E+01
    -13.555  0.0000E+00  0.2000E+01
    -13.483  0.0000E+00  0.2000E+01
    -13.411  0.0000E+00  0.2000E+01
    -13.339  0.0000E+00  0.2000E+01
    -13.267  0.0000E+00  0.2000E+01
    -13.195  0.0000E+00  0.2000E+01
    -13.123  0.0000E+00  0.2000E+01
    -13.051  0.0000E+00  0.2000E+01
    -12.979  0.0000E+00  0.2000E+01
    -12.907  0.0000E+00  0.2000E+01
    -12.835  0.0000E+00  0.2000E+01
    -12.763  0.0000E+00  0.2000E+01
    -12.691  0.0000E+00  0.2000E+01
    -12.619  0.0000E+00  0.2000E+01
    -12.547  0.0000E+00  0.2000E+01
    -12.475  0.0000E+00  0.2000E+01
    -12.403  0.0000E+00  0.2000E+01
    -12.331  0.0000E+00  0.2000E+01
    -12.259  0.0000E+00  0.2000E+01
    -12.187  0.0000E+00  0.2000E+01
    -12.115  0.0000E+00  0.2000E+01
    -12.043  0.0000E+00  0.2000E+01
    -11.971  0.0000E+00  0.2000E+01
    -11.899  0.0000E+00  0.2000E+01
    -11.827  0.0000E+00  0.2000E+01
    -11.755  0.0000E+00  0.2000E+01
    -11.683  0.0000E+00  0.2000E+01
    -11.611  0.0000E+00  0.2000E+01
    -11.539  0.0000E+00  0.2000E+01
    -11.468  0.0000E+00  0.2000E+01
    -11.396 -0.2737E-26  0.2000E+01
    -11.324 -0.7694E-24  0.2000E+01
    -11.252 -0.1670E-21  0.2000E+01
    -11.180 -0.2788E-19  0.2000E+01
    -11.108 -0.3583E-17  0.2000E+01
    -11.036 -0.3541E-15  0.2000E+01
    -10.964 -0.2690E-13  0.2000E+01
    -10.892 -0.1519E-11  0.2000E+01
    -10.820 -0.6777E-10  0.2000E+01
    -10.748 -0.2314E-08  0.2000E+01
    -10.676 -0.6044E-07  0.2000E+01
    -10.604 -0.1204E-05  0.2000E+01
    -10.532 -0.1825E-04  0.2000E+01
    -10.460 -0.2095E-03  0.2000E+01
    -10.388 -0.1810E-02  0.2000E+01
    -10.316 -0.1164E-01  0.1999E+01
    -10.244 -0.5471E-01  0.1995E+01
    -10.172 -0.1814E+00  0.1982E+01
    -10.100 -0.3870E+00  0.1954E+01
    -10.028 -0.3469E+00  0.1929E+01
     -9.956  0.7503E+00  0.1983E+01
     -9.884  0.3493E+01  0.2235E+01
     -9.812  0.6842E+01  0.2727E+01
     -9.740  0.8293E+01  0.3324E+01
     -9.668  0.6506E+01  0.3792E+01
     -9.596  0.2966E+01  0.4006E+01
     -9.524  0.1639E+00  0.4018E+01
     -9.452 -0.6223E+00  0.3973E+01
     -9.380  0.7981E+00  0.4030E+01
     -9.308  0.3995E+01  0.4318E+01
     -9.236  0.7203E+01  0.4836E+01
     -9.164  0.7886E+01  0.5404E+01
     -9.092  0.5504E+01  0.5800E+01
     -9.020  0.2694E+01  0.5994E+01
     -8.948  0.2555E+01  0.6178E+01
     -8.876  0.5242E+01  0.6555E+01
     -8.804  0.7797E+01  0.7117E+01
     -8.732  0.7425E+01  0.7651E+01
     -8.660  0.4443E+01  0.7971E+01
     -8.588  0.1359E+01  0.8069E+01
     -8.516 -0.1859E+00  0.8055E+01
     -8.444 -0.4281E+00  0.8024E+01
     -8.372 -0.2369E+00  0.8007E+01
     -8.300 -0.7982E-01  0.8002E+01
     -8.228 -0.1865E-01  0.8000E+01
     -8.156 -0.3162E-02  0.8000E+01
     -8.084 -0.3976E-03  0.8000E+01
     -8.012 -0.3751E-04  0.8000E+01
     -7.940 -0.2677E-05  0.8000E+01
     -7.868 -0.1451E-06  0.8000E+01
     -7.796 -0.5997E-08  0.8000E+01
     -7.724 -0.1895E-09  0.8000E+01
     -7.652 -0.4581E-11  0.8000E+01
     -7.580 -0.8637E-13  0.8000E+01
     -7.508  0.0000E+00  0.8000E+01
     -7.437  0.0000E+00  0.8000E+01
     -7.365  0.0000E+00  0.8000E+01
     -7.293  0.0000E+00  0.8000E+01
     -7.221  0.0000E+00  0.8000E+01
     -7.149  0.0000E+00  0.8000E+01
     -7.077  0.0000E+00  0.8000E+01
     -7.005  0.0000E+00  0.8000E+01
     -6.933  0.0000E+00  0.8000E+01
     -6.861  0.0000E+00  0.8000E+01
     -6.789  0.0000E+00  0.8000E+01
     -6.717  0.0000E+00  0.8000E+01
     -6.645  0.0000E+00  0.8000E+01
     -6.573  0.0000E+00  0.8000E+01
     -6.501  0.0000E+00  0.8000E+01
     -6.429  0.0000E+00  0.8000E+01
     -6.357  0.0000E+00  0.8000E+01
     -6.285  0.0000E+00  0.8000E+01
     -6.213  0.0000E+00  0.8000E+01
     -6.141  0.0000E+00  0.8000E+01
     -6.069  0.0000E+00  0.8000E+01
     -5.997  0.0000E+00  0.8000E+01
     -5.925  0.0000E+00  0.8000E+01
     -5.853  0.0000E+00  0.8000E+01
     -5.781  0.0000E+00  0.8000E+01
     -5.709  0.0000E+00  0.8000E+01
     -5.637  0.0000E+00  0.8000E+01
     -5.565  0.0000E+00  0.8000E+01
     -5.493  0.0000E+00  0.8000E+01
     -5.421  0.0000E+00  0.8000E+01
     -5.349  0.0000E+00  0.8000E+01
     -5.277  0.0000E+00  0.8000E+01
     -5.205  0.0000E+00  0.8000E+01
     -5.133  0.0000E+00  0.8000E+01
     -5.061  0.0000E+00  0.8000E+01
     -4.989  0.0000E+00  0.8000E+01
     -4.917  0.0000E+00  0.8000E+01
     -4.845  0.0000E+00  0.8000E+01
     -4.773  0.0000E+00  0.8000E+01
     -4.701  0.0000E+00  0.8000E+01
     -4.629  0.0000E+00  0.8000E+01
     -4.557  0.0000E+00  0.8000E+01
     -4.485  0.0000E+00  0.8000E+01
     -4.413  0.0000E+00  0.8000E+01
     -4.341  0.0000E+00  0.8000E+01
     -4.269  0.0000E+00  0.8000E+01
     -4.197  0.0000E+00  0.8000E+01
     -4.125  0.0000E+00  0.8000E+01
     -4.053  0.0000E+00  0.8000E+01
     -3.981  0.0000E+00  0.8000E+01
     -3.909  0.0000E+00  0.8000E+01
     -3.837  0.0000E+00  0.8000E+01
     -3.765  0.0000E+00  0.8000E+01
     -3.693  0.0000E+00  0.8000E+01
     -3.621  0.0000E+00  0.8000E+01
     -3.549  0.0000E+00  0.8000E+01
     -3.477  0.0000E+00  0.8000E+01
     -3.406  0.0000E+00  0.8000E+01
     -3.334  0.0000E+00  0.8000E+01
     -3.262  0.0000E+00  0.8000E+01
     -3.190  0.0000E+00  0.8000E+01
     -3.118  0.0000E+00  0.8000E+01