    5    5    1    1
  0.1999795E+03  0.1008728E-08  0.1003717E-08  0.9876676E-09  0.2000000E-14
   50.000000000000000     
  CAR 
 unknown system                          
      8      4      8

  0.2500000E+00  0.2500000E+00  0.2500000E+00  0.2500000E+00
    1      -16.897881   1.000000
    2       -9.431168   1.006180
    3       -9.224951   1.029275
    4       -9.158529   0.964671
    5       -0.311176   0.000000
    6        0.559591   0.000000
    7        0.665921   0.000000
    8        0.706376   0.000000

 -0.2500000E+00  0.2500000E+00  0.2500000E+00  0.2500000E+00
    1      -16.897841   1.000000
    2       -9.431133   1.006184
    3       -9.224916   1.029262
    4       -9.158360   0.964388
    5       -0.314800   0.000000
    6        0.564714   0.000000
    7        0.678260   0.000000
    8        0.704520   0.000000

  0.2500000E+00 -0.2500000E+00  0.2500000E+00  0.2500000E+00
    1      -16.897841   1.000000
    2       -9.431112   1.006186
    3       -9.224870   1.029244
    4       -9.158420   0.964488
    5       -0.313289   0.000000
    6        0.553710   0.000000
    7        0.677824   0.000000
    8        0.712809   0.000000

 -0.2500000E+00 -0.2500000E+00  0.2500000E+00  0.2500000E+00
    1      -16.897880   1.000000
    2       -9.431127   1.006185
    3       -9.225109   1.029336
    4       -9.158487   0.964601
    5       -0.313583   0.000000
    6        0.567246   0.000000
    7        0.664859   0.000000
    8        0.711464   0.000000
