       N       E                     dE             d eps       ncg     rms          rms(c)
DAV:   1     0.149811657415E+02    0.14981E+02   -0.19788E+03    96   0.416E+02
DAV:   2    -0.228324114842E+02   -0.37814E+02   -0.37814E+02    72   0.112E+02
DAV:   3    -0.273634477285E+02   -0.45310E+01   -0.45431E+01    64   0.430E+01
DAV:   4    -0.275561359026E+02   -0.19269E+00   -0.19176E+00   128   0.988E+00
DAV:   5    -0.275562022046E+02   -0.66302E-04   -0.66304E-04    88   0.206E-01    0.886E+00
RMM:   6    -0.246212977126E+02    0.29349E+01   -0.54537E+00    64   0.143E+01    0.441E+00
RMM:   7    -0.241205616194E+02    0.50074E+00   -0.12526E+00    64   0.648E+00    0.237E+00
RMM:   8    -0.239889813536E+02    0.13158E+00   -0.13703E-01    64   0.257E+00    0.825E-01
RMM:   9    -0.239688492845E+02    0.20132E-01   -0.20778E-02    64   0.106E+00    0.312E-01
RMM:  10    -0.239669001831E+02    0.19491E-02   -0.28122E-03    64   0.329E-01    0.183E-01
RMM:  11    -0.239661131738E+02    0.78701E-03   -0.72237E-03    64   0.455E-01    0.173E-01
RMM:  12    -0.239614460991E+02    0.46671E-02   -0.23534E-03    64   0.310E-01    0.125E-01
RMM:  13    -0.239630690134E+02   -0.16229E-02   -0.12086E-03    64   0.230E-01    0.444E-02
RMM:  14    -0.239697505526E+02   -0.66815E-02   -0.11431E-03    64   0.194E-01    0.587E-02
RMM:  15    -0.239718790334E+02   -0.21285E-02   -0.52236E-04    64   0.125E-01    0.501E-02
RMM:  16    -0.239735065089E+02   -0.16275E-02   -0.58260E-04    64   0.145E-01    0.647E-02
RMM:  17    -0.239739256529E+02   -0.41914E-03   -0.69711E-05    64   0.505E-02    0.214E-02
RMM:  18    -0.239742121872E+02   -0.28653E-03   -0.20574E-04    64   0.846E-02    0.301E-02
RMM:  19    -0.239742143339E+02   -0.21467E-05   -0.86094E-06    64   0.206E-02    0.171E-02
RMM:  20    -0.239742514785E+02   -0.37145E-04   -0.52632E-05    64   0.424E-02    0.531E-03
RMM:  21    -0.239742587008E+02   -0.72222E-05   -0.13786E-06    48   0.916E-03    0.280E-03
RMM:  22    -0.239742620522E+02   -0.33515E-05   -0.31451E-06    60   0.105E-02    0.196E-03
RMM:  23    -0.239742625929E+02   -0.54063E-06   -0.17310E-07    48   0.300E-03
    1 T=   118. E= -.23912914E+02 F= -.23974263E+02 E0= -.23987251E+02  EK= 0.61198E-01 SP= 0.00E+00 SK= 0.15E-03
       N       E                     dE             d eps       ncg     rms          rms(c)
DAV:   1    -0.239338403553E+02    0.40422E-01   -0.39440E+00    64   0.193E+01    0.797E-01
RMM:   2    -0.239294400105E+02    0.44003E-02   -0.14098E-01    64   0.301E+00    0.582E-01
RMM:   3    -0.239346382926E+02   -0.51983E-02   -0.36783E-02    64   0.141E+00    0.532E-01
RMM:   4    -0.239385212441E+02   -0.38830E-02   -0.10706E-02    64   0.700E-01    0.501E-01
RMM:   5    -0.239332076540E+02    0.53136E-02   -0.19241E-02    64   0.816E-01    0.205E-01
RMM:   6    -0.239335847522E+02   -0.37710E-03   -0.18749E-03    64   0.302E-01    0.170E-01
RMM:   7    -0.239330265371E+02    0.55822E-03   -0.77027E-04    64   0.179E-01    0.110E-01
RMM:   8    -0.239329360196E+02    0.90518E-04   -0.30527E-04    64   0.109E-01    0.845E-02
RMM:   9    -0.239328446101E+02    0.91409E-04   -0.34209E-04    64   0.119E-01    0.500E-02
RMM:  10    -0.239328065217E+02    0.38088E-04   -0.75129E-05    64   0.559E-02    0.343E-02
RMM:  11    -0.239328005945E+02    0.59271E-05   -0.19965E-04    64   0.880E-02    0.317E-03
RMM:  12    -0.239328194080E+02   -0.18813E-04   -0.11437E-05    64   0.248E-02    0.443E-03
RMM:  13    -0.239328359339E+02   -0.16526E-04   -0.40327E-06    60   0.125E-02    0.729E-03
RMM:  14    -0.239328405953E+02   -0.46614E-05   -0.33803E-06    56   0.119E-02    0.551E-03
RMM:  15    -0.239328432981E+02   -0.27028E-05   -0.37444E-06    60   0.114E-02    0.201E-03
RMM:  16    -0.239328447100E+02   -0.14119E-05   -0.52196E-07    48   0.575E-03    0.920E-04
RMM:  17    -0.239328459368E+02   -0.12269E-05   -0.52884E-07    48   0.537E-03    0.879E-04
RMM:  18    -0.239328464028E+02   -0.46601E-06   -0.85919E-08    48   0.256E-03
    2 T=   100. E= -.23879072E+02 F= -.23932846E+02 E0= -.23938073E+02  EK= 0.51787E-01 SP= 0.87E-03 SK= 0.11E-02
       N       E                     dE             d eps       ncg     rms          rms(c)
DAV:   1    -0.239224896613E+02    0.10356E-01   -0.31256E+00    64   0.170E+01    0.381E-01
RMM:   2    -0.239448202713E+02   -0.22331E-01   -0.15749E-01    64   0.256E+00    0.831E-01
RMM:   3    -0.239272780146E+02    0.17542E-01   -0.29121E-02    64   0.111E+00    0.492E-01
RMM:   4    -0.239229292874E+02    0.43487E-02   -0.21888E-02    64   0.909E-01    0.154E-01
RMM:   5    -0.239229666008E+02   -0.37313E-04   -0.11295E-02    64   0.652E-01    0.664E-02
RMM:   6    -0.239230298885E+02   -0.63288E-04   -0.63180E-04    64   0.195E-01    0.554E-02
RMM:   7    -0.239229840320E+02    0.45857E-04   -0.69973E-05    64   0.573E-02    0.379E-02
RMM:   8    -0.239229708931E+02    0.13139E-04   -0.25062E-04    64   0.920E-02    0.634E-03
RMM:   9    -0.239229870393E+02   -0.16146E-04   -0.45418E-05    64   0.432E-02    0.987E-03
RMM:  10    -0.239229986982E+02   -0.11659E-04   -0.12486E-05    64   0.212E-02    0.386E-03
RMM:  11    -0.239230039515E+02   -0.52533E-05   -0.33368E-06    60   0.109E-02    0.435E-03
RMM:  12    -0.239230071617E+02   -0.32101E-05   -0.11854E-06    48   0.680E-03    0.198E-03
RMM:  13    -0.239230084706E+02   -0.13090E-05   -0.30715E-06    60   0.109E-02    0.216E-03
RMM:  14    -0.239230087828E+02   -0.31217E-06   -0.20103E-07    48   0.338E-03
    3 T=    58. E= -.23888772E+02 F= -.23923009E+02 E0= -.23926936E+02  EK= 0.29957E-01 SP= 0.24E-02 SK= 0.19E-02
       N       E                     dE             d eps       ncg     rms          rms(c)
DAV:   1    -0.239607001932E+02   -0.37692E-01   -0.91543E-01    64   0.962E+00    0.440E-01
RMM:   2    -0.239647278028E+02   -0.40276E-02   -0.60860E-02    64   0.186E+00    0.439E-01
RMM:   3    -0.239633532773E+02    0.13745E-02   -0.30084E-02    64   0.105E+00    0.264E-01
RMM:   4    -0.239645065342E+02   -0.11533E-02   -0.16284E-02    64   0.795E-01    0.298E-01
RMM:   5    -0.239621852918E+02    0.23212E-02   -0.30812E-03    64   0.337E-01    0.177E-01
RMM:   6    -0.239614714307E+02    0.71386E-03   -0.39813E-03    64   0.386E-01    0.972E-02
RMM:   7    -0.239613177640E+02    0.15367E-03   -0.21282E-04    64   0.107E-01    0.737E-02
RMM:   8    -0.239611847943E+02    0.13297E-03   -0.31773E-04    64   0.109E-01    0.390E-02
RMM:   9    -0.239611730872E+02    0.11707E-04   -0.52165E-05    64   0.471E-02    0.293E-02
RMM:  10    -0.239611552547E+02    0.17833E-04   -0.41473E-05    64   0.416E-02    0.141E-02
RMM:  11    -0.239611531986E+02    0.20561E-05   -0.12434E-05    64   0.235E-02    0.715E-03
RMM:  12    -0.239611544233E+02   -0.12246E-05   -0.55435E-06    64   0.155E-02    0.261E-03
RMM:  13    -0.239611555164E+02   -0.10931E-05   -0.14797E-06    48   0.883E-03    0.980E-04
RMM:  14    -0.239611559911E+02   -0.47474E-06   -0.48878E-07    48   0.586E-03
    4 T=   108. E= -.23897967E+02 F= -.23961156E+02 E0= -.23965023E+02  EK= 0.56087E-01 SP= 0.40E-02 SK= 0.31E-02
       N       E                     dE             d eps       ncg     rms          rms(c)
DAV:   1    -0.239516647110E+02    0.94908E-02   -0.73287E-01    64   0.880E+00    0.340E-01
RMM:   2    -0.239602216073E+02   -0.85569E-02   -0.70752E-02    64   0.185E+00    0.592E-01
RMM:   3    -0.239591404052E+02    0.10812E-02   -0.15682E-01    64   0.228E+00    0.510E-01
RMM:   4    -0.239536090400E+02    0.55314E-02   -0.37562E-02    64   0.116E+00    0.173E-01
RMM:   5    -0.239531723361E+02    0.43670E-03   -0.28767E-03    64   0.370E-01    0.140E-01
RMM:   6    -0.239524093240E+02    0.76301E-03   -0.38211E-03    64   0.372E-01    0.423E-02
RMM:   7    -0.239523974226E+02    0.11901E-04   -0.26838E-04    64   0.106E-01    0.735E-03
RMM:   8    -0.239524567704E+02   -0.59348E-04   -0.66059E-05    64   0.531E-02    0.104E-02
RMM:   9    -0.239524734260E+02   -0.16656E-04   -0.17874E-05    64   0.262E-02    0.303E-03
RMM:  10    -0.239524905667E+02   -0.17141E-04   -0.12690E-06    48   0.876E-03    0.189E-03
RMM:  11    -0.239524982673E+02   -0.77007E-05   -0.11210E-06    48   0.719E-03    0.497E-04
RMM:  12    -0.239525022898E+02   -0.40225E-05   -0.75208E-07    48   0.614E-03    0.154E-03
RMM:  13    -0.239525028625E+02   -0.57265E-06   -0.19216E-07    48   0.312E-03
    5 T=   116. E= -.23879969E+02 F= -.23952503E+02 E0= -.23956732E+02  EK= 0.60067E-01 SP= 0.63E-02 SK= 0.61E-02
       N       E                     dE             d eps       ncg     rms          rms(c)
DAV:   1    -0.239625778434E+02   -0.10076E-01   -0.95218E-01    64   0.923E+00    0.708E-01
RMM:   2    -0.240011106029E+02   -0.38533E-01   -0.45064E-01    64   0.378E+00    0.138E+00
RMM:   3    -0.240121057820E+02   -0.10995E-01   -0.95894E-01    64   0.549E+00    0.117E+00
RMM:   4    -0.239567348309E+02    0.55371E-01   -0.13246E-01    64   0.208E+00    0.377E-01
RMM:   5    -0.239533938773E+02    0.33410E-02   -0.15116E-02    64   0.815E-01    0.329E-01
RMM:   6    -0.239508667758E+02    0.25271E-02   -0.45659E-03    64   0.421E-01    0.714E-02
RMM:   7    -0.239525781021E+02   -0.17113E-02   -0.45232E-03    64   0.389E-01    0.176E-01
RMM:   8    -0.239519832664E+02    0.59484E-03   -0.36810E-03    64   0.352E-01    0.642E-02
RMM:   9    -0.239521163265E+02   -0.13306E-03   -0.47565E-04    68   0.143E-01    0.798E-02
RMM:  10    -0.239520802583E+02    0.36068E-04   -0.11983E-04    64   0.645E-02    0.137E-02
RMM:  11    -0.239521383557E+02   -0.58097E-04   -0.23414E-05    64   0.308E-02    0.172E-02
RMM:  12    -0.239521474098E+02   -0.90541E-05   -0.99368E-06    64   0.194E-02    0.755E-03
RMM:  13    -0.239521494468E+02   -0.20370E-05   -0.16939E-06    52   0.768E-03    0.272E-03
RMM:  14    -0.239521522106E+02   -0.27638E-05   -0.17996E-06    48   0.896E-03    0.407E-03
RMM:  15    -0.239521534150E+02   -0.12044E-05   -0.38280E-07    48   0.445E-03    0.144E-03
RMM:  16    -0.239521547948E+02   -0.13798E-05   -0.16779E-07    48   0.274E-03    0.837E-04
RMM:  17    -0.239521559617E+02   -0.11669E-05   -0.26426E-07    48   0.343E-03    0.833E-04
RMM:  18    -0.239521562059E+02   -0.24424E-06   -0.21068E-08    36   0.169E-03
    6 T=   115. E= -.23872537E+02 F= -.23952156E+02 E0= -.23960092E+02  EK= 0.59688E-01 SP= 0.95E-02 SK= 0.10E-01
       N       E                     dE             d eps       ncg     rms          rms(c)
DAV:   1    -0.239572026916E+02   -0.50467E-02   -0.12861E+00    64   0.101E+01    0.595E-01
RMM:   2    -0.239785653507E+02   -0.21363E-01   -0.11472E-01    64   0.234E+00    0.969E-01
RMM:   3    -0.239478148107E+02    0.30751E-01   -0.65479E-02    64   0.150E+00    0.400E-01
RMM:   4    -0.239469487917E+02    0.86602E-03   -0.58394E-02    64   0.144E+00    0.284E-01
RMM:   5    -0.239451210923E+02    0.18277E-02   -0.22053E-03    64   0.342E-01    0.215E-01
RMM:   6    -0.239444120438E+02    0.70905E-03   -0.14084E-03    64   0.226E-01    0.164E-01
RMM:   7    -0.239442088170E+02    0.20323E-03   -0.16059E-03    64   0.243E-01    0.141E-01
RMM:   8    -0.239440916322E+02    0.11718E-03   -0.48179E-04    64   0.139E-01    0.802E-02
RMM:   9    -0.239443715010E+02   -0.27987E-03   -0.16111E-03    64   0.232E-01    0.425E-02
RMM:  10    -0.239444224213E+02   -0.50920E-04   -0.13206E-04    64   0.733E-02    0.339E-02
RMM:  11    -0.239444289306E+02   -0.65093E-05   -0.28815E-05    64   0.334E-02    0.975E-03
RMM:  12    -0.239444560895E+02   -0.27159E-04   -0.24684E-05    64   0.297E-02    0.931E-03
RMM:  13    -0.239444758881E+02   -0.19799E-04   -0.31702E-06    58   0.116E-02    0.115E-02
RMM:  14    -0.239444872158E+02   -0.11328E-04   -0.18640E-05    64   0.247E-02    0.745E-03
RMM:  15    -0.239444900204E+02   -0.28046E-05   -0.99616E-07    48   0.692E-03    0.250E-03
RMM:  16    -0.239444920055E+02   -0.19851E-05   -0.26768E-06    56   0.966E-03    0.969E-04
RMM:  17    -0.239444936424E+02   -0.16369E-05   -0.21640E-07    48   0.387E-03    0.140E-03
RMM:  18    -0.239444942206E+02   -0.57819E-06   -0.16059E-08    36   0.173E-03
    7 T=    94. E= -.23867442E+02 F= -.23944494E+02 E0= -.23952903E+02  EK= 0.48736E-01 SP= 0.14E-01 SK= 0.15E-01
       N       E                     dE             d eps       ncg     rms          rms(c)
DAV:   1    -0.240093906927E+02   -0.64897E-01   -0.10879E+00    64   0.103E+01    0.710E-01
RMM:   2    -0.240010307762E+02    0.83599E-02   -0.35428E-02    64   0.138E+00    0.527E-01
RMM:   3    -0.240007853866E+02    0.24539E-03   -0.17327E-02    64   0.872E-01    0.493E-01
RMM:   4    -0.240040764765E+02   -0.32911E-02   -0.47018E-02    64   0.129E+00    0.482E-01
RMM:   5    -0.239994867371E+02    0.45897E-02   -0.18547E-02    64   0.791E-01    0.298E-01
RMM:   6    -0.239998866069E+02   -0.39987E-03   -0.10891E-03    64   0.242E-01    0.281E-01
RMM:   7    -0.239986751099E+02    0.12115E-02   -0.11098E-03    64   0.204E-01    0.202E-01
RMM:   8    -0.239981556604E+02    0.51945E-03   -0.43384E-04    64   0.135E-01    0.149E-01
RMM:   9    -0.239977581837E+02    0.39748E-03   -0.35708E-04    64   0.123E-01    0.102E-01
RMM:  10    -0.239976112764E+02    0.14691E-03   -0.13337E-04    64   0.747E-02    0.808E-02
RMM:  11    -0.239974734263E+02    0.13785E-03   -0.16539E-04    64   0.831E-02    0.534E-02
RMM:  12    -0.239973971913E+02    0.76235E-04   -0.24600E-04    64   0.995E-02    0.238E-02
RMM:  13    -0.239973900757E+02    0.71156E-05   -0.11204E-04    64   0.672E-02    0.933E-03
RMM:  14    -0.239973954449E+02   -0.53692E-05   -0.69005E-06    64   0.188E-02    0.557E-03
RMM:  15    -0.239973976716E+02   -0.22267E-05   -0.22045E-06    52   0.102E-02    0.429E-03
RMM:  16    -0.239973999700E+02   -0.22983E-05   -0.28988E-06    56   0.113E-02    0.129E-03
RMM:  17    -0.239974006934E+02   -0.72343E-06   -0.49728E-07    48   0.535E-03
    8 T=   138. E= -.23886505E+02 F= -.23997401E+02 E0= -.24002330E+02  EK= 0.71382E-01 SP= 0.18E-01 SK= 0.21E-01
       N       E                     dE             d eps       ncg     rms          rms(c)
DAV:   1    -0.239746994339E+02    0.22701E-01   -0.80915E-01    64   0.911E+00    0.636E-01
RMM:   2    -0.240265233501E+02   -0.51824E-01   -0.19503E-01    64   0.296E+00    0.123E+00
RMM:   3    -0.239787741739E+02    0.47749E-01   -0.57548E-02    64   0.158E+00    0.671E-01
RMM:   4    -0.239879620759E+02   -0.91879E-02   -0.50912E-02    64   0.134E+00    0.761E-01
RMM:   5    -0.239782319944E+02    0.97301E-02   -0.54692E-03    64   0.510E-01    0.497E-01
RMM:   6    -0.239753356318E+02    0.28964E-02   -0.56262E-03    64   0.474E-01    0.398E-01
RMM:   7    -0.239728823661E+02    0.24533E-02   -0.58006E-03    64   0.472E-01    0.256E-01
RMM:   8    -0.239708816894E+02    0.20007E-02   -0.79704E-03    64   0.556E-01    0.175E-01
RMM:   9    -0.239710650631E+02   -0.18337E-03   -0.23752E-03    64   0.320E-01    0.115E-01
RMM:  10    -0.239709937522E+02    0.71311E-04   -0.14869E-04    64   0.931E-02    0.882E-02
RMM:  11    -0.239709104555E+02    0.83297E-04   -0.89901E-04    64   0.183E-01    0.358E-02
RMM:  12    -0.239709589944E+02   -0.48539E-04   -0.53978E-05    64   0.479E-02    0.186E-02
RMM:  13    -0.239710110627E+02   -0.52068E-04   -0.51680E-05    64   0.440E-02    0.342E-02
RMM:  14    -0.239710100337E+02    0.10289E-05   -0.14483E-05    64   0.255E-02    0.146E-02
RMM:  15    -0.239710152420E+02   -0.52082E-05   -0.65864E-06    64   0.160E-02    0.745E-03
RMM:  16    -0.239710218886E+02   -0.66466E-05   -0.66635E-06    64   0.162E-02    0.287E-03
RMM:  17    -0.239710236877E+02   -0.17992E-05   -0.21379E-07    48   0.390E-03    0.120E-03
RMM:  18    -0.239710250818E+02   -0.13940E-05   -0.31315E-07    48   0.380E-03    0.125E-03
RMM:  19    -0.239710254287E+02   -0.34687E-06   -0.47216E-08    44   0.188E-03
    9 T=   145. E= -.23839807E+02 F= -.23971025E+02 E0= -.23980587E+02  EK= 0.75060E-01 SP= 0.24E-01 SK= 0.32E-01
       N       E                     dE             d eps       ncg     rms          rms(c)
DAV:   1    -0.239446459911E+02    0.26379E-01   -0.17979E+00    64   0.128E+01    0.922E-01
RMM:   2    -0.240835181481E+02   -0.13887E+00   -0.50829E-01    64   0.465E+00    0.177E+00
RMM:   3    -0.240266859765E+02    0.56832E-01   -0.90016E-02    64   0.198E+00    0.148E+00
RMM:   4    -0.239642174610E+02    0.62469E-01   -0.15528E-01    64   0.238E+00    0.895E-01
RMM:   5    -0.239469319041E+02    0.17286E-01   -0.23057E-02    64   0.991E-01    0.853E-01
RMM:   6    -0.239334823401E+02    0.13450E-01   -0.23861E-02    64   0.962E-01    0.312E-01
RMM:   7    -0.239328686401E+02    0.61370E-03   -0.22224E-03    64   0.339E-01    0.217E-01
RMM:   8    -0.239325155036E+02    0.35314E-03   -0.43899E-03    64   0.403E-01    0.203E-01
RMM:   9    -0.239318350610E+02    0.68044E-03   -0.14920E-03    64   0.255E-01    0.820E-02
RMM:  10    -0.239320752534E+02   -0.24019E-03   -0.13682E-03    64   0.230E-01    0.105E-01
RMM:  11    -0.239320005570E+02    0.74696E-04   -0.40891E-04    64   0.127E-01    0.415E-02
RMM:  12    -0.239320384874E+02   -0.37930E-04   -0.17531E-04    64   0.888E-02    0.490E-02
RMM:  13    -0.239320409866E+02   -0.24993E-05   -0.77391E-05    64   0.581E-02    0.166E-02
RMM:  14    -0.239320932183E+02   -0.52232E-04   -0.59445E-05    64   0.489E-02    0.430E-02
RMM:  15    -0.239320767564E+02    0.16462E-04   -0.32474E-05    64   0.350E-02    0.582E-03
RMM:  16    -0.239320864577E+02   -0.97013E-05   -0.90663E-06    64   0.201E-02    0.731E-03
RMM:  17    -0.239320892516E+02   -0.27939E-05   -0.17714E-06    52   0.910E-03    0.365E-03
RMM:  18    -0.239320898718E+02   -0.62024E-06   -0.51664E-07    48   0.541E-03
   10 T=   146. E= -.23779713E+02 F= -.23932090E+02 E0= -.23942967E+02  EK= 0.75427E-01 SP= 0.31E-01 SK= 0.46E-01
