 vasp.5.4.4.18Apr17-6-g9f103f2a35 (build Jul 12 2018 13:43:46) complex           
 executed on             LinuxGNU date 2019.06.22  02:17:35
 running on    1 total cores
 distrk:  each k-point on    1 cores,    1 groups
 distr:  one band on NCORES_PER_BAND=   1 cores,    1 groups


--------------------------------------------------------------------------------------------------------


 INCAR:
 POTCAR:    PAW_PBE H 15Jun2001                   
 POTCAR:    PAW_PBE C 08Apr2002                   
 POTCAR:    PAW_PBE H 15Jun2001                   
   VRHFIN =H: ultrasoft test                                                    
   LEXCH  = PE                                                                  
   EATOM  =    12.4884 eV,    0.9179 Ry                                         
                                                                                
   TITEL  = PAW_PBE H 15Jun2001                                                 
   LULTRA =        F    use ultrasoft PP ?                                      
   IUNSCR =        0    unscreen: 0-lin 1-nonlin 2-no                           
   RPACOR =    0.000    partial core radius                                     
   POMASS =    1.000; ZVAL   =    1.000    mass and valenz                      
   RCORE  =    1.100    outmost cutoff radius                                   
   RWIGS  =    0.700; RWIGS  =    0.370    wigner-seitz radius (au A)           
   ENMAX  =  250.000; ENMIN  =  200.000 eV                                      
   RCLOC  =    0.701    cutoff for local pot                                    
   LCOR   =        T    correct aug charges                                     
   LPAW   =        T    paw PP                                                  
   EAUG   =  400.000                                                            
   RMAX   =    1.123    core radius for proj-oper                               
   RAUG   =    1.200    factor for augmentation sphere                          
   RDEP   =    1.112    radius for radial grids                                 
   RDEPT  =    0.926    core radius for aug-charge                              
                                                                                
   Atomic configuration                                                         
    2 entries                                                                   
     n  l   j            E        occ.                                          
     1  0  0.50        -6.4927   1.0000                                         
     2  1  0.50        -3.4015   0.0000                                         
   Description                                                                  
     l       E           TYP  RCUT    TYP  RCUT                                 
     0     -6.4927494     23  1.100                                             
     0      6.8029130     23  1.100                                             
     1     -4.0817478     23  1.100                                             
  local pseudopotential read in
  atomic valenz-charges read in
  non local Contribution for L=           0  read in
    real space projection operators read in
  non local Contribution for L=           0  read in
    real space projection operators read in
  non local Contribution for L=           1  read in
    real space projection operators read in
    PAW grid and wavefunctions read in

   number of l-projection  operators is LMAX  =           3
   number of lm-projection operators is LMMAX =           5

 POTCAR:    PAW_PBE C 08Apr2002                   
   VRHFIN =C: s2p2                                                              
   LEXCH  = PE                                                                  
   EATOM  =   147.1560 eV,   10.8157 Ry                                         
                                                                                
   TITEL  = PAW_PBE C 08Apr2002                                                 
   LULTRA =        F    use ultrasoft PP ?                                      
   IUNSCR =        1    unscreen: 0-lin 1-nonlin 2-no                           
   RPACOR =    1.200    partial core radius                                     
   POMASS =   12.011; ZVAL   =    4.000    mass and valenz                      
   RCORE  =    1.500    outmost cutoff radius                                   
   RWIGS  =    1.630; RWIGS  =    0.863    wigner-seitz radius (au A)           
   ENMAX  =  400.000; ENMIN  =  300.000 eV                                      
   ICORE  =        2    local potential                                         
   LCOR   =        T    correct aug charges                                     
   LPAW   =        T    paw PP                                                  
   EAUG   =  644.873                                                            
   DEXC   =    0.000                                                            
   RMAX   =    1.529    core radius for proj-oper                               
   RAUG   =    1.300    factor for augmentation sphere                          
   RDEP   =    1.501    radius for radial grids                                 
   RDEPT  =    1.300    core radius for aug-charge                              
                                                                                
   Atomic configuration                                                         
    4 entries                                                                   
     n  l   j            E        occ.                                          
     1  0  0.50      -273.3789   2.0000                                         
     2  0  0.50       -13.7508   2.0000                                         
     2  1  0.50        -5.2854   2.0000                                         
     3  2  1.50        -5.4423   0.0000                                         
   Description                                                                  
     l       E           TYP  RCUT    TYP  RCUT                                 
     0    -13.7508458     23  1.200                                             
     0     -8.2022199     23  1.200                                             
     1     -5.2854383     23  1.500                                             
     1     34.0145650     23  1.500                                             
     2     -5.4423304      7  1.500                                             
  local pseudopotential read in
  partial core-charges read in
  partial kinetic energy density read in
  atomic valenz-charges read in
  non local Contribution for L=           0  read in
    real space projection operators read in
  non local Contribution for L=           0  read in
    real space projection operators read in
  non local Contribution for L=           1  read in
    real space projection operators read in
  non local Contribution for L=           1  read in
    real space projection operators read in
    PAW grid and wavefunctions read in

   number of l-projection  operators is LMAX  =           4
   number of lm-projection operators is LMMAX =           8


 ----------------------------------------------------------------------------- 
|                                                                             |
|  ADVICE TO THIS USER RUNNING 'VASP/VAMP'   (HEAR YOUR MASTER'S VOICE ...):  |
|                                                                             |
|      You have a (more or less) 'small supercell' and for smaller cells      |
|      it is recommended  to use the reciprocal-space projection scheme!      |
|      The real space optimization is not  efficient for small cells and it   |
|      is also less accurate ...                                              |
|      Therefore set LREAL=.FALSE. in the  INCAR file                         |
|                                                                             |
 ----------------------------------------------------------------------------- 


 ----------------------------------------------------------------------------- 
|                                                                             |
|           W    W    AA    RRRRR   N    N  II  N    N   GGGG   !!!           |
|           W    W   A  A   R    R  NN   N  II  NN   N  G    G  !!!           |
|           W    W  A    A  R    R  N N  N  II  N N  N  G       !!!           |
|           W WW W  AAAAAA  RRRRR   N  N N  II  N  N N  G  GGG   !            |
|           WW  WW  A    A  R   R   N   NN  II  N   NN  G    G                |
|           W    W  A    A  R    R  N    N  II  N    N   GGGG   !!!           |
|                                                                             |
|     The real-space-projection scheme for the treatment of the nonlocal      |
|     pseudopotentials has been switched on -- but on file POTCAR I have      |
|     not found any entries signalling me that you have ever performed a      |
|     real-space optimization of all nonlocal projectors! BE WARNED that      |
|     a calculation using the real-space-projection scheme together with      |
|     nonlocal projectors which were not real-space-optimized (according      |
|     to the plane-wave-cutoff used in this calculation) might give more      |
|     or less inaccurate results                                              |
|     I hope you know what you are doing                                      |
|                                                                             |
 ----------------------------------------------------------------------------- 

  PAW_PBE H 15Jun2001                   :
 energy of atom  1       EATOM=  -12.4884
 kinetic energy error for atom=    0.0098 (will be added to EATOM!!)
  PAW_PBE C 08Apr2002                   :
 energy of atom  2       EATOM= -147.1560
 kinetic energy error for atom=    0.0288 (will be added to EATOM!!)


 POSCAR:  H  C                                   
  positions in cartesian coordinates
  No initial velocities read in
 exchange correlation table for  LEXCH =        8
   RHO(1)=    0.500       N(1)  =     2000
   RHO(2)=  100.500       N(2)  =     4000



--------------------------------------------------------------------------------------------------------


 ion  position               nearest neighbor table
   1  0.538  0.407  0.361-   5 1.10
   2  0.395  0.480  0.439-   5 1.10
   3  0.552  0.565  0.443-   5 1.10
   4  0.528  0.417  0.539-   5 1.08
   5  0.503  0.467  0.445-   4 1.08   3 1.10   1 1.10   2 1.10


IMPORTANT INFORMATION: All symmetrisations will be switched off!
NOSYMM: (Re-)initialisation of all symmetry stuff for point group C_1.




Automatic generation of k-mesh.
 generate k-points for:    2    2    2
Space group operators:
 irot       det(A)        alpha          n_x          n_y          n_z        tau_x        tau_y        tau_z
    1     1.000000     0.000000     1.000000     0.000000     0.000000     0.000000     0.000000     0.000000
 
 Subroutine IBZKPT returns following result:
 ===========================================
 
 Found      4 irreducible k-points:
 
 Following reciprocal coordinates:
            Coordinates               Weight
  0.250000  0.250000  0.250000      2.000000
 -0.250000  0.250000  0.250000      2.000000
  0.250000 -0.250000  0.250000      2.000000
 -0.250000 -0.250000  0.250000      2.000000
 
 Following cartesian coordinates:
            Coordinates               Weight
  0.024784  0.025172  0.025593      2.000000
 -0.024784  0.024646  0.025185      2.000000
  0.024784 -0.024646  0.025441      2.000000
 -0.024784 -0.025172  0.025033      2.000000
 


--------------------------------------------------------------------------------------------------------




 Dimension of arrays:
   k-points           NKPTS =      4   k-points in BZ     NKDIM =      4   number of bands    NBANDS=      8
   number of dos      NEDOS =    301   number of ions     NIONS =      5
   non local maximal  LDIM  =      4   non local SUM 2l+1 LMDIM =      8
   total plane-waves  NPLWV = 313600
   max r-space proj   IRMAX =    745   max aug-charges    IRDMAX=   3900
   dimension x,y,z NGX =    70 NGY =   70 NGZ =   64
   dimension x,y,z NGXF=   140 NGYF=  140 NGZF=  128
   support grid    NGXF=   140 NGYF=  140 NGZF=  128
   ions per type =               4   1
   NGX,Y,Z   is equivalent  to a cutoff of  11.54, 11.59, 10.77 a.u.
   NGXF,Y,Z  is equivalent  to a cutoff of  23.07, 23.19, 21.55 a.u.

 SYSTEM =  unknown system                          
 POSCAR =   H  C                                   

 Startparameter for this run:
   NWRITE =      2    write-flag & timer
   PREC   = a         normal or accurate (medium, high low for compatibility)
   ISTART =      0    job   : 0-new  1-cont  2-samecut
   ICHARG =      2    charge: 1-file 2-atom 10-const
   ISPIN  =      1    spin polarized calculation?
   LNONCOLLINEAR =      F non collinear calculations
   LSORBIT =      F    spin-orbit coupling
   INIWAV =      1    electr: 0-lowe 1-rand  2-diag
   LASPH  =      F    aspherical Exc in radial PAW
   METAGGA=      F    non-selfconsistent MetaGGA calc.

 Electronic Relaxation 1
   ENCUT  =  400.0 eV  29.40 Ry    5.42 a.u.  16.45 16.37 16.11*2*pi/ulx,y,z
   ENINI  =  400.0     initial cutoff
   ENAUG  =  644.9 eV  augmentation charge cutoff
   NELM   =     60;   NELMIN=  2; NELMDL= -5     # of ELM steps 
   EDIFF  = 0.1E-05   stopping-criterion for ELM
   LREAL  =      T    real-space projection
   NLSPLINE    = F    spline interpolate recip. space projectors
   LCOMPAT=      F    compatible to vasp.4.4
   GGA_COMPAT  = T    GGA compatible to vasp.4.4-vasp.4.6
   LMAXPAW     = -100 max onsite density
   LMAXMIX     =    2 max onsite mixed and CHGCAR
   VOSKOWN=      0    Vosko Wilk Nusair interpolation
   ROPT   =    0.00000   0.00000
 Ionic relaxation
   EDIFFG = 0.1E-04   stopping-criterion for IOM
   NSW    =     10    number of steps for IOM
   NBLOCK =      1;   KBLOCK =      1    inner block; outer block 
   IBRION =      0    ionic relax: 0-MD 1-quasi-New 2-CG
   NFREE  =      0    steps in history (QN), initial steepest desc. (CG)
   ISIF   =      2    stress and relaxation
   IWAVPR =     12    prediction:  0-non 1-charg 2-wave 3-comb
   ISYM   =      0    0-nonsym 1-usesym 2-fastsym
   LCORR  =      T    Harris-Foulkes like correction to forces

   POTIM  = 2.0000    time-step for ionic-motion
   TEIN   =   50.0    initial temperature
   TEBEG  =   50.0;   TEEND  =  50.0 temperature during run
   SMASS  =   0.00    Nose mass-parameter (am)
   estimated Nose-frequenzy (Omega)   =  0.79E+14 period in steps = 40.00 mass=   0.123E-29a.u.
   SCALEE = 1.0000    scale energy and forces
   NPACO  =    256;   APACO  = 16.0  distance and # of slots for P.C.
   PSTRESS=    0.0 pullay stress

  Mass of Ions in am
   POMASS =   1.00 12.01
  Ionic Valenz
   ZVAL   =   1.00  4.00
  Atomic Wigner-Seitz radii
   RWIGS  =  -1.00 -1.00
  virtual crystal weights 
   VCA    =   1.00  1.00
   NELECT =       8.0000    total number of electrons
   NUPDOWN=      -1.0000    fix difference up-down

 DOS related values:
   EMIN   =  10.00;   EMAX   =-10.00  energy-range for DOS
   EFERMI =   0.00
   ISMEAR =     1;   SIGMA  =   0.20  broadening in eV -4-tet -1-fermi 0-gaus

 Electronic relaxation 2 (details)
   IALGO  =     68    algorithm
   LDIAG  =      T    sub-space diagonalisation (order eigenvalues)
   LSUBROT=      F    optimize rotation matrix (better conditioning)
   TURBO    =      0    0=normal 1=particle mesh
   IRESTART =      0    0=no restart 2=restart with 2 vectors
   NREBOOT  =      0    no. of reboots
   NMIN     =      0    reboot dimension
   EREF     =   0.00    reference energy to select bands
   IMIX   =      4    mixing-type and parameters
     AMIX     =   0.40;   BMIX     =  1.00
     AMIX_MAG =   1.60;   BMIX_MAG =  1.00
     AMIN     =   0.10
     WC   =   100.;   INIMIX=   1;  MIXPRE=   1;  MAXMIX=  50

 Intra band minimization:
   WEIMIN = 0.0010     energy-eigenvalue tresh-hold
   EBREAK =  0.31E-07  absolut break condition
   DEPER  =   0.30     relativ break condition  

   TIME   =   0.40     timestep for ELM

  volume/ion in A,a.u.               =     199.98      1349.53
  Fermi-wavevector in a.u.,A,eV,Ry     =   0.327431  0.618755  1.458694  0.107211
  Thomas-Fermi vector in A             =   1.220151

 Write flags
   LWAVE        =      F    write WAVECAR
   LDOWNSAMPLE  =      F    k-point downsampling of WAVECAR
   LCHARG       =      F    write CHGCAR
   LVTOT        =      F    write LOCPOT, total local potential
   LVHAR        =      F    write LOCPOT, Hartree potential only
   LELF         =      F    write electronic localiz. function (ELF)
   LORBIT       =      0    0 simple, 1 ext, 2 COOP (PROOUT), +10 PAW based schemes


 Dipole corrections
   LMONO  =      F    monopole corrections only (constant potential shift)
   LDIPOL =      F    correct potential (dipole corrections)
   IDIPOL =      0    1-x, 2-y, 3-z, 4-all directions 
   EPSILON=  1.0000000 bulk dielectric constant

 Exchange correlation treatment:
   GGA     =    --    GGA type
   LEXCH   =     8    internal setting for exchange type
   VOSKOWN=      0    Vosko Wilk Nusair interpolation
   LHFCALC =     F    Hartree Fock is set to
   LHFONE  =     F    Hartree Fock one center treatment
   AEXX    =    0.0000 exact exchange contribution

 Linear response parameters
   LEPSILON=     F    determine dielectric tensor
   LRPA    =     F    only Hartree local field effects (RPA)
   LNABLA  =     F    use nabla operator in PAW spheres
   LVEL    =     F    velocity operator in full k-point grid
   LINTERFAST=   F  fast interpolation
   KINTER  =     0    interpolate to denser k-point grid
   CSHIFT  =0.1000    complex shift for real part using Kramers Kronig
   OMEGAMAX=  -1.0    maximum frequency
   DEG_THRESHOLD= 0.2000000E-02 threshold for treating states as degnerate
   RTIME   =   -0.100 relaxation time in fs
  (WPLASMAI=    0.000 imaginary part of plasma frequency in eV, 0.658/RTIME)
   DFIELD  = 0.0000000 0.0000000 0.0000000 field for delta impulse in time

 Orbital magnetization related:
   ORBITALMAG=     F  switch on orbital magnetization
   LCHIMAG   =     F  perturbation theory with respect to B field
   DQ        =  0.001000  dq finite difference perturbation B field
   LLRAUG    =     F  two centre corrections for induced B field



--------------------------------------------------------------------------------------------------------


 molecular dynamics for ions
   using nose mass (canonical ensemble)
 charge density and potential will be updated during run
 non-spin polarized calculation
 RMM-DIIS sequential band-by-band and
  variant of blocked Davidson during initial phase
 perform sub-space diagonalisation
    before iterative eigenvector-optimisation
 modified Broyden-mixing scheme, WC =      100.0
 initial mixing is a Kerker type mixing with AMIX =  0.4000 and BMIX =      1.0000
 Hartree-type preconditioning will be used
 using additional bands            4
 real space projection scheme for non local part
 use partial core corrections
 calculate Harris-corrections to forces   (improved forces if not selfconsistent)
 use gradient corrections 
 use of overlap-Matrix (Vanderbilt PP)
 Methfessel and Paxton  Order N= 1 SIGMA  =   0.20


--------------------------------------------------------------------------------------------------------


  energy-cutoff  :      400.00
  volume of cell :      999.90
      direct lattice vectors                 reciprocal lattice vectors
    10.087284594  0.000000000  0.000000000     0.099134707  0.001051061  0.000814939
    -0.106411607 10.036608007  0.000000000    -0.000000000  0.099635255  0.000304096
    -0.080868747 -0.030143333  9.876299135     0.000000000 -0.000000000  0.101252502

  length of vectors
    10.087284594 10.037172098  9.876676211     0.099143628  0.099635719  0.101252502



 k-points in units of 2pi/SCALE and weight: read from INCAR                         
   0.02478368  0.02517158  0.02559288       0.250
  -0.02478368  0.02464605  0.02518541       0.250
   0.02478368 -0.02464605  0.02544084       0.250
  -0.02478368 -0.02517158  0.02503337       0.250

 k-points in reciprocal lattice and weights: read from INCAR                         
   0.25000000  0.25000000  0.25000000       0.250
  -0.25000000  0.25000000  0.25000000       0.250
   0.25000000 -0.25000000  0.25000000       0.250
  -0.25000000 -0.25000000  0.25000000       0.250

 position of ions in fractional coordinates (direct lattice) 
   0.53828028  0.40657508  0.36068362
   0.39511269  0.48017744  0.43913737
   0.55193062  0.56540240  0.44253606
   0.52759256  0.41675542  0.53863739
   0.50325489  0.46731773  0.44541534

 position of ions in cartesian coordinates  (Angst):
   5.35735400  4.06976247  3.56221932
   3.89900522  4.80611566  4.33705199
   5.47152854  5.66138278  4.37061855
   5.23406972  4.16657449  5.31974400
   4.99072708  4.67685854  4.39905510



--------------------------------------------------------------------------------------------------------


 k-point  1 :   0.2500 0.2500 0.2500  plane waves:   18184
 k-point  2 :  -0.2500 0.2500 0.2500  plane waves:   18158
 k-point  3 :   0.2500-0.2500 0.2500  plane waves:   18156
 k-point  4 :  -0.2500-0.2500 0.2500  plane waves:   18185

 maximum and minimum number of plane-waves per node :     18185    18156

 maximum number of plane-waves:     18185
 maximum index in each direction: 
   IXMAX=   16   IYMAX=   16   IZMAX=   15
   IXMIN=  -16   IYMIN=  -16   IZMIN=  -16


 serial   3D FFT for wavefunctions
 parallel 3D FFT for charge:
    minimum data exchange during FFTs selected (reduces bandwidth)


 total amount of memory used by VASP MPI-rank0   280884. kBytes
=======================================================================

   base      :      30000. kBytes
   nonlr-proj:        153. kBytes
   fftplans  :      86708. kBytes
   grid      :     154683. kBytes
   one-center:         15. kBytes
   wavefun   :       9325. kBytes

     INWAV:  cpu time    0.0000: real time    0.0000
 Broyden mixing: mesh for mixing (old mesh)
   NGX = 33   NGY = 33   NGZ = 33
  (NGX  =140   NGY  =140   NGZ  =128)
  gives a total of  35937 points

 initial charge density was supplied:
 charge density of overlapping atoms calculated
 number of electron       8.0000000 magnetization 
 keeping initial charge density in first step


--------------------------------------------------------------------------------------------------------


 Maximum index for non-local projection operator          680
 Maximum index for augmentation-charges         3580 (set IRDMAX)


--------------------------------------------------------------------------------------------------------


 First call to EWALD:  gamma=   0.177
 Maximum number of real-space cells 3x 3x 3
 Maximum number of reciprocal cells 3x 3x 3

    FEWALD:  cpu time    0.0007: real time    0.0007


--------------------------------------- Iteration      1(   1)  ---------------------------------------


    POTLOK:  cpu time    1.5860: real time    1.5900
    SETDIJ:  cpu time    0.0068: real time    0.0068
     EDDAV:  cpu time    2.3362: real time    2.3422
       DOS:  cpu time    0.0004: real time    0.0004
    --------------------------------------------
      LOOP:  cpu time    3.9293: real time    3.9393

 eigenvalue-minimisations  :    96
 total energy-change (2. order) : 0.1498117E+02  (-0.1978808E+03)
 number of electron       8.0000000 magnetization 
 augmentation part        8.0000000 magnetization 

 Free energy of the ion-electron system (eV)
  ---------------------------------------------------
  alpha Z        PSCENC =         0.24227563
  Ewald energy   TEWEN  =       129.49399063
  -Hartree energ DENC   =      -244.38084832
  -exchange      EXHF   =         0.00000000
  -V(xc)+E(xc)   XCENC  =        22.02811117
  PAW double counting   =       117.05815612     -117.66307307
  entropy T*S    EENTRO =         0.00289895
  eigenvalues    EBANDS =       -88.84209992
  atomic energy  EATOM  =       197.04175453
  Solvation  Ediel_sol  =         0.00000000
  ---------------------------------------------------
  free energy    TOTEN  =        14.98116574 eV

  energy without entropy =       14.97826679  energy(sigma->0) =       14.98019942


--------------------------------------------------------------------------------------------------------




--------------------------------------- Iteration      1(   2)  ---------------------------------------


     EDDAV:  cpu time    1.6776: real time    1.6817
       DOS:  cpu time    0.0002: real time    0.0002
    --------------------------------------------
      LOOP:  cpu time    1.6778: real time    1.6819

 eigenvalue-minimisations  :    72
 total energy-change (2. order) :-0.3781358E+02  (-0.3781370E+02)
 number of electron       8.0000000 magnetization 
 augmentation part        8.0000000 magnetization 

 Free energy of the ion-electron system (eV)
  ---------------------------------------------------
  alpha Z        PSCENC =         0.24227563
  Ewald energy   TEWEN  =       129.49399063
  -Hartree energ DENC   =      -244.38084832
  -exchange      EXHF   =         0.00000000
  -V(xc)+E(xc)   XCENC  =        22.02811117
  PAW double counting   =       117.05815612     -117.66307307
  entropy T*S    EENTRO =         0.00370215
  eigenvalues    EBANDS =      -126.65648034
  atomic energy  EATOM  =       197.04175453
  Solvation  Ediel_sol  =         0.00000000
  ---------------------------------------------------
  free energy    TOTEN  =       -22.83241148 eV

  energy without entropy =      -22.83611364  energy(sigma->0) =      -22.83364554


--------------------------------------------------------------------------------------------------------




--------------------------------------- Iteration      1(   3)  ---------------------------------------


     EDDAV:  cpu time    1.8158: real time    1.8204
       DOS:  cpu time    0.0002: real time    0.0002
    --------------------------------------------
      LOOP:  cpu time    1.8161: real time    1.8206

 eigenvalue-minimisations  :    64
 total energy-change (2. order) :-0.4531036E+01  (-0.4543124E+01)
 number of electron       8.0000000 magnetization 
 augmentation part        8.0000000 magnetization 

 Free energy of the ion-electron system (eV)
  ---------------------------------------------------
  alpha Z        PSCENC =         0.24227563
  Ewald energy   TEWEN  =       129.49399063
  -Hartree energ DENC   =      -244.38084832
  -exchange      EXHF   =         0.00000000
  -V(xc)+E(xc)   XCENC  =        22.02811117
  PAW double counting   =       117.05815612     -117.66307307
  entropy T*S    EENTRO =         0.03237828
  eigenvalues    EBANDS =      -131.21619271
  atomic energy  EATOM  =       197.04175453
  Solvation  Ediel_sol  =         0.00000000
  ---------------------------------------------------
  free energy    TOTEN  =       -27.36344773 eV

  energy without entropy =      -27.39582601  energy(sigma->0) =      -27.37424049


--------------------------------------------------------------------------------------------------------




--------------------------------------- Iteration      1(   4)  ---------------------------------------


     EDDAV:  cpu time    2.9778: real time    2.9850
       DOS:  cpu time    0.0002: real time    0.0002
    --------------------------------------------
      LOOP:  cpu time    2.9780: real time    2.9852

 eigenvalue-minimisations  :   128
 total energy-change (2. order) :-0.1926882E+00  (-0.1917636E+00)
 number of electron       8.0000000 magnetization 
 augmentation part        8.0000000 magnetization 

 Free energy of the ion-electron system (eV)
  ---------------------------------------------------
  alpha Z        PSCENC =         0.24227563
  Ewald energy   TEWEN  =       129.49399063
  -Hartree energ DENC   =      -244.38084832
  -exchange      EXHF   =         0.00000000
  -V(xc)+E(xc)   XCENC  =        22.02811117
  PAW double counting   =       117.05815612     -117.66307307
  entropy T*S    EENTRO =         0.03535809
  eigenvalues    EBANDS =      -131.41186070
  atomic energy  EATOM  =       197.04175453
  Solvation  Ediel_sol  =         0.00000000
  ---------------------------------------------------
  free energy    TOTEN  =       -27.55613590 eV

  energy without entropy =      -27.59149399  energy(sigma->0) =      -27.56792193


--------------------------------------------------------------------------------------------------------




--------------------------------------- Iteration      1(   5)  ---------------------------------------


     EDDAV:  cpu time    2.0137: real time    2.0184
       DOS:  cpu time    0.0002: real time    0.0002
    CHARGE:  cpu time    0.1546: real time    0.1550
    MIXING:  cpu time    0.0383: real time    0.0384
    --------------------------------------------
      LOOP:  cpu time    2.2068: real time    2.2120

 eigenvalue-minimisations  :    88
 total energy-change (2. order) :-0.6630202E-04  (-0.6630417E-04)
 number of electron       8.0000001 magnetization 
 augmentation part        0.2261375 magnetization 

 Broyden mixing:
  rms(total) = 0.88574E+00    rms(broyden)= 0.88553E+00
  rms(prec ) = 0.12516E+01
  weight for this iteration     100.00

 Free energy of the ion-electron system (eV)
  ---------------------------------------------------
  alpha Z        PSCENC =         0.24227563
  Ewald energy   TEWEN  =       129.49399063
  -Hartree energ DENC   =      -244.38084832
  -exchange      EXHF   =         0.00000000
  -V(xc)+E(xc)   XCENC  =        22.02811117
  PAW double counting   =       117.05815612     -117.66307307
  entropy T*S    EENTRO =         0.03535856
  eigenvalues    EBANDS =      -131.41192747
  atomic energy  EATOM  =       197.04175453
  Solvation  Ediel_sol  =         0.00000000
  ---------------------------------------------------
  free energy    TOTEN  =       -27.55620220 eV

  energy without entropy =      -27.59156076  energy(sigma->0) =      -27.56798839


--------------------------------------------------------------------------------------------------------




--------------------------------------- Iteration      1(   6)  ---------------------------------------


    POTLOK:  cpu time    1.7822: real time    1.7870
    SETDIJ:  cpu time    0.0066: real time    0.0066
    EDDIAG:  cpu time    0.3163: real time    0.3173
  RMM-DIIS:  cpu time    1.1162: real time    1.1191
    ORTHCH:  cpu time    0.0116: real time    0.0117
       DOS:  cpu time    0.0002: real time    0.0002
    CHARGE:  cpu time    0.1412: real time    0.1417
    MIXING:  cpu time    0.0390: real time    0.0391
    --------------------------------------------
      LOOP:  cpu time    3.4134: real time    3.4226

 eigenvalue-minimisations  :    64
 total energy-change (2. order) : 0.2934904E+01  (-0.5453727E+00)
 number of electron       8.0000000 magnetization 
 augmentation part        0.1991863 magnetization 

 Broyden mixing:
  rms(total) = 0.44138E+00    rms(broyden)= 0.44130E+00
  rms(prec ) = 0.56945E+00
  weight for this iteration     100.00

 eigenvalues of (default mixing * dielectric matrix)
  average eigenvalue GAMMA=   1.3102
  1.3102

 Free energy of the ion-electron system (eV)
  ---------------------------------------------------
  alpha Z        PSCENC =         0.24227563
  Ewald energy   TEWEN  =       129.49399063
  -Hartree energ DENC   =      -264.24474967
  -exchange      EXHF   =         0.00000000
  -V(xc)+E(xc)   XCENC  =        23.23384339
  PAW double counting   =       244.37257084     -245.15475775
  entropy T*S    EENTRO =         0.03788445
  eigenvalues    EBANDS =      -109.64410978
  atomic energy  EATOM  =       197.04175453
  Solvation  Ediel_sol  =         0.00000000
  ---------------------------------------------------
  free energy    TOTEN  =       -24.62129771 eV

  energy without entropy =      -24.65918217  energy(sigma->0) =      -24.63392586


--------------------------------------------------------------------------------------------------------




--------------------------------------- Iteration      1(   7)  ---------------------------------------


    POTLOK:  cpu time    1.5979: real time    1.6023
    SETDIJ:  cpu time    0.0068: real time    0.0068
    EDDIAG:  cpu time    0.4273: real time    0.4285
  RMM-DIIS:  cpu time    1.1534: real time    1.1561
    ORTHCH:  cpu time    0.0117: real time    0.0117
       DOS:  cpu time    0.0003: real time    0.0003
    CHARGE:  cpu time    0.1435: real time    0.1439
    MIXING:  cpu time    0.0399: real time    0.0400
    --------------------------------------------
      LOOP:  cpu time    3.3807: real time    3.3895

 eigenvalue-minimisations  :    64
 total energy-change (2. order) : 0.5007361E+00  (-0.1252576E+00)
 number of electron       8.0000000 magnetization 
 augmentation part        0.1885646 magnetization 

 Broyden mixing:
  rms(total) = 0.23662E+00    rms(broyden)= 0.23656E+00
  rms(prec ) = 0.28491E+00
  weight for this iteration     100.00

 eigenvalues of (default mixing * dielectric matrix)
  average eigenvalue GAMMA=   1.7304
  1.4651  1.9956

 Free energy of the ion-electron system (eV)
  ---------------------------------------------------
  alpha Z        PSCENC =         0.24227563
  Ewald energy   TEWEN  =       129.49399063
  -Hartree energ DENC   =      -276.04990435
  -exchange      EXHF   =         0.00000000
  -V(xc)+E(xc)   XCENC  =        24.10016250
  PAW double counting   =       380.00045454     -380.82344668
  entropy T*S    EENTRO =         0.03978114
  eigenvalues    EBANDS =       -98.16562957
  atomic energy  EATOM  =       197.04175453
  Solvation  Ediel_sol  =         0.00000000
  ---------------------------------------------------
  free energy    TOTEN  =       -24.12056162 eV

  energy without entropy =      -24.16034276  energy(sigma->0) =      -24.13382200


--------------------------------------------------------------------------------------------------------




--------------------------------------- Iteration      1(   8)  ---------------------------------------


    POTLOK:  cpu time    1.6169: real time    1.6208
    SETDIJ:  cpu time    0.0063: real time    0.0063
    EDDIAG:  cpu time    0.3400: real time    0.3408
  RMM-DIIS:  cpu time    1.2901: real time    1.2932
    ORTHCH:  cpu time    0.0113: real time    0.0113
       DOS:  cpu time    0.0002: real time    0.0002
    CHARGE:  cpu time    0.1421: real time    0.1424
    MIXING:  cpu time    0.0426: real time    0.0427
    --------------------------------------------
      LOOP:  cpu time    3.4495: real time    3.4576

 eigenvalue-minimisations  :    64
 total energy-change (2. order) : 0.1315803E+00  (-0.1370300E-01)
 number of electron       8.0000000 magnetization 
 augmentation part        0.1871546 magnetization 

 Broyden mixing:
  rms(total) = 0.82541E-01    rms(broyden)= 0.82459E-01
  rms(prec ) = 0.11850E+00
  weight for this iteration     100.00

 eigenvalues of (default mixing * dielectric matrix)
  average eigenvalue GAMMA=   1.4320
  2.2526  1.4505  0.5929

 Free energy of the ion-electron system (eV)
  ---------------------------------------------------
  alpha Z        PSCENC =         0.24227563
  Ewald energy   TEWEN  =       129.49399063
  -Hartree energ DENC   =      -280.84762628
  -exchange      EXHF   =         0.00000000
  -V(xc)+E(xc)   XCENC  =        24.57203409
  PAW double counting   =       482.76851111     -483.56394907
  entropy T*S    EENTRO =         0.04046528
  eigenvalues    EBANDS =       -93.73643728
  atomic energy  EATOM  =       197.04175453
  Solvation  Ediel_sol  =         0.00000000
  ---------------------------------------------------
  free energy    TOTEN  =       -23.98898135 eV

  energy without entropy =      -24.02944664  energy(sigma->0) =      -24.00246978


--------------------------------------------------------------------------------------------------------




--------------------------------------- Iteration      1(   9)  ---------------------------------------


    POTLOK:  cpu time    1.6467: real time    1.6506
    SETDIJ:  cpu time    0.0062: real time    0.0063
    EDDIAG:  cpu time    0.3151: real time    0.3159
  RMM-DIIS:  cpu time    1.2183: real time    1.2212
    ORTHCH:  cpu time    0.0111: real time    0.0112
       DOS:  cpu time    0.0002: real time    0.0002
    CHARGE:  cpu time    0.1366: real time    0.1369
    MIXING:  cpu time    0.0399: real time    0.0400
    --------------------------------------------
      LOOP:  cpu time    3.3742: real time    3.3822

 eigenvalue-minimisations  :    64
 total energy-change (2. order) : 0.2013207E-01  (-0.2077761E-02)
 number of electron       8.0000000 magnetization 
 augmentation part        0.1868236 magnetization 

 Broyden mixing:
  rms(total) = 0.31214E-01    rms(broyden)= 0.31175E-01
  rms(prec ) = 0.54854E-01
  weight for this iteration     100.00

 eigenvalues of (default mixing * dielectric matrix)
  average eigenvalue GAMMA=   1.2215
  2.2166  1.4379  0.6158  0.6158

 Free energy of the ion-electron system (eV)
  ---------------------------------------------------
  alpha Z        PSCENC =         0.24227563
  Ewald energy   TEWEN  =       129.49399063
  -Hartree energ DENC   =      -282.13549366
  -exchange      EXHF   =         0.00000000
  -V(xc)+E(xc)   XCENC  =        24.67617059
  PAW double counting   =       500.65118096     -501.44306766
  entropy T*S    EENTRO =         0.03945527
  eigenvalues    EBANDS =       -92.53511558
  atomic energy  EATOM  =       197.04175453
  Solvation  Ediel_sol  =         0.00000000
  ---------------------------------------------------
  free energy    TOTEN  =       -23.96884928 eV

  energy without entropy =      -24.00830455  energy(sigma->0) =      -23.98200104


--------------------------------------------------------------------------------------------------------




--------------------------------------- Iteration      1(  10)  ---------------------------------------


    POTLOK:  cpu time    1.5897: real time    1.5935
    SETDIJ:  cpu time    0.0064: real time    0.0064
    EDDIAG:  cpu time    0.3166: real time    0.3174
  RMM-DIIS:  cpu time    1.1212: real time    1.1239
    ORTHCH:  cpu time    0.0112: real time    0.0112
       DOS:  cpu time    0.0002: real time    0.0002
    CHARGE:  cpu time    0.1787: real time    0.1791
    MIXING:  cpu time    0.0423: real time    0.0424
    --------------------------------------------
      LOOP:  cpu time    3.2663: real time    3.2741

 eigenvalue-minimisations  :    64
 total energy-change (2. order) : 0.1949101E-02  (-0.2812233E-03)
 number of electron       8.0000000 magnetization 
 augmentation part        0.1865419 magnetization 

 Broyden mixing:
  rms(total) = 0.18264E-01    rms(broyden)= 0.18242E-01
  rms(prec ) = 0.39537E-01
  weight for this iteration     100.00

 eigenvalues of (default mixing * dielectric matrix)
  average eigenvalue GAMMA=   1.2233
  2.0485  1.5465  1.1068  0.7073  0.7073

 Free energy of the ion-electron system (eV)
  ---------------------------------------------------
  alpha Z        PSCENC =         0.24227563
  Ewald energy   TEWEN  =       129.49399063
  -Hartree energ DENC   =      -282.66992078
  -exchange      EXHF   =         0.00000000
  -V(xc)+E(xc)   XCENC  =        24.69745666
  PAW double counting   =       498.88758257     -499.68122394
  entropy T*S    EENTRO =         0.03907948
  eigenvalues    EBANDS =       -92.01789498
  atomic energy  EATOM  =       197.04175453
  Solvation  Ediel_sol  =         0.00000000
  ---------------------------------------------------
  free energy    TOTEN  =       -23.96690018 eV

  energy without entropy =      -24.00597967  energy(sigma->0) =      -23.97992668


--------------------------------------------------------------------------------------------------------




--------------------------------------- Iteration      1(  11)  ---------------------------------------


    POTLOK:  cpu time    1.5879: real time    1.5917
    SETDIJ:  cpu time    0.0066: real time    0.0066
    EDDIAG:  cpu time    0.3112: real time    0.3120
  RMM-DIIS:  cpu time    1.1032: real time    1.1058
    ORTHCH:  cpu time    0.0110: real time    0.0110
       DOS:  cpu time    0.0002: real time    0.0002
    CHARGE:  cpu time    0.1364: real time    0.1367
    MIXING:  cpu time    0.0426: real time    0.0427
    --------------------------------------------
      LOOP:  cpu time    3.1991: real time    3.2067

 eigenvalue-minimisations  :    64
 total energy-change (2. order) : 0.7870093E-03  (-0.7223726E-03)
 number of electron       8.0000000 magnetization 
 augmentation part        0.1859156 magnetization 

 Broyden mixing:
  rms(total) = 0.17271E-01    rms(broyden)= 0.17253E-01
  rms(prec ) = 0.30590E-01
  weight for this iteration     100.00

 eigenvalues of (default mixing * dielectric matrix)
  average eigenvalue GAMMA=   1.3750
  2.4251  2.4251  1.3202  0.7249  0.7249  0.6301

 Free energy of the ion-electron system (eV)
  ---------------------------------------------------
  alpha Z        PSCENC =         0.24227563
  Ewald energy   TEWEN  =       129.49399063
  -Hartree energ DENC   =      -283.86928814
  -exchange      EXHF   =         0.00000000
  -V(xc)+E(xc)   XCENC  =        24.74290828
  PAW double counting   =       493.72503005     -494.52045046
  entropy T*S    EENTRO =         0.03875960
  eigenvalues    EBANDS =       -90.86109330
  atomic energy  EATOM  =       197.04175453
  Solvation  Ediel_sol  =         0.00000000
  ---------------------------------------------------
  free energy    TOTEN  =       -23.96611317 eV

  energy without entropy =      -24.00487277  energy(sigma->0) =      -23.97903304


--------------------------------------------------------------------------------------------------------




--------------------------------------- Iteration      1(  12)  ---------------------------------------


    POTLOK:  cpu time    1.5225: real time    1.5261
    SETDIJ:  cpu time    0.0064: real time    0.0064
    EDDIAG:  cpu time    0.3216: real time    0.3224
  RMM-DIIS:  cpu time    1.1125: real time    1.1151
    ORTHCH:  cpu time    0.0111: real time    0.0112
       DOS:  cpu time    0.0002: real time    0.0002
    CHARGE:  cpu time    0.1365: real time    0.1369
    MIXING:  cpu time    0.0423: real time    0.0424
    --------------------------------------------
      LOOP:  cpu time    3.1532: real time    3.1606

 eigenvalue-minimisations  :    64
 total energy-change (2. order) : 0.4667075E-02  (-0.2353392E-03)
 number of electron       8.0000000 magnetization 
 augmentation part        0.1857658 magnetization 

 Broyden mixing:
  rms(total) = 0.12519E-01    rms(broyden)= 0.12516E-01
  rms(prec ) = 0.20059E-01
  weight for this iteration     100.00

 eigenvalues of (default mixing * dielectric matrix)
  average eigenvalue GAMMA=   1.4195
  3.0770  2.4010  1.1612  1.1612  0.7714  0.7714  0.5930

 Free energy of the ion-electron system (eV)
  ---------------------------------------------------
  alpha Z        PSCENC =         0.24227563
  Ewald energy   TEWEN  =       129.49399063
  -Hartree energ DENC   =      -284.73764424
  -exchange      EXHF   =         0.00000000
  -V(xc)+E(xc)   XCENC  =        24.77977660
  PAW double counting   =       491.07466680     -491.86799561
  entropy T*S    EENTRO =         0.03881053
  eigenvalues    EBANDS =       -90.02708099
  atomic energy  EATOM  =       197.04175453
  Solvation  Ediel_sol  =         0.00000000
  ---------------------------------------------------
  free energy    TOTEN  =       -23.96144610 eV

  energy without entropy =      -24.00025663  energy(sigma->0) =      -23.97438294


--------------------------------------------------------------------------------------------------------




--------------------------------------- Iteration      1(  13)  ---------------------------------------


    POTLOK:  cpu time    1.4871: real time    1.4906
    SETDIJ:  cpu time    0.0064: real time    0.0064
    EDDIAG:  cpu time    0.3234: real time    0.3242
  RMM-DIIS:  cpu time    1.1140: real time    1.1167
    ORTHCH:  cpu time    0.0111: real time    0.0111
       DOS:  cpu time    0.0002: real time    0.0002
    CHARGE:  cpu time    0.1364: real time    0.1367
    MIXING:  cpu time    0.0437: real time    0.0438
    --------------------------------------------
      LOOP:  cpu time    3.1224: real time    3.1297

 eigenvalue-minimisations  :    64
 total energy-change (2. order) :-0.1622914E-02  (-0.1208617E-03)
 number of electron       8.0000000 magnetization 
 augmentation part        0.1858576 magnetization 

 Broyden mixing:
  rms(total) = 0.44408E-02    rms(broyden)= 0.44294E-02
  rms(prec ) = 0.10289E-01
  weight for this iteration     100.00

 eigenvalues of (default mixing * dielectric matrix)
  average eigenvalue GAMMA=   1.6028
  3.7796  2.6017  2.0844  1.3030  0.8550  0.8042  0.8042  0.5906

 Free energy of the ion-electron system (eV)
  ---------------------------------------------------
  alpha Z        PSCENC =         0.24227563
  Ewald energy   TEWEN  =       129.49399063
  -Hartree energ DENC   =      -284.91213240
  -exchange      EXHF   =         0.00000000
  -V(xc)+E(xc)   XCENC  =        24.78746579
  PAW double counting   =       491.96395406     -492.75480235
  entropy T*S    EENTRO =         0.03901217
  eigenvalues    EBANDS =       -89.86458708
  atomic energy  EATOM  =       197.04175453
  Solvation  Ediel_sol  =         0.00000000
  ---------------------------------------------------
  free energy    TOTEN  =       -23.96306901 eV

  energy without entropy =      -24.00208118  energy(sigma->0) =      -23.97607307


--------------------------------------------------------------------------------------------------------




--------------------------------------- Iteration      1(  14)  ---------------------------------------


    POTLOK:  cpu time    1.4020: real time    1.4054
    SETDIJ:  cpu time    0.0062: real time    0.0062
    EDDIAG:  cpu time    0.3324: real time    0.3332
  RMM-DIIS:  cpu time    1.2083: real time    1.2111
    ORTHCH:  cpu time    0.0109: real time    0.0109
       DOS:  cpu time    0.0002: real time    0.0002
    CHARGE:  cpu time    0.1394: real time    0.1397
    MIXING:  cpu time    0.0447: real time    0.0448
    --------------------------------------------
      LOOP:  cpu time    3.1440: real time    3.1515

 eigenvalue-minimisations  :    64
 total energy-change (2. order) :-0.6681539E-02  (-0.1143068E-03)
 number of electron       8.0000000 magnetization 
 augmentation part        0.1858367 magnetization 

 Broyden mixing:
  rms(total) = 0.58725E-02    rms(broyden)= 0.58638E-02
  rms(prec ) = 0.87463E-02
  weight for this iteration     100.00

 eigenvalues of (default mixing * dielectric matrix)
  average eigenvalue GAMMA=   1.7102
  4.7918  2.8287  2.1406  1.3029  1.3029  0.7569  0.7569  0.5873  0.9236

 Free energy of the ion-electron system (eV)
  ---------------------------------------------------
  alpha Z        PSCENC =         0.24227563
  Ewald energy   TEWEN  =       129.49399063
  -Hartree energ DENC   =      -285.15985738
  -exchange      EXHF   =         0.00000000
  -V(xc)+E(xc)   XCENC  =        24.78559206
  PAW double counting   =       489.77116069     -490.56249582
  entropy T*S    EENTRO =         0.03901073
  eigenvalues    EBANDS =       -89.62118163
  atomic energy  EATOM  =       197.04175453
  Solvation  Ediel_sol  =         0.00000000
  ---------------------------------------------------
  free energy    TOTEN  =       -23.96975055 eV

  energy without entropy =      -24.00876128  energy(sigma->0) =      -23.98275413


--------------------------------------------------------------------------------------------------------




--------------------------------------- Iteration      1(  15)  ---------------------------------------


    POTLOK:  cpu time    1.3729: real time    1.3761
    SETDIJ:  cpu time    0.0064: real time    0.0064
    EDDIAG:  cpu time    0.3117: real time    0.3124
  RMM-DIIS:  cpu time    1.1828: real time    1.1855
    ORTHCH:  cpu time    0.0110: real time    0.0111
       DOS:  cpu time    0.0002: real time    0.0002
    CHARGE:  cpu time    0.1411: real time    0.1414
    MIXING:  cpu time    0.0459: real time    0.0460
    --------------------------------------------
      LOOP:  cpu time    3.0720: real time    3.0792

 eigenvalue-minimisations  :    64
 total energy-change (2. order) :-0.2128481E-02  (-0.5223578E-04)
 number of electron       8.0000000 magnetization 
 augmentation part        0.1857425 magnetization 

 Broyden mixing:
  rms(total) = 0.50083E-02    rms(broyden)= 0.49956E-02
  rms(prec ) = 0.68880E-02
  weight for this iteration     100.00

 eigenvalues of (default mixing * dielectric matrix)
  average eigenvalue GAMMA=   1.7787
  5.0845  3.0781  2.4651  1.5272  1.2536  1.2536  1.0532  0.7429  0.7429  0.5858

 Free energy of the ion-electron system (eV)
  ---------------------------------------------------
  alpha Z        PSCENC =         0.24227563
  Ewald energy   TEWEN  =       129.49399063
  -Hartree energ DENC   =      -285.22659296
  -exchange      EXHF   =         0.00000000
  -V(xc)+E(xc)   XCENC  =        24.78396493
  PAW double counting   =       489.57076964     -490.36286235
  entropy T*S    EENTRO =         0.03888519
  eigenvalues    EBANDS =       -89.55406429
  atomic energy  EATOM  =       197.04175453
  Solvation  Ediel_sol  =         0.00000000
  ---------------------------------------------------
  free energy    TOTEN  =       -23.97187903 eV

  energy without entropy =      -24.01076422  energy(sigma->0) =      -23.98484076


--------------------------------------------------------------------------------------------------------




--------------------------------------- Iteration      1(  16)  ---------------------------------------


    POTLOK:  cpu time    1.3478: real time    1.3510
    SETDIJ:  cpu time    0.0062: real time    0.0062
    EDDIAG:  cpu time    0.3229: real time    0.3237
  RMM-DIIS:  cpu time    1.1340: real time    1.1367
    ORTHCH:  cpu time    0.0109: real time    0.0109
       DOS:  cpu time    0.0002: real time    0.0002
    CHARGE:  cpu time    0.1329: real time    0.1332
    MIXING:  cpu time    0.0447: real time    0.0448
    --------------------------------------------
      LOOP:  cpu time    2.9996: real time    3.0067

 eigenvalue-minimisations  :    64
 total energy-change (2. order) :-0.1627476E-02  (-0.5825988E-04)
 number of electron       8.0000000 magnetization 
 augmentation part        0.1857964 magnetization 

 Broyden mixing:
  rms(total) = 0.64662E-02    rms(broyden)= 0.64568E-02
  rms(prec ) = 0.84072E-02
  weight for this iteration     100.00

 eigenvalues of (default mixing * dielectric matrix)
  average eigenvalue GAMMA=   1.9227
  6.3242  3.8991  2.4666  2.1952  1.2265  1.2265  0.5831  0.8590  0.8590  0.7554
  0.7554

 Free energy of the ion-electron system (eV)
  ---------------------------------------------------
  alpha Z        PSCENC =         0.24227563
  Ewald energy   TEWEN  =       129.49399063
  -Hartree energ DENC   =      -285.18731456
  -exchange      EXHF   =         0.00000000
  -V(xc)+E(xc)   XCENC  =        24.78207428
  PAW double counting   =       491.56020677     -492.35099372
  entropy T*S    EENTRO =         0.03908582
  eigenvalues    EBANDS =       -89.59458589
  atomic energy  EATOM  =       197.04175453
  Solvation  Ediel_sol  =         0.00000000
  ---------------------------------------------------
  free energy    TOTEN  =       -23.97350651 eV

  energy without entropy =      -24.01259232  energy(sigma->0) =      -23.98653511


--------------------------------------------------------------------------------------------------------




--------------------------------------- Iteration      1(  17)  ---------------------------------------


    POTLOK:  cpu time    1.4334: real time    1.4368
    SETDIJ:  cpu time    0.0062: real time    0.0062
    EDDIAG:  cpu time    0.3308: real time    0.3316
  RMM-DIIS:  cpu time    1.1243: real time    1.1270
    ORTHCH:  cpu time    0.0111: real time    0.0112
       DOS:  cpu time    0.0002: real time    0.0002
    CHARGE:  cpu time    0.1374: real time    0.1378
    MIXING:  cpu time    0.0464: real time    0.0465
    --------------------------------------------
      LOOP:  cpu time    3.0900: real time    3.0972

 eigenvalue-minimisations  :    64
 total energy-change (2. order) :-0.4191440E-03  (-0.6971079E-05)
 number of electron       8.0000000 magnetization 
 augmentation part        0.1857902 magnetization 

 Broyden mixing:
  rms(total) = 0.21369E-02    rms(broyden)= 0.21341E-02
  rms(prec ) = 0.28149E-02
  weight for this iteration     100.00

 eigenvalues of (default mixing * dielectric matrix)
  average eigenvalue GAMMA=   2.0825
  6.9285  4.0672  3.2744  2.4288  1.9584  1.1321  1.1321  1.0020  1.0020  0.5840
  0.7403  0.7403

 Free energy of the ion-electron system (eV)
  ---------------------------------------------------
  alpha Z        PSCENC =         0.24227563
  Ewald energy   TEWEN  =       129.49399063
  -Hartree energ DENC   =      -285.17187027
  -exchange      EXHF   =         0.00000000
  -V(xc)+E(xc)   XCENC  =        24.77857520
  PAW double counting   =       490.92587438     -491.71708908
  entropy T*S    EENTRO =         0.03901326
  eigenvalues    EBANDS =       -89.60644995
  atomic energy  EATOM  =       197.04175453
  Solvation  Ediel_sol  =         0.00000000
  ---------------------------------------------------
  free energy    TOTEN  =       -23.97392565 eV

  energy without entropy =      -24.01293892  energy(sigma->0) =      -23.98693007


--------------------------------------------------------------------------------------------------------




--------------------------------------- Iteration      1(  18)  ---------------------------------------


    POTLOK:  cpu time    1.4405: real time    1.4439
    SETDIJ:  cpu time    0.0065: real time    0.0065
    EDDIAG:  cpu time    0.3305: real time    0.3313
  RMM-DIIS:  cpu time    1.1112: real time    1.1138
    ORTHCH:  cpu time    0.0113: real time    0.0113
       DOS:  cpu time    0.0002: real time    0.0002
    CHARGE:  cpu time    0.1348: real time    0.1351
    MIXING:  cpu time    0.0465: real time    0.0466
    --------------------------------------------
      LOOP:  cpu time    3.0815: real time    3.0887

 eigenvalue-minimisations  :    64
 total energy-change (2. order) :-0.2865343E-03  (-0.2057390E-04)
 number of electron       8.0000000 magnetization 
 augmentation part        0.1857019 magnetization 

 Broyden mixing:
  rms(total) = 0.30122E-02    rms(broyden)= 0.30066E-02
  rms(prec ) = 0.39413E-02
  weight for this iteration     100.00

 eigenvalues of (default mixing * dielectric matrix)
  average eigenvalue GAMMA=   1.9879
  7.2725  4.3828  2.9392  2.4382  1.9488  1.1680  1.1024  0.9864  0.9864  0.7386
  0.7386  0.5822  0.5586

 Free energy of the ion-electron system (eV)
  ---------------------------------------------------
  alpha Z        PSCENC =         0.24227563
  Ewald energy   TEWEN  =       129.49399063
  -Hartree energ DENC   =      -285.23749721
  -exchange      EXHF   =         0.00000000
  -V(xc)+E(xc)   XCENC  =        24.78065849
  PAW double counting   =       490.32579356     -491.11775871
  entropy T*S    EENTRO =         0.03890739
  eigenvalues    EBANDS =       -89.54233651
  atomic energy  EATOM  =       197.04175453
  Solvation  Ediel_sol  =         0.00000000
  ---------------------------------------------------
  free energy    TOTEN  =       -23.97421219 eV

  energy without entropy =      -24.01311958  energy(sigma->0) =      -23.98718132


--------------------------------------------------------------------------------------------------------




--------------------------------------- Iteration      1(  19)  ---------------------------------------


    POTLOK:  cpu time    1.3674: real time    1.3706
    SETDIJ:  cpu time    0.0062: real time    0.0062
    EDDIAG:  cpu time    0.3320: real time    0.3328
  RMM-DIIS:  cpu time    1.2183: real time    1.2212
    ORTHCH:  cpu time    0.0109: real time    0.0109
       DOS:  cpu time    0.0002: real time    0.0002
    CHARGE:  cpu time    0.1334: real time    0.1338
    MIXING:  cpu time    0.0504: real time    0.0505
    --------------------------------------------
      LOOP:  cpu time    3.1189: real time    3.1262

 eigenvalue-minimisations  :    64
 total energy-change (2. order) :-0.2146739E-05  (-0.8609363E-06)
 number of electron       8.0000000 magnetization 
 augmentation part        0.1857069 magnetization 

 Broyden mixing:
  rms(total) = 0.17063E-02    rms(broyden)= 0.17062E-02
  rms(prec ) = 0.22310E-02
  weight for this iteration     100.00

 eigenvalues of (default mixing * dielectric matrix)
  average eigenvalue GAMMA=   2.1044
  7.9076  4.8966  3.3653  2.4430  2.2687  1.0633  1.0633  1.2028  1.2028  0.9933
  0.9933  0.7388  0.7388  0.5842

 Free energy of the ion-electron system (eV)
  ---------------------------------------------------
  alpha Z        PSCENC =         0.24227563
  Ewald energy   TEWEN  =       129.49399063
  -Hartree energ DENC   =      -285.21151871
  -exchange      EXHF   =         0.00000000
  -V(xc)+E(xc)   XCENC  =        24.77956011
  PAW double counting   =       490.40082377     -491.19251951
  entropy T*S    EENTRO =         0.03893294
  eigenvalues    EBANDS =       -89.56751374
  atomic energy  EATOM  =       197.04175453
  Solvation  Ediel_sol  =         0.00000000
  ---------------------------------------------------
  free energy    TOTEN  =       -23.97421433 eV

  energy without entropy =      -24.01314728  energy(sigma->0) =      -23.98719198


--------------------------------------------------------------------------------------------------------




--------------------------------------- Iteration      1(  20)  ---------------------------------------


    POTLOK:  cpu time    1.4087: real time    1.4120
    SETDIJ:  cpu time    0.0064: real time    0.0064
    EDDIAG:  cpu time    0.3081: real time    0.3088
  RMM-DIIS:  cpu time    1.2027: real time    1.2056
    ORTHCH:  cpu time    0.0111: real time    0.0111
       DOS:  cpu time    0.0002: real time    0.0002
    CHARGE:  cpu time    0.1354: real time    0.1357
    MIXING:  cpu time    0.0500: real time    0.0502
    --------------------------------------------
      LOOP:  cpu time    3.1226: real time    3.1300

 eigenvalue-minimisations  :    64
 total energy-change (2. order) :-0.3714463E-04  (-0.5263177E-05)
 number of electron       8.0000000 magnetization 
 augmentation part        0.1857593 magnetization 

 Broyden mixing:
  rms(total) = 0.53123E-03    rms(broyden)= 0.52897E-03
  rms(prec ) = 0.70699E-03
  weight for this iteration     100.00

 eigenvalues of (default mixing * dielectric matrix)
  average eigenvalue GAMMA=   2.1323
  8.1867  5.3061  3.4948  2.4548  2.4548  1.6258  1.5546  0.5842  0.7376  0.7376
  0.9813  0.9647  0.9647  0.9685  0.9685

 Free energy of the ion-electron system (eV)
  ---------------------------------------------------
  alpha Z        PSCENC =         0.24227563
  Ewald energy   TEWEN  =       129.49399063
  -Hartree energ DENC   =      -285.18437882
  -exchange      EXHF   =         0.00000000
  -V(xc)+E(xc)   XCENC  =        24.77863676
  PAW double counting   =       490.51061704     -491.30191469
  entropy T*S    EENTRO =         0.03895253
  eigenvalues    EBANDS =       -89.59418509
  atomic energy  EATOM  =       197.04175453
  Solvation  Ediel_sol  =         0.00000000
  ---------------------------------------------------
  free energy    TOTEN  =       -23.97425148 eV

  energy without entropy =      -24.01320401  energy(sigma->0) =      -23.98723566


--------------------------------------------------------------------------------------------------------




--------------------------------------- Iteration      1(  21)  ---------------------------------------


    POTLOK:  cpu time    1.4345: real time    1.4380
    SETDIJ:  cpu time    0.0062: real time    0.0062
    EDDIAG:  cpu time    0.3140: real time    0.3147
  RMM-DIIS:  cpu time    0.8840: real time    0.8861
    ORTHCH:  cpu time    0.0109: real time    0.0109
       DOS:  cpu time    0.0002: real time    0.0002
    CHARGE:  cpu time    0.1360: real time    0.1363
    MIXING:  cpu time    0.0504: real time    0.0505
    --------------------------------------------
      LOOP:  cpu time    2.8362: real time    2.8430

 eigenvalue-minimisations  :    48
 total energy-change (2. order) :-0.7222233E-05  (-0.1378604E-06)
 number of electron       8.0000000 magnetization 
 augmentation part        0.1857585 magnetization 

 Broyden mixing:
  rms(total) = 0.27965E-03    rms(broyden)= 0.27895E-03
  rms(prec ) = 0.36665E-03
  weight for this iteration     100.00

 eigenvalues of (default mixing * dielectric matrix)
  average eigenvalue GAMMA=   2.1121
  8.4214  5.2986  3.5751  2.6614  2.3238  1.9833  1.0862  1.0862  1.2204  1.2204
  0.5842  0.7371  0.7371  0.9588  0.9588  0.9403

 Free energy of the ion-electron system (eV)
  ---------------------------------------------------
  alpha Z        PSCENC =         0.24227563
  Ewald energy   TEWEN  =       129.49399063
  -Hartree energ DENC   =      -285.19282990
  -exchange      EXHF   =         0.00000000
  -V(xc)+E(xc)   XCENC  =        24.77903068
  PAW double counting   =       490.55422690     -491.34561982
  entropy T*S    EENTRO =         0.03896418
  eigenvalues    EBANDS =       -89.58605154
  atomic energy  EATOM  =       197.04175453
  Solvation  Ediel_sol  =         0.00000000
  ---------------------------------------------------
  free energy    TOTEN  =       -23.97425870 eV

  energy without entropy =      -24.01322288  energy(sigma->0) =      -23.98724676


--------------------------------------------------------------------------------------------------------




--------------------------------------- Iteration      1(  22)  ---------------------------------------


    POTLOK:  cpu time    1.5387: real time    1.5423
    SETDIJ:  cpu time    0.0062: real time    0.0062
    EDDIAG:  cpu time    0.3087: real time    0.3095
  RMM-DIIS:  cpu time    1.0556: real time    1.0581
    ORTHCH:  cpu time    0.0114: real time    0.0114
       DOS:  cpu time    0.0002: real time    0.0002
    CHARGE:  cpu time    0.1356: real time    0.1359
    MIXING:  cpu time    0.0517: real time    0.0518
    --------------------------------------------
      LOOP:  cpu time    3.1081: real time    3.1154

 eigenvalue-minimisations  :    60
 total energy-change (2. order) :-0.3351470E-05  (-0.3145098E-06)
 number of electron       8.0000000 magnetization 
 augmentation part        0.1857440 magnetization 

 Broyden mixing:
  rms(total) = 0.19617E-03    rms(broyden)= 0.19592E-03
  rms(prec ) = 0.26396E-03
  weight for this iteration     100.00

 eigenvalues of (default mixing * dielectric matrix)
  average eigenvalue GAMMA=   2.0334
  8.4745  5.2986  3.5686  2.7276  2.1290  2.1290  1.1766  1.1766  1.1295  1.1295
  1.0142  1.0142  0.5842  0.7349  0.7349  0.7728  0.7728

 Free energy of the ion-electron system (eV)
  ---------------------------------------------------
  alpha Z        PSCENC =         0.24227563
  Ewald energy   TEWEN  =       129.49399063
  -Hartree energ DENC   =      -285.19915506
  -exchange      EXHF   =         0.00000000
  -V(xc)+E(xc)   XCENC  =        24.77919937
  PAW double counting   =       490.52342876     -491.31491810
  entropy T*S    EENTRO =         0.03896679
  eigenvalues    EBANDS =       -89.57980461
  atomic energy  EATOM  =       197.04175453
  Solvation  Ediel_sol  =         0.00000000
  ---------------------------------------------------
  free energy    TOTEN  =       -23.97426205 eV

  energy without entropy =      -24.01322885  energy(sigma->0) =      -23.98725098


--------------------------------------------------------------------------------------------------------




--------------------------------------- Iteration      1(  23)  ---------------------------------------


    POTLOK:  cpu time    1.5846: real time    1.5884
    SETDIJ:  cpu time    0.0064: real time    0.0064
    EDDIAG:  cpu time    0.2942: real time    0.2949
  RMM-DIIS:  cpu time    0.8760: real time    0.8781
    ORTHCH:  cpu time    0.0109: real time    0.0109
       DOS:  cpu time    0.0002: real time    0.0002
    --------------------------------------------
      LOOP:  cpu time    2.7723: real time    2.7789

 eigenvalue-minimisations  :    48
 total energy-change (2. order) :-0.5406332E-06  (-0.1731020E-07)
 number of electron       8.0000000 magnetization 
 augmentation part        0.1857440 magnetization 

 Free energy of the ion-electron system (eV)
  ---------------------------------------------------
  alpha Z        PSCENC =         0.24227563
  Ewald energy   TEWEN  =       129.49399063
  -Hartree energ DENC   =      -285.19553099
  -exchange      EXHF   =         0.00000000
  -V(xc)+E(xc)   XCENC  =        24.77900936
  PAW double counting   =       490.50648946     -491.29794350
  entropy T*S    EENTRO =         0.03896419
  eigenvalues    EBANDS =       -89.58327191
  atomic energy  EATOM  =       197.04175453
  Solvation  Ediel_sol  =         0.00000000
  ---------------------------------------------------
  free energy    TOTEN  =       -23.97426259 eV

  energy without entropy =      -24.01322679  energy(sigma->0) =      -23.98725066


--------------------------------------------------------------------------------------------------------




 average (electrostatic) potential at core
  the test charge radii are     0.5201  0.6991
  (the norm of the test charge is              1.0000)
       1 -41.5139       2 -41.4873       3 -41.4977       4 -41.5484       5 -57.9409



 E-fermi :  -9.1103     XC(G=0):  -0.6973     alpha+bet : -0.2107


 k-point     1 :       0.2500    0.2500    0.2500
  band No.  band energies     occupation 
      1     -16.9006      2.00000
      2      -9.3421      2.06946
      3      -9.3021      2.04075
      4      -9.2422      1.89012
      5      -0.3067      0.00000
      6       0.5599      0.00000
      7       0.6679      0.00000
      8       0.7025      0.00000

 k-point     2 :      -0.2500    0.2500    0.2500
  band No.  band energies     occupation 
      1     -16.9006      2.00000
      2      -9.3420      2.06944
      3      -9.3021      2.04066
      4      -9.2421      1.88958
      5      -0.3103      0.00000
      6       0.5631      0.00000
      7       0.6792      0.00000
      8       0.7081      0.00000

 k-point     3 :       0.2500   -0.2500    0.2500
  band No.  band energies     occupation 
      1     -16.9006      2.00000
      2      -9.3420      2.06943
      3      -9.3021      2.04064
      4      -9.2421      1.88970
      5      -0.3096      0.00000
      6       0.5647      0.00000
      7       0.6766      0.00000
      8       0.7055      0.00000

 k-point     4 :      -0.2500   -0.2500    0.2500
  band No.  band energies     occupation 
      1     -16.9006      2.00000
      2      -9.3420      2.06945
      3      -9.3022      2.04087
      4      -9.2422      1.88991
      5      -0.3090      0.00000
      6       0.5645      0.00000
      7       0.6724      0.00000
      8       0.7085      0.00000


--------------------------------------------------------------------------------------------------------


 soft charge-density along one line, spin component           1
         0         1         2         3         4         5         6         7         8         9
 total charge-density along one line

 pseudopotential strength for first ion, spin component:           1
 -2.341  -4.035  -0.001  -0.001   0.001
 -4.035  -6.866  -0.003  -0.004   0.002
 -0.001  -0.003  -0.336   0.002  -0.001
 -0.001  -0.004   0.002  -0.335  -0.001
  0.001   0.002  -0.001  -0.001  -0.337
 total augmentation occupancy for first ion, spin component:           1
  3.930  -0.786   0.255   0.357  -0.156
 -0.786   0.170  -0.052  -0.073   0.032
  0.255  -0.052   0.023   0.020  -0.008
  0.357  -0.073   0.020   0.036  -0.012
 -0.156   0.032  -0.008  -0.012   0.013


------------------------ aborting loop because EDIFF is reached ----------------------------------------


    CHARGE:  cpu time    0.1346: real time    0.1349
    FORLOC:  cpu time    0.1076: real time    0.1078
    FORNL :  cpu time    0.4539: real time    0.4550
    STRESS:  cpu time    1.4674: real time    1.4709
    FORCOR:  cpu time    1.6524: real time    1.6563
    FORHAR:  cpu time    0.5085: real time    0.5097
    MIXING:  cpu time    0.0537: real time    0.0538
    OFIELD:  cpu time    0.0000: real time    0.0000

  FORCE on cell =-STRESS in cart. coord.  units (eV):
  Direction    XX          YY          ZZ          XY          YZ          ZX
  --------------------------------------------------------------------------------------
  Alpha Z     0.24228     0.24228     0.24228
  Ewald      41.98448    43.68976    43.81972    -1.03238    -0.95977    -1.10388
  Hartree    94.07723    95.12065    95.99782    -0.61596    -0.43896    -0.78057
  E(xc)     -27.24822   -27.24501   -27.25958    -0.00505    -0.00304    -0.00775
  Local    -194.81904  -197.69709  -198.32969     1.83036     1.57421     2.24308
  n-local   -16.14445   -15.49024   -15.85255     0.26385     0.16580     0.52161
  augment     0.11175     0.11249     0.10533    -0.00243    -0.00068    -0.00498
  Kinetic   101.06871   101.81986   101.27372    -0.56188    -0.80829    -0.70345
  Fock        0.00000     0.00000     0.00000     0.00000     0.00000     0.00000
  -------------------------------------------------------------------------------------
  Total      -0.72727     0.55269    -0.00296    -0.12350    -0.47074     0.16407
  in kB      -1.16533     0.88560    -0.00474    -0.19789    -0.75429     0.26290
  external pressure =       -0.09 kB  Pullay stress =        0.00 kB

  kinetic pressure (ideal gas correction) =      0.03 kB
  total pressure  =     -0.07 kB
  Total+kin.    -1.137       0.931       0.004      -0.217      -0.750       0.272

 VOLUME and BASIS-vectors are now :
 -----------------------------------------------------------------------------
  energy-cutoff  :      400.00
  volume of cell :      999.90
      direct lattice vectors                 reciprocal lattice vectors
    10.087284594  0.000000000  0.000000000     0.099134707  0.001051061  0.000814939
    -0.106411607 10.036608007  0.000000000    -0.000000000  0.099635255  0.000304096
    -0.080868747 -0.030143333  9.876299135     0.000000000 -0.000000000  0.101252502

  length of vectors
    10.087284594 10.037172098  9.876676211     0.099143628  0.099635719  0.101252502


 FORCES acting on ions
    electron-ion (+dipol)            ewald-force                    non-local-force                 convergence-correction
 -----------------------------------------------------------------------------------------------
   -.174E+02 0.292E+02 0.405E+02   0.194E+02 -.323E+02 -.446E+02   -.179E+01 0.312E+01 0.457E+01   0.165E-04 0.343E-04 0.551E-04
   0.523E+02 -.601E+01 0.323E+01   -.575E+02 0.681E+01 -.337E+01   0.576E+01 -.466E+00 0.319E+00   0.120E-03 -.244E-04 -.549E-04
   -.234E+02 -.475E+02 0.116E+01   0.256E+02 0.525E+02 -.151E+01   -.189E+01 -.425E+01 0.134E+00   0.741E-04 -.856E-04 0.499E-04
   -.122E+02 0.251E+02 -.458E+02   0.135E+02 -.282E+02 0.511E+02   -.111E+01 0.233E+01 -.441E+01   0.123E-03 0.736E-04 -.718E-04
   0.941E+00 -.970E+00 0.152E+01   -.106E+01 0.116E+01 -.161E+01   -.449E+00 0.266E+00 -.524E-01   0.121E-02 -.911E-04 -.194E-03
 -----------------------------------------------------------------------------------------------
   0.191E+00 -.166E+00 0.556E+00   0.888E-14 -.711E-14 -.711E-14   0.513E+00 0.100E+01 0.554E+00   0.155E-02 -.932E-04 -.216E-03


 POSITION                                       TOTAL-FORCE (eV/Angst)
 -----------------------------------------------------------------------------------
      5.35735      4.06976      3.56222         0.244383      0.095503      0.423295
      3.89901      4.80612      4.33705         0.499186      0.327299      0.178610
      5.47153      5.66138      4.37062         0.371165      0.776366     -0.217721
      5.23407      4.16657      5.31974         0.161195     -0.819502      0.871474
      4.99073      4.67686      4.39906        -0.570297      0.457079     -0.145187
 -----------------------------------------------------------------------------------
    total drift:                                0.705633      0.836745      1.110472


--------------------------------------------------------------------------------------------------------



  FREE ENERGIE OF THE ION-ELECTRON SYSTEM (eV)
  ---------------------------------------------------
  free  energy   TOTEN  =       -23.97426259 eV

  energy  without entropy=      -24.01322679  energy(sigma->0) =      -23.98725066



--------------------------------------------------------------------------------------------------------


    POTLOK:  cpu time    1.5325: real time    1.5362


--------------------------------------------------------------------------------------------------------


           RANDOM_SEED =         578496002                0                0
           RANDOM_SEED =         578496002               30                0
   IONSTEP:  cpu time    0.0016: real time    0.0019

  ENERGY OF THE ELECTRON-ION-THERMOSTAT SYSTEM (eV)
  ---------------------------------------------------
% ion-electron   TOTEN  =       -23.974263  see above
  kinetic energy EKIN   =         0.061198
  kin. lattice  EKIN_LAT=         0.000000  (temperature  118.36 K)
  nose potential ES     =         0.000000
  nose kinetic   EPS    =         0.000150
  ---------------------------------------------------
  total energy   ETOTAL =       -23.912914 eV

  maximum distance moved by ions :      0.63E-02


 mean value of Nose-termostat <S>:     1.017 mean value of <T> :   118.361
 mean temperature <T/S>/<1/S>  :   118.361

    WAVPRE:  cpu time    0.4604: real time    0.4669
    FEWALD:  cpu time    0.0003: real time    0.0003
    ORTHCH:  cpu time    0.1801: real time    0.1805
     LOOP+:  cpu time   75.8745: real time   76.0644


--------------------------------------- Iteration      2(   1)  ---------------------------------------


    POTLOK:  cpu time    1.5430: real time    1.5468
    SETDIJ:  cpu time    0.0062: real time    0.0062
     EDDAV:  cpu time    1.5314: real time    1.5350
       DOS:  cpu time    0.0002: real time    0.0002
    CHARGE:  cpu time    0.1308: real time    0.1311
    MIXING:  cpu time    0.0416: real time    0.0417
    --------------------------------------------
      LOOP:  cpu time    3.2532: real time    3.2610

 eigenvalue-minimisations  :    64
 total energy-change (2. order) : 0.4042170E-01  (-0.3943984E+00)
 number of electron       8.0000004 magnetization 
 augmentation part        0.1821684 magnetization 

 Broyden mixing:
  rms(total) = 0.79684E-01    rms(broyden)= 0.79600E-01
  rms(prec ) = 0.94336E-01
  weight for this iteration     100.00

 Free energy of the ion-electron system (eV)
  ---------------------------------------------------
  alpha Z        PSCENC =         0.24227563
  Ewald energy   TEWEN  =       126.43350035
  -Hartree energ DENC   =      -283.31802191
  -exchange      EXHF   =         0.00000000
  -V(xc)+E(xc)   XCENC  =        24.68533077
  PAW double counting   =       490.52007451     -491.31152681
  entropy T*S    EENTRO =         0.01941335
  eigenvalues    EBANDS =       -88.24664078
  atomic energy  EATOM  =       197.04175453
  Solvation  Ediel_sol  =         0.00000000
  ---------------------------------------------------
  free energy    TOTEN  =       -23.93384036 eV

  energy without entropy =      -23.95325371  energy(sigma->0) =      -23.94031147


--------------------------------------------------------------------------------------------------------




--------------------------------------- Iteration      2(   2)  ---------------------------------------


    POTLOK:  cpu time    1.3883: real time    1.3915
    SETDIJ:  cpu time    0.0062: real time    0.0062
    EDDIAG:  cpu time    0.3121: real time    0.3128
  RMM-DIIS:  cpu time    1.1327: real time    1.1354
    ORTHCH:  cpu time    0.0119: real time    0.0119
       DOS:  cpu time    0.0002: real time    0.0002
    CHARGE:  cpu time    0.1454: real time    0.1458
    MIXING:  cpu time    0.0589: real time    0.0590
    --------------------------------------------
      LOOP:  cpu time    3.0557: real time    3.0629

 eigenvalue-minimisations  :    64
 total energy-change (2. order) : 0.4400345E-02  (-0.1409781E-01)
 number of electron       8.0000004 magnetization 
 augmentation part        0.1835287 magnetization 

 Broyden mixing:
  rms(total) = 0.58154E-01    rms(broyden)= 0.58129E-01
  rms(prec ) = 0.68805E-01
  weight for this iteration     100.00

 eigenvalues of (default mixing * dielectric matrix)
  average eigenvalue GAMMA=   2.1026
  8.4955  5.4889  3.6152  3.6152  2.3713  2.3713  1.8067  1.4905  1.4905  0.5842
  1.0967  1.0967  1.0282  1.0282  0.7373  0.7373  0.9853  0.9853  0.9250

 Free energy of the ion-electron system (eV)
  ---------------------------------------------------
  alpha Z        PSCENC =         0.24227563
  Ewald energy   TEWEN  =       126.43350035
  -Hartree energ DENC   =      -281.27024111
  -exchange      EXHF   =         0.00000000
  -V(xc)+E(xc)   XCENC  =        24.53296258
  PAW double counting   =       449.43570312     -450.21897482
  entropy T*S    EENTRO =         0.01758218
  eigenvalues    EBANDS =       -90.14400247
  atomic energy  EATOM  =       197.04175453
  Solvation  Ediel_sol  =         0.00000000
  ---------------------------------------------------
  free energy    TOTEN  =       -23.92944001 eV

  energy without entropy =      -23.94702219  energy(sigma->0) =      -23.93530074


--------------------------------------------------------------------------------------------------------




--------------------------------------- Iteration      2(   3)  ---------------------------------------


    POTLOK:  cpu time    1.6065: real time    1.6103
    SETDIJ:  cpu time    0.0061: real time    0.0061
    EDDIAG:  cpu time    0.2968: real time    0.2975
  RMM-DIIS:  cpu time    1.2908: real time    1.2938
    ORTHCH:  cpu time    0.0113: real time    0.0113
       DOS:  cpu time    0.0002: real time    0.0002
    CHARGE:  cpu time    0.1498: real time    0.1502
    MIXING:  cpu time    0.0571: real time    0.0573
    --------------------------------------------
      LOOP:  cpu time    3.4186: real time    3.4267

 eigenvalue-minimisations  :    64
 total energy-change (2. order) :-0.5198282E-02  (-0.3678281E-02)
 number of electron       8.0000004 magnetization 
 augmentation part        0.1839069 magnetization 

 Broyden mixing:
  rms(total) = 0.53206E-01    rms(broyden)= 0.53196E-01
  rms(prec ) = 0.70261E-01
  weight for this iteration     100.00

 eigenvalues of (default mixing * dielectric matrix)
  average eigenvalue GAMMA=   2.0782
  8.4937  5.5004  3.6186  3.6186  2.4175  2.4175  2.2566  1.4955  1.4955  0.5842
  0.7373  0.7373  1.0955  1.0955  1.0237  1.0237  0.9846  0.9846  1.0569  0.9274

 Free energy of the ion-electron system (eV)
  ---------------------------------------------------
  alpha Z        PSCENC =         0.24227563
[...]
  rms(total) = 0.42959E-02    rms(broyden)= 0.42934E-02
  rms(prec ) = 0.56377E-02
  weight for this iteration     100.00

 eigenvalues of (default mixing * dielectric matrix)
  average eigenvalue GAMMA=   2.3499
  7.2123  5.2512  4.6761  4.2127  3.7602  3.7602  0.3089  0.6795  0.6795  0.5469
  0.5469  3.4683  3.4683  0.8886  0.8886  1.0910  1.0910  1.0822  1.0822  2.2523
  2.2523  1.4985  1.4985  1.3440  3.2026  3.2026  2.5974  2.5974  1.6175  2.3367
  2.3367  2.9261  2.9261  1.8651  2.0604  2.0604  2.0320  2.6600  2.6600  2.5282
  2.5282  2.2737  2.2737  2.3528  2.3528  2.6628  2.5543  2.5543  2.4439

 Free energy of the ion-electron system (eV)
  ---------------------------------------------------
  alpha Z        PSCENC =         0.24227563
  Ewald energy   TEWEN  =       131.46416192
  -Hartree energ DENC   =      -286.89992182
  -exchange      EXHF   =         0.00000000
  -V(xc)+E(xc)   XCENC  =        24.86876717
  PAW double counting   =       494.17911019     -494.97750278
  entropy T*S    EENTRO =         0.03251360
  eigenvalues    EBANDS =       -89.88325165
  atomic energy  EATOM  =       197.04175453
  Solvation  Ediel_sol  =         0.00000000
  ---------------------------------------------------
  free energy    TOTEN  =       -23.93209322 eV

  energy without entropy =      -23.96460682  energy(sigma->0) =      -23.94293109


--------------------------------------------------------------------------------------------------------




--------------------------------------- Iteration     10(  15)  ---------------------------------------


    POTLOK:  cpu time    1.4025: real time    1.4058
    SETDIJ:  cpu time    0.0067: real time    0.0067
    EDDIAG:  cpu time    0.2951: real time    0.2958
  RMM-DIIS:  cpu time    1.1568: real time    1.1595
    ORTHCH:  cpu time    0.0108: real time    0.0109
       DOS:  cpu time    0.0002: real time    0.0002
    CHARGE:  cpu time    0.1340: real time    0.1343
    MIXING:  cpu time    0.1367: real time    0.1371
    --------------------------------------------
      LOOP:  cpu time    3.1427: real time    3.1502

 eigenvalue-minimisations  :    64
 total energy-change (2. order) : 0.1646190E-04  (-0.3247408E-05)
 number of electron       8.0000004 magnetization 
 augmentation part        0.1881282 magnetization 

 Broyden mixing:
  rms(total) = 0.58181E-03    rms(broyden)= 0.57011E-03
  rms(prec ) = 0.73837E-03
  weight for this iteration     100.00

 eigenvalues of (default mixing * dielectric matrix)
  average eigenvalue GAMMA=   2.3869
  7.1141  4.6731  4.6731  4.1324  0.2869  0.5193  0.6646  0.6646  3.8017  0.8969
  0.8969  3.2519  3.2519  2.7198  2.7198  1.4884  1.4884  1.1598  1.1780  1.8719
  1.8719  3.3067  1.4924  1.4924  3.1221  2.9478  2.9478  1.8919  1.8919  2.2829
  2.2829  2.3688  2.3688  2.0479  2.2058  2.2058  2.7851  2.6034  2.6034  2.7014
  2.4444  2.4444  2.6201  2.5131  2.5131

 Free energy of the ion-electron system (eV)
  ---------------------------------------------------
  alpha Z        PSCENC =         0.24227563
  Ewald energy   TEWEN  =       131.46416192
  -Hartree energ DENC   =      -286.87168326
  -exchange      EXHF   =         0.00000000
  -V(xc)+E(xc)   XCENC  =        24.86762476
  PAW double counting   =       494.38016287     -495.17818777
  entropy T*S    EENTRO =         0.03241800
  eigenvalues    EBANDS =       -89.91060344
  atomic energy  EATOM  =       197.04175453
  Solvation  Ediel_sol  =         0.00000000
  ---------------------------------------------------
  free energy    TOTEN  =       -23.93207676 eV

  energy without entropy =      -23.96449475  energy(sigma->0) =      -23.94288276


--------------------------------------------------------------------------------------------------------




--------------------------------------- Iteration     10(  16)  ---------------------------------------


    POTLOK:  cpu time    1.4010: real time    1.4043
    SETDIJ:  cpu time    0.0062: real time    0.0063
    EDDIAG:  cpu time    0.2908: real time    0.2915
  RMM-DIIS:  cpu time    1.3291: real time    1.3433
    ORTHCH:  cpu time    0.0119: real time    0.0120
       DOS:  cpu time    0.0003: real time    0.0003
    CHARGE:  cpu time    0.1369: real time    0.1372
    MIXING:  cpu time    0.1359: real time    0.1362
    --------------------------------------------
      LOOP:  cpu time    3.3120: real time    3.3310

 eigenvalue-minimisations  :    64
 total energy-change (2. order) :-0.9701326E-05  (-0.9066302E-06)
 number of electron       8.0000004 magnetization 
 augmentation part        0.1881430 magnetization 

 Broyden mixing:
  rms(total) = 0.73075E-03    rms(broyden)= 0.72882E-03
  rms(prec ) = 0.95811E-03
  weight for this iteration     100.00

 eigenvalues of (default mixing * dielectric matrix)
  average eigenvalue GAMMA=   2.3976
  7.2089  4.7772  4.7772  0.3002  4.0589  3.5802  3.5802  0.4969  0.7086  0.7086
  3.7785  0.7395  0.8625  1.4306  1.4306  1.1159  1.1159  2.7261  2.7261  1.9243
  1.9243  1.4055  1.5724  1.5724  3.2640  3.1133  2.9602  2.9602  2.1093  2.1093
  2.2624  2.2624  2.0711  2.0711  2.8384  2.6103  2.6103  2.7673  2.7132  2.4086
  2.4086  2.6170  2.5465  2.5044  2.2799  2.2799

 Free energy of the ion-electron system (eV)
  ---------------------------------------------------
  alpha Z        PSCENC =         0.24227563
  Ewald energy   TEWEN  =       131.46416192
  -Hartree energ DENC   =      -286.86339808
  -exchange      EXHF   =         0.00000000
  -V(xc)+E(xc)   XCENC  =        24.86729689
  PAW double counting   =       494.45989433     -495.25781590
  entropy T*S    EENTRO =         0.03248770
  eigenvalues    EBANDS =       -89.91874349
  atomic energy  EATOM  =       197.04175453
  Solvation  Ediel_sol  =         0.00000000
  ---------------------------------------------------
  free energy    TOTEN  =       -23.93208646 eV

  energy without entropy =      -23.96457416  energy(sigma->0) =      -23.94291569


--------------------------------------------------------------------------------------------------------




--------------------------------------- Iteration     10(  17)  ---------------------------------------


    POTLOK:  cpu time    1.4442: real time    1.4476
    SETDIJ:  cpu time    0.0061: real time    0.0061
    EDDIAG:  cpu time    0.2974: real time    0.2981
  RMM-DIIS:  cpu time    0.9216: real time    0.9238
    ORTHCH:  cpu time    0.0110: real time    0.0110
       DOS:  cpu time    0.0002: real time    0.0002
    CHARGE:  cpu time    0.1400: real time    0.1404
    MIXING:  cpu time    0.1401: real time    0.1404
    --------------------------------------------
      LOOP:  cpu time    2.9606: real time    2.9676

 eigenvalue-minimisations  :    52
 total energy-change (2. order) :-0.2793890E-05  (-0.1771387E-06)
 number of electron       8.0000004 magnetization 
 augmentation part        0.1881456 magnetization 

 Broyden mixing:
  rms(total) = 0.36523E-03    rms(broyden)= 0.36474E-03
  rms(prec ) = 0.47664E-03
  weight for this iteration     100.00

 eigenvalues of (default mixing * dielectric matrix)
  average eigenvalue GAMMA=   2.3789
  7.2929  4.8430  4.8430  4.0755  0.3457  0.3457  3.6471  3.6471  0.5398  3.6956
  0.8883  0.8883  0.7921  1.5314  1.5314  0.9833  1.1240  1.1240  2.7769  2.7769
  1.4087  1.4087  1.9937  1.9937  2.4235  2.4235  3.2288  3.0687  3.0687  1.7542
  1.7542  1.8892  2.9420  2.0622  2.2239  2.2239  2.6223  2.6223  2.3291  2.3291
  2.8275  2.7691  2.6970  2.4156  2.5553  2.5553  2.5278

 Free energy of the ion-electron system (eV)
  ---------------------------------------------------
  alpha Z        PSCENC =         0.24227563
  Ewald energy   TEWEN  =       131.46416192
  -Hartree energ DENC   =      -286.86559434
  -exchange      EXHF   =         0.00000000
  -V(xc)+E(xc)   XCENC  =        24.86739316
  PAW double counting   =       494.43438279     -495.23233732
  entropy T*S    EENTRO =         0.03259546
  eigenvalues    EBANDS =       -89.91672109
  atomic energy  EATOM  =       197.04175453
  Solvation  Ediel_sol  =         0.00000000
  ---------------------------------------------------
  free energy    TOTEN  =       -23.93208925 eV

  energy without entropy =      -23.96468471  energy(sigma->0) =      -23.94295441


--------------------------------------------------------------------------------------------------------




--------------------------------------- Iteration     10(  18)  ---------------------------------------


    POTLOK:  cpu time    1.4739: real time    1.4774
    SETDIJ:  cpu time    0.0064: real time    0.0065
    EDDIAG:  cpu time    0.2946: real time    0.2953
  RMM-DIIS:  cpu time    0.8671: real time    0.8692
    ORTHCH:  cpu time    0.0112: real time    0.0112
       DOS:  cpu time    0.0002: real time    0.0002
    --------------------------------------------
      LOOP:  cpu time    2.6534: real time    2.6597

 eigenvalue-minimisations  :    48
 total energy-change (2. order) :-0.6202429E-06  (-0.5166432E-07)
 number of electron       8.0000004 magnetization 
 augmentation part        0.1881456 magnetization 

 Free energy of the ion-electron system (eV)
  ---------------------------------------------------
  alpha Z        PSCENC =         0.24227563
  Ewald energy   TEWEN  =       131.46416192
  -Hartree energ DENC   =      -286.86630804
  -exchange      EXHF   =         0.00000000
  -V(xc)+E(xc)   XCENC  =        24.86742436
  PAW double counting   =       494.43328629     -495.23125063
  entropy T*S    EENTRO =         0.03263061
  eigenvalues    EBANDS =       -89.91606455
  atomic energy  EATOM  =       197.04175453
  Solvation  Ediel_sol  =         0.00000000
  ---------------------------------------------------
  free energy    TOTEN  =       -23.93208987 eV

  energy without entropy =      -23.96472048  energy(sigma->0) =      -23.94296674


--------------------------------------------------------------------------------------------------------




 average (electrostatic) potential at core
  the test charge radii are     0.5201  0.6991
  (the norm of the test charge is              1.0000)
       1 -41.6225       2 -41.6299       3 -41.6972       4 -41.3525       5 -57.8976



 E-fermi :  -9.1035     XC(G=0):  -0.6909     alpha+bet : -0.2107


 k-point     1 :       0.2500    0.2500    0.2500
  band No.  band energies     occupation 
      1     -16.9719      2.00000
      2      -9.4472      2.03547
      3      -9.2863      2.02759
      4      -9.2486      1.93708
      5      -0.2964      0.00000
      6       0.5688      0.00000
      7       0.6742      0.00000
      8       0.7073      0.00000

 k-point     2 :      -0.2500    0.2500    0.2500
  band No.  band energies     occupation 
      1     -16.9719      2.00000
      2      -9.4471      2.03553
      3      -9.2863      2.02751
      4      -9.2485      1.93673
      5      -0.2996      0.00000
      6       0.5689      0.00000
      7       0.6855      0.00000
      8       0.7110      0.00000

 k-point     3 :       0.2500   -0.2500    0.2500
  band No.  band energies     occupation 
      1     -16.9719      2.00000
      2      -9.4471      2.03552
      3      -9.2863      2.02757
      4      -9.2485      1.93661
      5      -0.2989      0.00000
      6       0.5704      0.00000
      7       0.6805      0.00000
      8       0.7127      0.00000

 k-point     4 :      -0.2500   -0.2500    0.2500
  band No.  band energies     occupation 
      1     -16.9719      2.00000
      2      -9.4472      2.03551
      3      -9.2865      2.02778
      4      -9.2486      1.93711
      5      -0.2990      0.00000
      6       0.5771      0.00000
      7       0.6750      0.00000
      8       0.7114      0.00000


--------------------------------------------------------------------------------------------------------


 soft charge-density along one line, spin component           1
         0         1         2         3         4         5         6         7         8         9
 total charge-density along one line

 pseudopotential strength for first ion, spin component:           1
 -2.343  -4.038  -0.001  -0.001   0.001
 -4.038  -6.872  -0.003  -0.004   0.002
 -0.001  -0.003  -0.338   0.002  -0.001
 -0.001  -0.004   0.002  -0.337  -0.001
  0.001   0.002  -0.001  -0.001  -0.339
 total augmentation occupancy for first ion, spin component:           1
  2.729  -0.357   0.253   0.304  -0.167
 -0.357   0.061  -0.035  -0.041   0.023
  0.253  -0.035   0.030   0.024  -0.013
  0.304  -0.041   0.024   0.040  -0.016
 -0.167   0.023  -0.013  -0.016   0.019


------------------------ aborting loop because EDIFF is reached ----------------------------------------


    CHARGE:  cpu time    0.1333: real time    0.1336
    FORLOC:  cpu time    0.1049: real time    0.1052
    FORNL :  cpu time    0.4495: real time    0.4505
    STRESS:  cpu time    1.7256: real time    1.7297
    FORCOR:  cpu time    1.5898: real time    1.5936
    FORHAR:  cpu time    0.5012: real time    0.5023
    MIXING:  cpu time    0.1292: real time    0.1295
    OFIELD:  cpu time    0.0000: real time    0.0000

  FORCE on cell =-STRESS in cart. coord.  units (eV):
  Direction    XX          YY          ZZ          XY          YZ          ZX
  --------------------------------------------------------------------------------------
  Alpha Z     0.24228     0.24228     0.24228
  Ewald      44.89922    41.17379    45.39113     0.37005    -1.37333     1.71276
  Hartree    94.86310    94.22631    97.78126    -0.16453    -0.56095     0.43346
  E(xc)     -27.34299   -27.36089   -27.33599    -0.00199    -0.00636     0.00958
  Local    -197.93427  -193.97603  -202.18898    -0.08812     2.05662    -1.98367
  n-local   -16.90208   -16.30730   -15.88481    -0.28381     0.39999    -0.12183
  augment     0.10084     0.10592     0.11261    -0.00150    -0.00172    -0.00108
  Kinetic   102.36105   102.20573   101.36996     0.51648    -0.48517    -0.14436
  Fock        0.00000     0.00000     0.00000     0.00000     0.00000     0.00000
  -------------------------------------------------------------------------------------
  Total       0.28714     0.30980    -0.51254     0.34659     0.02908    -0.09515
  in kB       0.46009     0.49641    -0.82126     0.55536     0.04660    -0.15247
  external pressure =        0.05 kB  Pullay stress =        0.00 kB

  kinetic pressure (ideal gas correction) =      0.10 kB
  total pressure  =      0.15 kB
  Total+kin.     0.481       0.522      -0.559       0.540       0.095      -0.158

 VOLUME and BASIS-vectors are now :
 -----------------------------------------------------------------------------
  energy-cutoff  :      400.00
  volume of cell :      999.90
      direct lattice vectors                 reciprocal lattice vectors
    10.087284594  0.000000000  0.000000000     0.099134707  0.001051061  0.000814939
    -0.106411607 10.036608007  0.000000000    -0.000000000  0.099635255  0.000304096
    -0.080868747 -0.030143333  9.876299135     0.000000000 -0.000000000  0.101252502

  length of vectors
    10.087284594 10.037172098  9.876676211     0.099143628  0.099635719  0.101252502


 FORCES acting on ions
    electron-ion (+dipol)            ewald-force                    non-local-force                 convergence-correction
 -----------------------------------------------------------------------------------------------
   -.188E+02 0.313E+02 0.375E+02   0.206E+02 -.343E+02 -.410E+02   -.182E+01 0.297E+01 0.405E+01   0.472E-03 -.281E-03 -.495E-04
   0.540E+02 -.432E+01 0.607E+01   -.610E+02 0.479E+01 -.682E+01   0.642E+01 -.285E+00 0.405E+00   -.267E-03 0.544E-03 -.446E-04
   -.231E+02 -.488E+02 0.633E+01   0.262E+02 0.551E+02 -.727E+01   -.276E+01 -.584E+01 0.859E+00   0.115E-03 0.775E-03 0.334E-04
   -.131E+02 0.192E+02 -.475E+02   0.144E+02 -.212E+02 0.522E+02   -.913E+00 0.188E+01 -.570E+01   0.441E-03 -.246E-03 0.371E-03
   0.319E-01 0.391E+01 -.217E+01   -.168E+00 -.440E+01 0.288E+01   0.764E-02 -.184E+00 -.652E+00   0.438E-02 0.388E-02 0.182E-02
 -----------------------------------------------------------------------------------------------
   -.958E+00 0.127E+01 0.229E+00   0.533E-14 0.355E-14 0.000E+00   0.930E+00 -.147E+01 -.103E+01   0.514E-02 0.467E-02 0.213E-02


 POSITION                                       TOTAL-FORCE (eV/Angst)
 -----------------------------------------------------------------------------------
      5.38672      4.01782      3.60320        -0.024881     -0.012231      0.508155
      3.93173      4.76284      4.27912        -0.576179      0.180434     -0.341065
      5.44267      5.63271      4.27250         0.332558      0.458523     -0.081530
      5.26220      4.27808      5.38927         0.370236     -0.146626     -0.953853
      4.98562      4.67789      4.40285        -0.124101     -0.669020      0.064474
 -----------------------------------------------------------------------------------
    total drift:                               -0.022366     -0.188921     -0.803819


--------------------------------------------------------------------------------------------------------



  FREE ENERGIE OF THE ION-ELECTRON SYSTEM (eV)
  ---------------------------------------------------
  free  energy   TOTEN  =       -23.93208987 eV

  energy  without entropy=      -23.96472048  energy(sigma->0) =      -23.94296674

 d Force = 0.2608572E-01[-0.387E-01, 0.908E-01]  d Energy =-0.3893556E-01 0.650E-01
 d Force = 0.2282477E+01[ 0.230E+01, 0.226E+01]  d Ewald  = 0.2279648E+01 0.283E-02


--------------------------------------------------------------------------------------------------------


    POTLOK:  cpu time    1.6001: real time    1.6039


--------------------------------------------------------------------------------------------------------


           RANDOM_SEED =         578496002               30                0
   IONSTEP:  cpu time    0.0001: real time    0.0001

  ENERGY OF THE ELECTRON-ION-THERMOSTAT SYSTEM (eV)
  ---------------------------------------------------
% ion-electron   TOTEN  =       -23.932090  see above
  kinetic energy EKIN   =         0.075427
  kin. lattice  EKIN_LAT=         0.000000  (temperature  145.88 K)
  nose potential ES     =         0.030805
  nose kinetic   EPS    =         0.046145
  ---------------------------------------------------
  total energy   ETOTAL =       -23.779713 eV

  maximum distance moved by ions :      0.56E-02


 mean value of Nose-termostat <S>:     2.125 mean value of <T> :   145.882
 mean temperature <T/S>/<1/S>  :   145.882

    WAVPRE:  cpu time    0.4433: real time    0.4513
    FEWALD:  cpu time    0.0003: real time    0.0003
    ORTHCH:  cpu time    0.1628: real time    0.1632
 Prediction of Wavefunctions ALPHA= 0.779 BETA=-0.192
    POTLOK:  cpu time    1.4792: real time    1.4827
    EDDIAG:  cpu time    0.2880: real time    0.2887
     LOOP+:  cpu time   64.8204: real time   64.9975
    4ORBIT:  cpu time    0.0000: real time    0.0000

 total amount of memory used by VASP MPI-rank0   299534. kBytes
=======================================================================

   base      :      30000. kBytes
   nonlr-proj:        153. kBytes
   fftplans  :      86708. kBytes
   grid      :     154683. kBytes
   one-center:         15. kBytes
   wavefun   :      27975. kBytes

  
  
 General timing and accounting informations for this job:
 ========================================================
  
                  Total CPU time used (sec):      605.657
                            User time (sec):      591.663
                          System time (sec):       13.994
                         Elapsed time (sec):      607.247
  
                   Maximum memory used (kb):      466492.
                   Average memory used (kb):           0.
  
                          Minor page faults:      2697387
                          Major page faults:            0
                 Voluntary context switches:          421
