<?xml version="1.0" encoding="ISO-8859-1"?>
<modeling>
 <generator>
  <i name="program" type="string">vasp </i>
  <i name="version" type="string">5.4.4.18Apr17-6-g9f103f2a35  </i>
  <i name="subversion" type="string">(build Jul 12 2018 13:43:46) complex            parallel </i>
  <i name="platform" type="string">LinuxGNU </i>
  <i name="date" type="string">2019 06 22 </i>
  <i name="time" type="string">02:17:35 </i>
 </generator>
 <incar>
  <i type="int" name="ISTART">     0</i>
  <i type="string" name="PREC">a</i>
  <i type="string" name="ALGO">fast</i>
  <i type="int" name="MAXMIX">    50</i>
  <i type="int" name="ICHARG">     2</i>
  <i type="int" name="IBRION">     0</i>
  <i name="EDIFF">      0.00000100</i>
  <i type="int" name="NSW">    10</i>
  <i type="int" name="ISIF">     2</i>
  <i type="int" name="ISYM">     0</i>
  <i type="int" name="NBLOCK">     1</i>
  <i type="int" name="KBLOCK">   100</i>
  <i name="ENCUT">    400.00000000</i>
  <i name="POTIM">      2.00000000</i>
  <i name="TEBEG">     50.00000000</i>
  <i name="TEEND">     50.00000000</i>
  <i name="SMASS">      0.00000000</i>
  <i type="logical" name="LREAL"> T  </i>
  <i type="int" name="ISMEAR">     1</i>
  <i name="SIGMA">      0.20000000</i>
  <i name="KSPACING">      0.50000000</i>
  <i type="logical" name="KGAMMA"> F  </i>
  <i name="PSTRESS">      0.00000000</i>
  <i type="logical" name="LWAVE"> F  </i>
  <i type="logical" name="LCHARG"> F  </i>
  <v type="int" name="KPOINT_BSE">    -1     0     0     0</v>
 </incar>
 <structure name="primitive_cell" >
  <crystal>
   <varray name="basis" >
    <v>      10.08728459       0.00000000       0.00000000 </v>
    <v>      -0.10641161      10.03660801       0.00000000 </v>
    <v>      -0.08086875      -0.03014333       9.87629913 </v>
   </varray>
   <i name="volume">    999.89747521 </i>
   <varray name="rec_basis" >
    <v>       0.09913471       0.00105106       0.00081494 </v>
    <v>      -0.00000000       0.09963526       0.00030410 </v>
    <v>       0.00000000      -0.00000000       0.10125250 </v>
   </varray>
  </crystal>
  <varray name="positions" >
   <v>      -0.46171972       0.40657508       0.36068362 </v>
   <v>      -0.49674511       0.46731773       0.44541534 </v>
   <v>      -0.47240744       0.41675542      -0.46136261 </v>
   <v>      -0.44806938      -0.43459760       0.44253606 </v>
   <v>       0.39511269       0.48017744       0.43913737 </v>
  </varray>
 </structure>
 <varray name="primitive_index" >
  <v type="int" >        1 </v>
  <v type="int" >        5 </v>
  <v type="int" >        4 </v>
  <v type="int" >        3 </v>
  <v type="int" >        2 </v>
 </varray>
 <kpoints>
  <generation param="Monkhorst-Pack">
   <v type="int" name="divisions">       2        2        2 </v>
   <v name="usershift">      0.00000000       0.00000000       0.00000000 </v>
   <v name="genvec1">      0.50000000      -0.00000000       0.00000000 </v>
   <v name="genvec2">      0.00000000       0.50000000       0.00000000 </v>
   <v name="genvec3">      0.00000000       0.00000000       0.50000000 </v>
   <v name="shift">      0.50000000       0.50000000       0.50000000 </v>
  </generation>
  <varray name="kpointlist" >
   <v>       0.25000000       0.25000000       0.25000000 </v>
   <v>      -0.25000000       0.25000000       0.25000000 </v>
   <v>       0.25000000      -0.25000000       0.25000000 </v>
   <v>      -0.25000000      -0.25000000       0.25000000 </v>
  </varray>
  <varray name="weights" >
   <v>       0.25000000 </v>
   <v>       0.25000000 </v>
   <v>       0.25000000 </v>
   <v>       0.25000000 </v>
  </varray>
 </kpoints>
 <parameters>
  <separator name="general" >
   <i type="string" name="SYSTEM">unknown system</i>
   <i type="logical" name="LCOMPAT"> F  </i>
  </separator>
  <separator name="electronic" >
   <i type="string" name="PREC">a</i>
   <i name="ENMAX">    400.00000000</i>
   <i name="ENAUG">    644.87300000</i>
   <i name="EDIFF">      0.00000100</i>
   <i type="int" name="IALGO">    68</i>
   <i type="int" name="IWAVPR">    12</i>
   <i type="int" name="NBANDS">     8</i>
   <i name="NELECT">      8.00000000</i>
   <i type="int" name="TURBO">     0</i>
   <i type="int" name="IRESTART">     0</i>
   <i type="int" name="NREBOOT">     0</i>
   <i type="int" name="NMIN">     0</i>
   <i name="EREF">      0.00000000</i>
   <separator name="electronic smearing" >
    <i type="int" name="ISMEAR">     1</i>
    <i name="SIGMA">      0.20000000</i>
    <i name="KSPACING">      0.50000000</i>
    <i type="logical" name="KGAMMA"> F  </i>
   </separator>
   <separator name="electronic projectors" >
    <i type="logical" name="LREAL"> T  </i>
    <v name="ROPT">      0.00000000      0.00000000</v>
    <i type="int" name="LMAXPAW">  -100</i>
    <i type="int" name="LMAXMIX">     2</i>
    <i type="logical" name="NLSPLINE"> F  </i>
   </separator>
   <separator name="electronic startup" >
    <i type="int" name="ISTART">     0</i>
    <i type="int" name="ICHARG">     2</i>
    <i type="int" name="INIWAV">     1</i>
   </separator>
   <separator name="electronic spin" >
    <i type="int" name="ISPIN">     1</i>
    <i type="logical" name="LNONCOLLINEAR"> F  </i>
    <v name="MAGMOM">      1.00000000      1.00000000      1.00000000      1.00000000      1.00000000</v>
    <i name="NUPDOWN">     -1.00000000</i>
    <i type="logical" name="LSORBIT"> F  </i>
    <v name="SAXIS">      0.00000000      0.00000000      1.00000000</v>
    <i type="logical" name="LSPIRAL"> F  </i>
    <v name="QSPIRAL">      0.00000000      0.00000000      0.00000000</v>
    <i type="logical" name="LZEROZ"> F  </i>
   </separator>
   <separator name="electronic exchange-correlation" >
    <i type="logical" name="LASPH"> F  </i>
    <i type="logical" name="LMETAGGA"> F  </i>
   </separator>
   <separator name="electronic convergence" >
    <i type="int" name="NELM">    60</i>
    <i type="int" name="NELMDL">    -5</i>
    <i type="int" name="NELMIN">     2</i>
    <i name="ENINI">    400.00000000</i>
    <separator name="electronic convergence detail" >
     <i type="logical" name="LDIAG"> T  </i>
     <i type="logical" name="LSUBROT"> F  </i>
     <i name="WEIMIN">      0.00100000</i>
     <i name="EBREAK">      0.00000003</i>
     <i name="DEPER">      0.30000000</i>
     <i type="int" name="NRMM">     4</i>
     <i name="TIME">      0.40000000</i>
    </separator>
   </separator>
   <separator name="electronic mixer" >
    <i name="AMIX">      0.40000000</i>
    <i name="BMIX">      1.00000000</i>
    <i name="AMIN">      0.10000000</i>
    <i name="AMIX_MAG">      1.60000000</i>
    <i name="BMIX_MAG">      1.00000000</i>
    <separator name="electronic mixer details" >
     <i type="int" name="IMIX">     4</i>
     <i type="logical" name="MIXFIRST"> F  </i>
     <i type="int" name="MAXMIX">    50</i>
     <i name="WC">    100.00000000</i>
     <i type="int" name="INIMIX">     1</i>
     <i type="int" name="MIXPRE">     1</i>
     <i type="int" name="MREMOVE">     5</i>
    </separator>
   </separator>
   <separator name="electronic dipolcorrection" >
    <i type="logical" name="LDIPOL"> F  </i>
    <i type="logical" name="LMONO"> F  </i>
    <i type="int" name="IDIPOL">     0</i>
    <i name="EPSILON">      1.00000000</i>
    <v name="DIPOL">   -100.00000000   -100.00000000   -100.00000000</v>
    <i name="EFIELD">      0.00000000</i>
   </separator>
  </separator>
  <separator name="grids" >
   <i type="int" name="NGX">    70</i>
   <i type="int" name="NGY">    70</i>
   <i type="int" name="NGZ">    64</i>
   <i type="int" name="NGXF">   140</i>
   <i type="int" name="NGYF">   140</i>
   <i type="int" name="NGZF">   128</i>
   <i type="logical" name="ADDGRID"> F  </i>
  </separator>
  <separator name="ionic" >
   <i type="int" name="NSW">    10</i>
   <i type="int" name="IBRION">     0</i>
   <i type="int" name="MDALGO">     0</i>
   <i type="int" name="ISIF">     2</i>
   <i name="PSTRESS">      0.00000000</i>
   <i name="EDIFFG">      0.00001000</i>
   <i type="int" name="NFREE">     0</i>
   <i name="POTIM">      2.00000000</i>
   <i name="SMASS">      0.00158961</i>
   <i name="SCALEE">      1.00000000</i>
  </separator>
  <separator name="ionic md" >
   <i name="TEBEG">     50.00000000</i>
   <i name="TEEND">     50.00000000</i>
   <i type="int" name="NBLOCK">     1</i>
   <i type="int" name="KBLOCK">     1</i>
   <i type="int" name="NPACO">   256</i>
   <i name="APACO">     16.00000000</i>
  </separator>
  <separator name="symmetry" >
   <i type="int" name="ISYM">     0</i>
   <i name="SYMPREC">      0.00001000</i>
  </separator>
  <separator name="dos" >
   <i type="int" name="LORBIT">     0</i>
   <v name="RWIGS">     -1.00000000     -1.00000000</v>
   <i type="int" name="NEDOS">   301</i>
   <i name="EMIN">     10.00000000</i>
   <i name="EMAX">    -10.00000000</i>
   <i name="EFERMI">      0.00000000</i>
  </separator>
  <separator name="writing" >
   <i type="int" name="NWRITE">     2</i>
   <i type="logical" name="LWAVE"> F  </i>
   <i type="logical" name="LDOWNSAMPLE"> F  </i>
   <i type="logical" name="LCHARG"> F  </i>
   <i type="logical" name="LPARD"> F  </i>
   <i type="logical" name="LVTOT"> F  </i>
   <i type="logical" name="LVHAR"> F  </i>
   <i type="logical" name="LELF"> F  </i>
   <i type="logical" name="LOPTICS"> F  </i>
   <v name="STM">      0.00000000      0.00000000      0.00000000      0.00000000      0.00000000      0.00000000      0.00000000</v>
  </separator>
  <separator name="performance" >
   <i type="int" name="NPAR">     1</i>
   <i type="int" name="NSIM">     4</i>
   <i type="int" name="NBLK">    -1</i>
   <i type="logical" name="LPLANE"> T  </i>
   <i type="logical" name="LSCALAPACK"> T  </i>
   <i type="logical" name="LSCAAWARE"> F  </i>
   <i type="logical" name="LSCALU"> F  </i>
   <i type="logical" name="LASYNC"> F  </i>
   <i type="logical" name="LORBITALREAL"> F  </i>
  </separator>
  <separator name="miscellaneous" >
   <i type="int" name="IDIOT">     3</i>
   <i type="int" name="ISPECIAL">     0</i>
   <i type="logical" name="LMUSIC"> F  </i>
   <v name="POMASS">      1.00000000     12.01100000</v>
   <v name="DARWINR">      0.00000000      0.00000000</v>
   <v name="DARWINV">      1.00000000      1.00000000</v>
   <i type="logical" name="LCORR"> T  </i>
  </separator>
  <i type="logical" name="GGA_COMPAT"> T  </i>
  <i type="logical" name="LBERRY"> F  </i>
  <i type="int" name="ICORELEVEL">     0</i>
  <i type="logical" name="LDAU"> F  </i>
  <i type="int" name="I_CONSTRAINED_M">     0</i>
  <separator name="electronic exchange-correlation" >
   <i type="string" name="GGA">--</i>
   <i type="int" name="VOSKOWN">     0</i>
   <i type="logical" name="LHFCALC"> F  </i>
   <i type="string" name="PRECFOCK"></i>
   <i type="logical" name="LSYMGRAD"> F  </i>
   <i type="logical" name="LHFONE"> F  </i>
   <i type="logical" name="LRHFCALC"> F  </i>
   <i type="logical" name="LTHOMAS"> F  </i>
   <i type="logical" name="LMODELHF"> F  </i>
   <i name="ENCUT4O">     -1.00000000</i>
   <i type="int" name="EXXOEP">     0</i>
   <i type="int" name="FOURORBIT">     0</i>
   <i name="AEXX">      0.00000000</i>
   <i name="HFALPHA">      0.00000000</i>
   <i name="MCALPHA">      0.00000000</i>
   <i name="ALDAX">      1.00000000</i>
   <i name="AGGAX">      1.00000000</i>
   <i name="ALDAC">      1.00000000</i>
   <i name="AGGAC">      1.00000000</i>
   <i type="int" name="NKREDX">     1</i>
   <i type="int" name="NKREDY">     1</i>
   <i type="int" name="NKREDZ">     1</i>
   <i type="logical" name="SHIFTRED"> F  </i>
   <i type="logical" name="ODDONLY"> F  </i>
   <i type="logical" name="EVENONLY"> F  </i>
   <i type="int" name="LMAXFOCK">     0</i>
   <i type="int" name="NMAXFOCKAE">     0</i>
   <i type="logical" name="LFOCKAEDFT"> F  </i>
   <i name="HFSCREEN">      0.00000000</i>
   <i name="HFSCREENC">      0.00000000</i>
   <i type="int" name="NBANDSGWLOW">     0</i>
  </separator>
  <separator name="vdW DFT" >
   <i type="logical" name="LUSE_VDW"> F  </i>
   <i name="Zab_VDW">     -0.84910000</i>
   <i name="PARAM1">      0.12340000</i>
   <i name="PARAM2">      1.00000000</i>
   <i name="PARAM3">      0.00000000</i>
  </separator>
  <separator name="model GW" >
   <i type="int" name="MODEL_GW">     0</i>
   <i name="MODEL_EPS0">    119.98769703</i>
   <i name="MODEL_ALPHA">      1.00000000</i>
  </separator>
  <separator name="linear response parameters" >
   <i type="logical" name="LEPSILON"> F  </i>
   <i type="logical" name="LRPA"> F  </i>
   <i type="logical" name="LNABLA"> F  </i>
   <i type="logical" name="LVEL"> F  </i>
   <i type="int" name="KINTER">     0</i>
   <i name="CSHIFT">      0.10000000</i>
   <i name="OMEGAMAX">     -1.00000000</i>
   <i name="DEG_THRESHOLD">      0.00200000</i>
   <i name="RTIME">     -0.10000000</i>
   <i name="WPLASMAI">      0.00000000</i>
   <v name="DFIELD">      0.00000000      0.00000000      0.00000000</v>
   <v name="WPLASMA">      0.00000000      0.00000000      0.00000000      0.00000000      0.00000000      0.00000000      0.00000000      0.00000000      0.00000000</v>
  </separator>
  <separator name="orbital magnetization" >
   <i type="logical" name="NUCIND"> F  </i>
   <v name="MAGPOS">      0.00000000      0.00000000      0.00000000</v>
   <i type="logical" name="LNICSALL"> T  </i>
   <i type="logical" name="ORBITALMAG"> F  </i>
   <i type="logical" name="LMAGBLOCH"> F  </i>
   <i type="logical" name="LCHIMAG"> F  </i>
   <i type="logical" name="LGAUGE"> T  </i>
   <i type="int" name="MAGATOM">     0</i>
   <v name="MAGDIPOL">      0.00000000      0.00000000      0.00000000</v>
   <v name="AVECCONST">      0.00000000      0.00000000      0.00000000</v>
  </separator>
  <separator name="response functions" >
   <i type="logical" name="LADDER"> F  </i>
   <i type="logical" name="LRPAFORCE"> F  </i>
   <i type="logical" name="LFXC"> F  </i>
   <i type="logical" name="LHARTREE"> T  </i>
   <i type="int" name="IBSE">     0</i>
   <v type="int" name="KPOINT">    -1     0     0     0</v>
   <i type="logical" name="LTCTE"> F  </i>
   <i type="logical" name="LTETE"> F  </i>
   <i type="logical" name="LTRIPLET"> F  </i>
   <i type="logical" name="LFXCEPS"> F  </i>
   <i type="logical" name="LFXHEG"> F  </i>
   <i type="int" name="NATURALO">     2</i>
   <i type="logical" name="L2ORDER"> F  </i>
   <i type="logical" name="LMP2LT"> F  </i>
   <i type="logical" name="LUSEW"> F  </i>
   <i name="ENCUTGW">     -2.00000000</i>
   <i name="ENCUTGWSOFT">     -2.00000000</i>
   <i name="ENCUTLF">     -1.00000000</i>
   <i type="int" name="LMAXMP2">    -1</i>
   <i name="SCISSOR">      0.00000000</i>
   <i type="int" name="NOMEGA">     0</i>
   <i type="int" name="NOMEGAR">     0</i>
   <i type="int" name="NBANDSGW">    -1</i>
   <i type="int" name="NBANDSO">    -1</i>
   <i type="int" name="NBANDSV">    -1</i>
   <i type="int" name="NELM">     1</i>
   <i type="int" name="NELMHF">     1</i>
   <i type="int" name="DIM">     3</i>
   <i type="int" name="ANTIRES">     0</i>
   <i name="OMEGAMAX">    -30.00000000</i>
   <i name="OMEGAMIN">    -30.00000000</i>
   <i name="OMEGATL">   -200.00000000</i>
   <i type="int" name="OMEGAGRID">   140</i>
   <i name="CSHIFT">     -0.10000000</i>
   <i type="logical" name="SELFENERGY"> F  </i>
   <i type="logical" name="LSPECTRAL"> F  </i>
   <i type="logical" name="LSPECTRALGW"> F  </i>
   <i type="logical" name="LSINGLES"> F  </i>
   <i type="logical" name="LFERMIGW"> F  </i>
   <i type="logical" name="ODDONLYGW"> F  </i>
   <i type="logical" name="EVENONLYGW"> F  </i>
   <i type="int" name="NKREDLFX">     1</i>
   <i type="int" name="NKREDLFY">     1</i>
   <i type="int" name="NKREDLFZ">     1</i>
   <i type="int" name="MAXMEM">  2800</i>
   <i type="int" name="TELESCOPE">     0</i>
   <i type="int" name="TAUPAR">     1</i>
   <i type="int" name="OMEGAPAR">    -1</i>
   <i name="LAMBDA">      1.00000000</i>
  </separator>
  <separator name="External order field" >
   <i name="OFIELD_KAPPA">      0.00000000</i>
   <v name="OFIELD_K">      0.00000000      0.00000000      0.00000000</v>
   <i name="OFIELD_Q6_NEAR">      0.00000000</i>
   <i name="OFIELD_Q6_FAR">      0.00000000</i>
   <i name="OFIELD_A">      0.00000000</i>
  </separator>
 </parameters>
 <atominfo>
  <atoms>       5 </atoms>
  <types>       2 </types>
  <array name="atoms" >
   <dimension dim="1">ion</dimension>
   <field type="string">element</field>
   <field type="int">atomtype</field>
   <set>
    <rc><c>H </c><c>   1</c></rc>
    <rc><c>H </c><c>   1</c></rc>
    <rc><c>H </c><c>   1</c></rc>
    <rc><c>H </c><c>   1</c></rc>
    <rc><c>C </c><c>   2</c></rc>
   </set>
  </array>
  <array name="atomtypes" >
   <dimension dim="1">type</dimension>
   <field type="int">atomspertype</field>
   <field type="string">element</field>
   <field>mass</field>
   <field>valence</field>
   <field type="string">pseudopotential</field>
   <set>
    <rc><c>   4</c><c>H </c><c>      1.00000000</c><c>      1.00000000</c><c>  PAW_PBE H 15Jun2001                   </c></rc>
    <rc><c>   1</c><c>C </c><c>     12.01100000</c><c>      4.00000000</c><c>  PAW_PBE C 08Apr2002                   </c></rc>
   </set>
  </array>
 </atominfo>
 <structure name="initialpos" >
  <crystal>
   <varray name="basis" >
    <v>      10.08728459       0.00000000       0.00000000 </v>
    <v>      -0.10641161      10.03660801       0.00000000 </v>
    <v>      -0.08086875      -0.03014333       9.87629913 </v>
   </varray>
   <i name="volume">    999.89747521 </i>
   <varray name="rec_basis" >
    <v>       0.09913471       0.00105106       0.00081494 </v>
    <v>      -0.00000000       0.09963526       0.00030410 </v>
    <v>       0.00000000      -0.00000000       0.10125250 </v>
   </varray>
  </crystal>
  <varray name="positions" >
   <v>       0.53828028       0.40657508       0.36068362 </v>
   <v>       0.39511269       0.48017744       0.43913737 </v>
   <v>       0.55193062       0.56540240       0.44253606 </v>
   <v>       0.52759256       0.41675542       0.53863739 </v>
   <v>       0.50325489       0.46731773       0.44541534 </v>
  </varray>
  <varray name="velocities" >
   <v>       0.00120038      -0.00033503       0.00046287 </v>
   <v>       0.00172144       0.00013471       0.00101913 </v>
   <v>      -0.00102202       0.00212515      -0.00049292 </v>
   <v>       0.00082669      -0.00246845      -0.00086177 </v>
   <v>      -0.00022700       0.00004526      -0.00001060 </v>
  </varray>
 </structure>
 <calculation>
  <scstep>
   <time name="dav">    2.34    2.34</time>
   <time name="total">    3.93    3.94</time>
   <energy>
    <i name="alphaZ">      0.24227563 </i>
    <i name="ewald">    129.49399063 </i>
    <i name="hartreedc">   -244.38084832 </i>
    <i name="XCdc">     22.02811117 </i>
    <i name="pawpsdc">    117.05815612 </i>
    <i name="pawaedc">   -117.66307307 </i>
    <i name="eentropy">      0.00289895 </i>
    <i name="bandstr">    -88.84209992 </i>
    <i name="atom">    197.04175453 </i>
    <i name="e_fr_energy">     14.98116574 </i>
    <i name="e_wo_entrp">     14.97826679 </i>
    <i name="e_0_energy">     14.98019942 </i>
   </energy>
  </scstep>
  <scstep>
   <time name="dav">    1.68    1.68</time>
   <time name="total">    1.68    1.68</time>
   <energy>
    <i name="e_fr_energy">    -22.83241148 </i>
    <i name="e_wo_entrp">    -22.83611364 </i>
    <i name="e_0_energy">    -22.83364554 </i>
   </energy>
  </scstep>
  <scstep>
   <time name="dav">    1.82    1.82</time>
   <time name="total">    1.82    1.82</time>
   <energy>
    <i name="e_fr_energy">    -27.36344773 </i>
    <i name="e_wo_entrp">    -27.39582601 </i>
    <i name="e_0_energy">    -27.37424049 </i>
   </energy>
  </scstep>
  <scstep>
   <time name="dav">    2.98    2.99</time>
   <time name="total">    2.98    2.99</time>
   <energy>
    <i name="e_fr_energy">    -27.55613590 </i>
    <i name="e_wo_entrp">    -27.59149399 </i>
    <i name="e_0_energy">    -27.56792193 </i>
   </energy>
  </scstep>
  <scstep>
   <time name="dav">    2.01    2.02</time>
   <time name="total">    2.21    2.21</time>
   <energy>
    <i name="e_fr_energy">    -27.55620220 </i>
    <i name="e_wo_entrp">    -27.59156076 </i>
    <i name="e_0_energy">    -27.56798839 </i>
   </energy>
  </scstep>
  <scstep>
   <time name="diag">    0.32    0.32</time>
   <time name="diis">    1.12    1.12</time>
   <time name="orth">    0.01    0.01</time>
   <time name="total">    3.41    3.42</time>
   <energy>
    <i name="e_fr_energy">    -24.62129771 </i>
    <i name="e_wo_entrp">    -24.65918217 </i>
    <i name="e_0_energy">    -24.63392586 </i>
   </energy>
  </scstep>
  <scstep>
   <time name="diag">    0.43    0.43</time>
   <time name="diis">    1.15    1.16</time>
   <time name="orth">    0.01    0.01</time>
   <time name="total">    3.38    3.39</time>
   <energy>
    <i name="e_fr_energy">    -24.12056162 </i>
    <i name="e_wo_entrp">    -24.16034276 </i>
    <i name="e_0_energy">    -24.13382200 </i>
   </energy>
  </scstep>
  <scstep>
   <time name="diag">    0.34    0.34</time>
   <time name="diis">    1.29    1.29</time>
   <time name="orth">    0.01    0.01</time>
   <time name="total">    3.45    3.46</time>
   <energy>
    <i name="e_fr_energy">    -23.98898135 </i>
    <i name="e_wo_entrp">    -24.02944664 </i>
    <i name="e_0_energy">    -24.00246978 </i>
   </energy>
  </scstep>
  <scstep>
   <time name="diag">    0.32    0.32</time>
   <time name="diis">    1.22    1.22</time>
   <time name="orth">    0.01    0.01</time>
   <time name="total">    3.37    3.38</time>
   <energy>
    <i name="e_fr_energy">    -23.96884928 </i>
    <i name="e_wo_entrp">    -24.00830455 </i>
    <i name="e_0_energy">    -23.98200104 </i>
   </energy>
  </scstep>
  <scstep>
   <time name="diag">    0.32    0.32</time>
   <time name="diis">    1.12    1.12</time>
   <time name="orth">    0.01    0.01</time>
   <time name="total">    3.27    3.27</time>
   <energy>
    <i name="e_fr_energy">    -23.96690018 </i>
    <i name="e_wo_entrp">    -24.00597967 </i>
    <i name="e_0_energy">    -23.97992668 </i>
   </energy>
  </scstep>
  <scstep>
   <time name="diag">    0.31    0.31</time>
   <time name="diis">    1.10    1.11</time>
   <time name="orth">    0.01    0.01</time>
   <time name="total">    3.20    3.21</time>
   <energy>
    <i name="e_fr_energy">    -23.96611317 </i>
    <i name="e_wo_entrp">    -24.00487277 </i>
    <i name="e_0_energy">    -23.97903304 </i>
   </energy>
  </scstep>
  <scstep>
   <time name="diag">    0.32    0.32</time>
   <time name="diis">    1.11    1.12</time>
   <time name="orth">    0.01    0.01</time>
   <time name="total">    3.15    3.16</time>
   <energy>
    <i name="e_fr_energy">    -23.96144610 </i>
    <i name="e_wo_entrp">    -24.00025663 </i>
    <i name="e_0_energy">    -23.97438294 </i>
   </energy>
  </scstep>
  <scstep>
   <time name="diag">    0.32    0.32</time>
   <time name="diis">    1.11    1.12</time>
   <time name="orth">    0.01    0.01</time>
   <time name="total">    3.12    3.13</time>
   <energy>
    <i name="e_fr_energy">    -23.96306901 </i>
    <i name="e_wo_entrp">    -24.00208118 </i>
    <i name="e_0_energy">    -23.97607307 </i>
   </energy>
  </scstep>
  <scstep>
   <time name="diag">    0.33    0.33</time>
   <time name="diis">    1.21    1.21</time>
   <time name="orth">    0.01    0.01</time>
   <time name="total">    3.14    3.15</time>
   <energy>
    <i name="e_fr_energy">    -23.96975055 </i>
    <i name="e_wo_entrp">    -24.00876128 </i>
    <i name="e_0_energy">    -23.98275413 </i>
   </energy>
  </scstep>
  <scstep>
   <time name="diag">    0.31    0.31</time>
   <time name="diis">    1.18    1.19</time>
   <time name="orth">    0.01    0.01</time>
   <time name="total">    3.07    3.08</time>
   <energy>
    <i name="e_fr_energy">    -23.97187903 </i>
    <i name="e_wo_entrp">    -24.01076422 </i>
    <i name="e_0_energy">    -23.98484076 </i>
   </energy>
  </scstep>
  <scstep>
   <time name="diag">    0.32    0.32</time>
   <time name="diis">    1.13    1.14</time>
   <time name="orth">    0.01    0.01</time>
   <time name="total">    3.00    3.01</time>
   <energy>
    <i name="e_fr_energy">    -23.97350651 </i>
    <i name="e_wo_entrp">    -24.01259232 </i>
    <i name="e_0_energy">    -23.98653511 </i>
   </energy>
  </scstep>
  <scstep>
   <time name="diag">    0.33    0.33</time>
   <time name="diis">    1.12    1.13</time>
   <time name="orth">    0.01    0.01</time>
   <time name="total">    3.09    3.10</time>
   <energy>
    <i name="e_fr_energy">    -23.97392565 </i>
    <i name="e_wo_entrp">    -24.01293892 </i>
    <i name="e_0_energy">    -23.98693007 </i>
   </energy>
  </scstep>
  <scstep>
   <time name="diag">    0.33    0.33</time>
   <time name="diis">    1.11    1.11</time>
   <time name="orth">    0.01    0.01</time>
   <time name="total">    3.08    3.09</time>
   <energy>
    <i name="e_fr_energy">    -23.97421219 </i>
    <i name="e_wo_entrp">    -24.01311958 </i>
    <i name="e_0_energy">    -23.98718132 </i>
   </energy>
  </scstep>
  <scstep>
   <time name="diag">    0.33    0.33</time>
   <time name="diis">    1.22    1.22</time>
   <time name="orth">    0.01    0.01</time>
   <time name="total">    3.12    3.13</time>
   <energy>
    <i name="e_fr_energy">    -23.97421433 </i>
    <i name="e_wo_entrp">    -24.01314728 </i>
    <i name="e_0_energy">    -23.98719198 </i>
   </energy>
  </scstep>
  <scstep>
   <time name="diag">    0.31    0.31</time>
   <time name="diis">    1.20    1.21</time>
   <time name="orth">    0.01    0.01</time>
   <time name="total">    3.12    3.13</time>
   <energy>
    <i name="e_fr_energy">    -23.97425148 </i>
    <i name="e_wo_entrp">    -24.01320401 </i>
    <i name="e_0_energy">    -23.98723566 </i>
   </energy>
  </scstep>
  <scstep>
   <time name="diag">    0.31    0.31</time>
   <time name="diis">    0.88    0.89</time>
   <time name="orth">    0.01    0.01</time>
   <time name="total">    2.84    2.84</time>
   <energy>
    <i name="e_fr_energy">    -23.97425870 </i>
    <i name="e_wo_entrp">    -24.01322288 </i>
    <i name="e_0_energy">    -23.98724676 </i>
   </energy>
  </scstep>
  <scstep>
   <time name="diag">    0.31    0.31</time>
   <time name="diis">    1.06    1.06</time>
   <time name="orth">    0.01    0.01</time>
   <time name="total">    3.11    3.12</time>
   <energy>
    <i name="e_fr_energy">    -23.97426205 </i>
    <i name="e_wo_entrp">    -24.01322885 </i>
    <i name="e_0_energy">    -23.98725098 </i>
   </energy>
  </scstep>
  <scstep>
   <time name="diag">    0.29    0.29</time>
   <time name="diis">    0.88    0.88</time>
   <time name="orth">    0.01    0.01</time>
   <time name="total">    2.77    2.78</time>
   <energy>
    <i name="alphaZ">      0.24227563 </i>
    <i name="ewald">    129.49399063 </i>
    <i name="hartreedc">   -285.19553099 </i>
    <i name="XCdc">     24.77900936 </i>
    <i name="pawpsdc">    490.50648946 </i>
    <i name="pawaedc">   -491.29794350 </i>
    <i name="eentropy">      0.03896419 </i>
    <i name="bandstr">    -89.58327191 </i>
    <i name="atom">    197.04175453 </i>
    <i name="e_fr_energy">    -23.97426259 </i>
    <i name="e_wo_entrp">    -24.01322679 </i>
    <i name="e_0_energy">    -23.98725066 </i>
   </energy>
  </scstep>
  <structure>
   <crystal>
    <varray name="basis" >
     <v>      10.08728459       0.00000000       0.00000000 </v>
     <v>      -0.10641161      10.03660801       0.00000000 </v>
     <v>      -0.08086875      -0.03014333       9.87629913 </v>
    </varray>
    <i name="volume">    999.89747521 </i>
    <varray name="rec_basis" >
     <v>       0.09913471       0.00105106       0.00081494 </v>
     <v>      -0.00000000       0.09963526       0.00030410 </v>
     <v>       0.00000000      -0.00000000       0.10125250 </v>
    </varray>
   </crystal>
   <varray name="positions" >
    <v>       0.53828028       0.40657508       0.36068362 </v>
    <v>       0.39511269       0.48017744       0.43913737 </v>
    <v>       0.55193062       0.56540240       0.44253606 </v>
    <v>       0.52759256       0.41675542       0.53863739 </v>
    <v>       0.50325489       0.46731773       0.44541534 </v>
   </varray>
  </structure>
  <varray name="forces" >
   <v>       0.24438349       0.09550259       0.42329547 </v>
   <v>       0.49918629       0.32729950       0.17861036 </v>
   <v>       0.37116496       0.77636633      -0.21772091 </v>
   <v>       0.16119452      -0.81950232       0.87147430 </v>
   <v>      -0.57029663       0.45707935      -0.14518705 </v>
  </varray>
  <varray name="stress" >
   <v>      -1.16533127      -0.19789269       0.26290105 </v>
   <v>      -0.19789269       0.88560086      -0.75429089 </v>
   <v>       0.26290105      -0.75429090      -0.00473644 </v>
  </varray>
  <energy>
   <i name="e_fr_energy">    -23.97426259 </i>
   <i name="e_wo_entrp">    -23.98725066 </i>
   <i name="e_0_energy">      0.03896419 </i>
   <i name="kinetic">      0.06119778 </i>
   <i name="lattice kinetic">      0.00000000 </i>
   <i name="nosepot">      0.00000000 </i>
   <i name="nosekinetic">      0.00015032 </i>
   <i name="total">    -23.91291449 </i>
  </energy>
  <dos>
   <i name="efermi">     -9.11028416 </i>
   <total>
    <array>
     <dimension dim="1">gridpoints</dimension>
     <dimension dim="2">spin</dimension>
     <field>energy</field>
     <field>total</field>
     <field>integrated</field>
     <set>
      <set comment="spin 1">
       <r>   -18.9006     0.0000     0.0000 </r>
       <r>   -18.8286     0.0000     0.0000 </r>
       <r>   -18.7566     0.0000     0.0000 </r>
       <r>   -18.6845     0.0000     0.0000 </r>
       <r>   -18.6125     0.0000     0.0000 </r>
       <r>   -18.5405    -0.0000    -0.0000 </r>
       <r>   -18.4685    -0.0000    -0.0000 </r>
       <r>   -18.3964    -0.0000    -0.0000 </r>
       <r>   -18.3244    -0.0000    -0.0000 </r>
       <r>   -18.2524    -0.0000    -0.0000 </r>
       <r>   -18.1803    -0.0000    -0.0000 </r>
       <r>   -18.1083    -0.0000    -0.0000 </r>
       <r>   -18.0363    -0.0000    -0.0000 </r>
       <r>   -17.9642    -0.0000    -0.0000 </r>
       <r>   -17.8922    -0.0000    -0.0000 </r>
       <r>   -17.8202    -0.0000    -0.0000 </r>
       <r>   -17.7482    -0.0000    -0.0000 </r>
       <r>   -17.6761    -0.0000    -0.0000 </r>
       <r>   -17.6041    -0.0001    -0.0000 </r>
       <r>   -17.5321    -0.0009    -0.0001 </r>
       <r>   -17.4600    -0.0067    -0.0006 </r>
       <r>   -17.3880    -0.0347    -0.0031 </r>
       <r>   -17.3160    -0.1295    -0.0124 </r>
       <r>   -17.2439    -0.3232    -0.0357 </r>
       <r>   -17.1719    -0.4278    -0.0665 </r>
       <r>   -17.0999     0.2361    -0.0495 </r>
       <r>   -17.0278     2.4760     0.1289 </r>
       <r>   -16.9558     5.8750     0.5521 </r>
       <r>   -16.8838     8.1893     1.1419 </r>
       <r>   -16.8118     7.4148     1.6760 </r>
       <r>   -16.7397     4.2530     1.9824 </r>
       <r>   -16.6677     1.2124     2.0697 </r>
       <r>   -16.5957    -0.2310     2.0531 </r>
       <r>   -16.5236    -0.4206     2.0228 </r>
       <r>   -16.4516    -0.2232     2.0067 </r>
       <r>   -16.3796    -0.0732     2.0014 </r>
       <r>   -16.3075    -0.0167     2.0002 </r>
       <r>   -16.2355    -0.0028     2.0000 </r>
       <r>   -16.1635    -0.0003     2.0000 </r>
       <r>   -16.0915    -0.0000     2.0000 </r>
       <r>   -16.0194    -0.0000     2.0000 </r>
       <r>   -15.9474    -0.0000     2.0000 </r>
       <r>   -15.8754    -0.0000     2.0000 </r>
       <r>   -15.8033    -0.0000     2.0000 </r>
       <r>   -15.7313    -0.0000     2.0000 </r>
       <r>   -15.6593    -0.0000     2.0000 </r>
       <r>   -15.5872     0.0000     2.0000 </r>
       <r>   -15.5152     0.0000     2.0000 </r>
       <r>   -15.4432     0.0000     2.0000 </r>
       <r>   -15.3711     0.0000     2.0000 </r>
       <r>   -15.2991     0.0000     2.0000 </r>
       <r>   -15.2271     0.0000     2.0000 </r>
       <r>   -15.1551     0.0000     2.0000 </r>
       <r>   -15.0830     0.0000     2.0000 </r>
       <r>   -15.0110     0.0000     2.0000 </r>
       <r>   -14.9390     0.0000     2.0000 </r>
       <r>   -14.8669     0.0000     2.0000 </r>
       <r>   -14.7949     0.0000     2.0000 </r>
       <r>   -14.7229     0.0000     2.0000 </r>
       <r>   -14.6508     0.0000     2.0000 </r>
       <r>   -14.5788     0.0000     2.0000 </r>
       <r>   -14.5068     0.0000     2.0000 </r>
       <r>   -14.4348     0.0000     2.0000 </r>
       <r>   -14.3627     0.0000     2.0000 </r>
       <r>   -14.2907     0.0000     2.0000 </r>
       <r>   -14.2187     0.0000     2.0000 </r>
       <r>   -14.1466     0.0000     2.0000 </r>
       <r>   -14.0746     0.0000     2.0000 </r>
       <r>   -14.0026     0.0000     2.0000 </r>
       <r>   -13.9305     0.0000     2.0000 </r>
       <r>   -13.8585     0.0000     2.0000 </r>
       <r>   -13.7865     0.0000     2.0000 </r>
       <r>   -13.7144     0.0000     2.0000 </r>
       <r>   -13.6424     0.0000     2.0000 </r>
       <r>   -13.5704     0.0000     2.0000 </r>
       <r>   -13.4984     0.0000     2.0000 </r>
       <r>   -13.4263     0.0000     2.0000 </r>
       <r>   -13.3543     0.0000     2.0000 </r>
       <r>   -13.2823     0.0000     2.0000 </r>
       <r>   -13.2102     0.0000     2.0000 </r>
       <r>   -13.1382     0.0000     2.0000 </r>
       <r>   -13.0662     0.0000     2.0000 </r>
       <r>   -12.9941     0.0000     2.0000 </r>
       <r>   -12.9221     0.0000     2.0000 </r>
       <r>   -12.8501     0.0000     2.0000 </r>
       <r>   -12.7780     0.0000     2.0000 </r>
       <r>   -12.7060     0.0000     2.0000 </r>
       <r>   -12.6340     0.0000     2.0000 </r>
       <r>   -12.5620     0.0000     2.0000 </r>
       <r>   -12.4899     0.0000     2.0000 </r>
       <r>   -12.4179     0.0000     2.0000 </r>
       <r>   -12.3459     0.0000     2.0000 </r>
       <r>   -12.2738     0.0000     2.0000 </r>
       <r>   -12.2018     0.0000     2.0000 </r>
       <r>   -12.1298     0.0000     2.0000 </r>
       <r>   -12.0577     0.0000     2.0000 </r>
       <r>   -11.9857     0.0000     2.0000 </r>
       <r>   -11.9137     0.0000     2.0000 </r>
       <r>   -11.8417     0.0000     2.0000 </r>
       <r>   -11.7696     0.0000     2.0000 </r>
       <r>   -11.6976     0.0000     2.0000 </r>
       <r>   -11.6256     0.0000     2.0000 </r>
       <r>   -11.5535     0.0000     2.0000 </r>
       <r>   -11.4815     0.0000     2.0000 </r>
       <r>   -11.4095     0.0000     2.0000 </r>
       <r>   -11.3374     0.0000     2.0000 </r>
       <r>   -11.2654     0.0000     2.0000 </r>
       <r>   -11.1934     0.0000     2.0000 </r>
       <r>   -11.1213     0.0000     2.0000 </r>
       <r>   -11.0493     0.0000     2.0000 </r>
       <r>   -10.9773    -0.0000     2.0000 </r>
       <r>   -10.9053    -0.0000     2.0000 </r>
       <r>   -10.8332    -0.0000     2.0000 </r>
       <r>   -10.7612    -0.0000     2.0000 </r>
       <r>   -10.6892    -0.0000     2.0000 </r>
       <r>   -10.6171    -0.0000     2.0000 </r>
       <r>   -10.5451    -0.0000     2.0000 </r>
       <r>   -10.4731    -0.0000     2.0000 </r>
       <r>   -10.4010    -0.0000     2.0000 </r>
       <r>   -10.3290    -0.0000     2.0000 </r>
       <r>   -10.2570    -0.0000     2.0000 </r>
       <r>   -10.1850    -0.0000     2.0000 </r>
       <r>   -10.1129    -0.0000     2.0000 </r>
       <r>   -10.0409    -0.0001     2.0000 </r>
       <r>    -9.9689    -0.0014     1.9999 </r>
       <r>    -9.8968    -0.0106     1.9991 </r>
       <r>    -9.8248    -0.0579     1.9950 </r>
       <r>    -9.7528    -0.2312     1.9783 </r>
       <r>    -9.6807    -0.6436     1.9319 </r>
       <r>    -9.6087    -1.0894     1.8535 </r>
       <r>    -9.5367    -0.3536     1.8280 </r>
       <r>    -9.4646     3.7142     2.0955 </r>
       <r>    -9.3926    11.8248     2.9473 </r>
       <r>    -9.3206    20.3670     4.4143 </r>
       <r>    -9.2486    23.1952     6.0851 </r>
       <r>    -9.1765    18.0000     7.3816 </r>
       <r>    -9.1045     8.9969     8.0297 </r>
       <r>    -9.0325     2.0429     8.1768 </r>
       <r>    -8.9604    -0.7816     8.1205 </r>
       <r>    -8.8884    -0.9770     8.0502 </r>
       <r>    -8.8164    -0.4916     8.0148 </r>
       <r>    -8.7443    -0.1603     8.0032 </r>
       <r>    -8.6723    -0.0372     8.0005 </r>
       <r>    -8.6003    -0.0064     8.0001 </r>
       <r>    -8.5283    -0.0008     8.0000 </r>
       <r>    -8.4562    -0.0001     8.0000 </r>
       <r>    -8.3842    -0.0000     8.0000 </r>
       <r>    -8.3122    -0.0000     8.0000 </r>
       <r>    -8.2401    -0.0000     8.0000 </r>
       <r>    -8.1681    -0.0000     8.0000 </r>
       <r>    -8.0961    -0.0000     8.0000 </r>
       <r>    -8.0240    -0.0000     8.0000 </r>
       <r>    -7.9520    -0.0000     8.0000 </r>
       <r>    -7.8800     0.0000     8.0000 </r>
       <r>    -7.8079     0.0000     8.0000 </r>
       <r>    -7.7359     0.0000     8.0000 </r>
       <r>    -7.6639     0.0000     8.0000 </r>
       <r>    -7.5919     0.0000     8.0000 </r>
       <r>    -7.5198     0.0000     8.0000 </r>
       <r>    -7.4478     0.0000     8.0000 </r>
       <r>    -7.3758     0.0000     8.0000 </r>
       <r>    -7.3037     0.0000     8.0000 </r>
       <r>    -7.2317     0.0000     8.0000 </r>
       <r>    -7.1597     0.0000     8.0000 </r>
       <r>    -7.0876     0.0000     8.0000 </r>
       <r>    -7.0156     0.0000     8.0000 </r>
       <r>    -6.9436     0.0000     8.0000 </r>
       <r>    -6.8716     0.0000     8.0000 </r>
       <r>    -6.7995     0.0000     8.0000 </r>
       <r>    -6.7275     0.0000     8.0000 </r>
       <r>    -6.6555     0.0000     8.0000 </r>
       <r>    -6.5834     0.0000     8.0000 </r>
       <r>    -6.5114     0.0000     8.0000 </r>
       <r>    -6.4394     0.0000     8.0000 </r>
       <r>    -6.3673     0.0000     8.0000 </r>
       <r>    -6.2953     0.0000     8.0000 </r>
       <r>    -6.2233     0.0000     8.0000 </r>
       <r>    -6.1512     0.0000     8.0000 </r>
       <r>    -6.0792     0.0000     8.0000 </r>
       <r>    -6.0072     0.0000     8.0000 </r>
       <r>    -5.9352     0.0000     8.0000 </r>
       <r>    -5.8631     0.0000     8.0000 </r>
       <r>    -5.7911     0.0000     8.0000 </r>
       <r>    -5.7191     0.0000     8.0000 </r>
       <r>    -5.6470     0.0000     8.0000 </r>
       <r>    -5.5750     0.0000     8.0000 </r>
       <r>    -5.5030     0.0000     8.0000 </r>
       <r>    -5.4309     0.0000     8.0000 </r>
       <r>    -5.3589     0.0000     8.0000 </r>
       <r>    -5.2869     0.0000     8.0000 </r>
       <r>    -5.2149     0.0000     8.0000 </r>
       <r>    -5.1428     0.0000     8.0000 </r>
       <r>    -5.0708     0.0000     8.0000 </r>
       <r>    -4.9988     0.0000     8.0000 </r>
       <r>    -4.9267     0.0000     8.0000 </r>
       <r>    -4.8547     0.0000     8.0000 </r>
       <r>    -4.7827     0.0000     8.0000 </r>
       <r>    -4.7106     0.0000     8.0000 </r>
       <r>    -4.6386     0.0000     8.0000 </r>
       <r>    -4.5666     0.0000     8.0000 </r>
       <r>    -4.4945     0.0000     8.0000 </r>
       <r>    -4.4225     0.0000     8.0000 </r>
       <r>    -4.3505     0.0000     8.0000 </r>
       <r>    -4.2785     0.0000     8.0000 </r>
       <r>    -4.2064     0.0000     8.0000 </r>
       <r>    -4.1344     0.0000     8.0000 </r>
       <r>    -4.0624     0.0000     8.0000 </r>
       <r>    -3.9903     0.0000     8.0000 </r>
       <r>    -3.9183     0.0000     8.0000 </r>
       <r>    -3.8463     0.0000     8.0000 </r>
       <r>    -3.7742     0.0000     8.0000 </r>
       <r>    -3.7022     0.0000     8.0000 </r>
       <r>    -3.6302     0.0000     8.0000 </r>
       <r>    -3.5582     0.0000     8.0000 </r>
       <r>    -3.4861     0.0000     8.0000 </r>
       <r>    -3.4141     0.0000     8.0000 </r>
       <r>    -3.3421     0.0000     8.0000 </r>
       <r>    -3.2700     0.0000     8.0000 </r>
       <r>    -3.1980     0.0000     8.0000 </r>
       <r>    -3.1260     0.0000     8.0000 </r>
       <r>    -3.0539     0.0000     8.0000 </r>
       <r>    -2.9819     0.0000     8.0000 </r>
       <r>    -2.9099     0.0000     8.0000 </r>
       <r>    -2.8378     0.0000     8.0000 </r>
       <r>    -2.7658     0.0000     8.0000 </r>
       <r>    -2.6938     0.0000     8.0000 </r>
       <r>    -2.6218     0.0000     8.0000 </r>
       <r>    -2.5497     0.0000     8.0000 </r>
       <r>    -2.4777     0.0000     8.0000 </r>
       <r>    -2.4057     0.0000     8.0000 </r>
       <r>    -2.3336     0.0000     8.0000 </r>
       <r>    -2.2616     0.0000     8.0000 </r>
       <r>    -2.1896     0.0000     8.0000 </r>
       <r>    -2.1175     0.0000     8.0000 </r>
       <r>    -2.0455     0.0000     8.0000 </r>
       <r>    -1.9735    -0.0000     8.0000 </r>
       <r>    -1.9015    -0.0000     8.0000 </r>
       <r>    -1.8294    -0.0000     8.0000 </r>
       <r>    -1.7574    -0.0000     8.0000 </r>
       <r>    -1.6854    -0.0000     8.0000 </r>
       <r>    -1.6133    -0.0000     8.0000 </r>
       <r>    -1.5413    -0.0000     8.0000 </r>
       <r>    -1.4693    -0.0000     8.0000 </r>
       <r>    -1.3972    -0.0000     8.0000 </r>
       <r>    -1.3252    -0.0000     8.0000 </r>
       <r>    -1.2532    -0.0000     8.0000 </r>
       <r>    -1.1811    -0.0000     8.0000 </r>
       <r>    -1.1091    -0.0000     8.0000 </r>
       <r>    -1.0371    -0.0000     8.0000 </r>
       <r>    -0.9651    -0.0004     8.0000 </r>
       <r>    -0.8930    -0.0035     7.9997 </r>
       <r>    -0.8210    -0.0204     7.9982 </r>
       <r>    -0.7490    -0.0858     7.9921 </r>
       <r>    -0.6769    -0.2489     7.9741 </r>
       <r>    -0.6049    -0.4330     7.9429 </r>
       <r>    -0.5329    -0.1381     7.9330 </r>
       <r>    -0.4608     1.5131     8.0420 </r>
       <r>    -0.3888     4.6902     8.3798 </r>
       <r>    -0.3168     7.6832     8.9332 </r>
       <r>    -0.2448     8.0490     9.5130 </r>
       <r>    -0.1727     5.4551     9.9060 </r>
       <r>    -0.1007     2.1066    10.0577 </r>
       <r>    -0.0287     0.0766    10.0632 </r>
       <r>     0.0434    -0.4563    10.0303 </r>
       <r>     0.1154    -0.3809    10.0029 </r>
       <r>     0.1874    -0.3922     9.9747 </r>
       <r>     0.2595    -0.6591     9.9272 </r>
       <r>     0.3315    -0.7787     9.8711 </r>
       <r>     0.4035     0.4061     9.9003 </r>
       <r>     0.4756     4.3641    10.2147 </r>
       <r>     0.5476    11.2579    11.0256 </r>
       <r>     0.6196    18.4472    12.3544 </r>
       <r>     0.6916    21.4938    13.9026 </r>
       <r>     0.7637    17.9604    15.1963 </r>
       <r>     0.8357    10.1929    15.9305 </r>
       <r>     0.9077     3.1388    16.1566 </r>
       <r>     0.9798    -0.3615    16.1305 </r>
       <r>     1.0518    -0.9765    16.0602 </r>
       <r>     1.1238    -0.5711    16.0191 </r>
       <r>     1.1959    -0.2036    16.0044 </r>
       <r>     1.2679    -0.0505    16.0008 </r>
       <r>     1.3399    -0.0091    16.0001 </r>
       <r>     1.4119    -0.0012    16.0000 </r>
       <r>     1.4840    -0.0001    16.0000 </r>
       <r>     1.5560    -0.0000    16.0000 </r>
       <r>     1.6280    -0.0000    16.0000 </r>
       <r>     1.7001    -0.0000    16.0000 </r>
       <r>     1.7721    -0.0000    16.0000 </r>
       <r>     1.8441    -0.0000    16.0000 </r>
       <r>     1.9162    -0.0000    16.0000 </r>
       <r>     1.9882    -0.0000    16.0000 </r>
       <r>     2.0602     0.0000    16.0000 </r>
       <r>     2.1323     0.0000    16.0000 </r>
       <r>     2.2043     0.0000    16.0000 </r>
       <r>     2.2763     0.0000    16.0000 </r>
       <r>     2.3483     0.0000    16.0000 </r>
       <r>     2.4204     0.0000    16.0000 </r>
       <r>     2.4924     0.0000    16.0000 </r>
       <r>     2.5644     0.0000    16.0000 </r>
       <r>     2.6365     0.0000    16.0000 </r>
       <r>     2.7085     0.0000    16.0000 </r>
      </set>
     </set>
    </array>
   </total>
  </dos>
  <time name="totalsc">   75.87   76.06</time>
 </calculation>
 <calculation>
  <scstep>
   <time name="dav">    1.53    1.53</time>
   <time name="total">    3.25    3.26</time>
   <energy>
    <i name="alphaZ">      0.24227563 </i>
    <i name="ewald">    126.43350035 </i>
    <i name="hartreedc">   -283.31802191 </i>
    <i name="XCdc">     24.68533077 </i>
    <i name="pawpsdc">    490.52007451 </i>
    <i name="pawaedc">   -491.31152681 </i>
    <i name="eentropy">      0.01941335 </i>
    <i name="bandstr">    -88.24664078 </i>
    <i name="atom">    197.04175453 </i>
    <i name="e_fr_energy">    -23.93384036 </i>
    <i name="e_wo_entrp">    -23.95325371 </i>
    <i name="e_0_energy">    -23.94031147 </i>
   </energy>
  </scstep>
  <scstep>
   <time name="diag">    0.31    0.31</time>
   <time name="diis">    1.13    1.14</time>
   <time name="orth">    0.01    0.01</time>
   <time name="total">    3.06    3.06</time>
   <energy>
    <i name="e_fr_energy">    -23.92944001 </i>
    <i name="e_wo_entrp">    -23.94702219 </i>
    <i name="e_0_energy">    -23.93530074 </i>
   </energy>
  </scstep>
  <scstep>
   <time name="diag">    0.30    0.30</time>
   <time name="diis">    1.29    1.29</time>
   <time name="orth">    0.01    0.01</time>
   <time name="total">    3.42    3.43</time>
   <energy>
    <i name="e_fr_energy">    -23.93463829 </i>
    <i name="e_wo_entrp">    -23.95041448 </i>
    <i name="e_0_energy">    -23.93989702 </i>
   </energy>
  </scstep>
  <scstep>
   <time name="diag">    0.42    0.42</time>
   <time name="diis">    1.12    1.12</time>
   <time name="orth">    0.01    0.01</time>
   <time name="total">    3.19    3.20</time>
   <energy>
    <i name="e_fr_energy">    -23.93852124 </i>
    <i name="e_wo_entrp">    -23.95479839 </i>
    <i name="e_0_energy">    -23.94394696 </i>
   </energy>
  </scstep>
  <scstep>
   <time name="diag">    0.31    0.32</time>
   <time name="diis">    1.23    1.23</time>
   <time name="orth">    0.01    0.01</time>
   <time name="total">    3.20    3.21</time>
   <energy>
    <i name="e_fr_energy">    -23.93320765 </i>
    <i name="e_wo_entrp">    -23.94977837 </i>
    <i name="e_0_energy">    -23.93873123 </i>
   </energy>
  </scstep>
  <scstep>
   <time name="diag">    0.33    0.33</time>
   <time name="diis">    1.13    1.14</time>
   <time name="orth">    0.01    0.01</time>
   <time name="total">    3.18    3.19</time>
   <energy>
    <i name="e_fr_energy">    -23.93358475 </i>
    <i name="e_wo_entrp">    -23.94991685 </i>
    <i name="e_0_energy">    -23.93902878 </i>
   </energy>
  </scstep>
  <scstep>
   <time name="diag">    0.33    0.33</time>
   <time name="diis">    1.12    1.12</time>
   <time name="orth">    0.01    0.01</time>
   <time name="total">    3.07    3.08</time>
   <energy>
    <i name="e_fr_energy">    -23.93302654 </i>
    <i name="e_wo_entrp">    -23.94926635 </i>
    <i name="e_0_energy">    -23.93843981 </i>
   </energy>
  </scstep>
  <scstep>
   <time name="diag">    0.34    0.34</time>
   <time name="diis">    1.12    1.12</time>
   <time name="orth">    0.01    0.01</time>
   <time name="total">    3.18    3.19</time>
   <energy>
    <i name="e_fr_energy">    -23.93293602 </i>
    <i name="e_wo_entrp">    -23.94913075 </i>
    <i name="e_0_energy">    -23.93833426 </i>
   </energy>
  </scstep>
  <scstep>
   <time name="diag">    0.33    0.33</time>
   <time name="diis">    1.13    1.13</time>
   <time name="orth">    0.01    0.01</time>
   <time name="total">    3.21    3.22</time>
   <energy>
    <i name="e_fr_energy">    -23.93284461 </i>
    <i name="e_wo_entrp">    -23.94879840 </i>
    <i name="e_0_energy">    -23.93816254 </i>
   </energy>
  </scstep>
  <scstep>
   <time name="diag">    0.40    0.40</time>
   <time name="diis">    1.19    1.19</time>
   <time name="orth">    0.01    0.01</time>
   <time name="total">    3.24    3.25</time>
   <energy>
    <i name="e_fr_energy">    -23.93280652 </i>
    <i name="e_wo_entrp">    -23.94866914 </i>
    <i name="e_0_energy">    -23.93809406 </i>
   </energy>
  </scstep>
  <scstep>
   <time name="diag">    0.32    0.32</time>
   <time name="diis">    1.17    1.17</time>
   <time name="orth">    0.01    0.01</time>
   <time name="total">    3.15    3.15</time>
   <energy>
    <i name="e_fr_energy">    -23.93280059 </i>
    <i name="e_wo_entrp">    -23.94849542 </i>
    <i name="e_0_energy">    -23.93803220 </i>
   </energy>
  </scstep>
  <scstep>
   <time name="diag">    0.32    0.33</time>
   <time name="diis">    1.14    1.14</time>
   <time name="orth">    0.01    0.01</time>
   <time name="total">    3.15    3.16</time>
   <energy>
    <i name="e_fr_energy">    -23.93281941 </i>
    <i name="e_wo_entrp">    -23.94850931 </i>
    <i name="e_0_energy">    -23.93804938 </i>
   </energy>
  </scstep>
  <scstep>
   <time name="diag">    0.32    0.32</time>
   <time name="diis">    1.06    1.06</time>
   <time name="orth">    0.01    0.01</time>
   <time name="total">    3.08    3.08</time>
   <energy>
    <i name="e_fr_energy">    -23.93283593 </i>
    <i name="e_wo_entrp">    -23.94852773 </i>
    <i name="e_0_energy">    -23.93806653 </i>
   </energy>
  </scstep>
  <scstep>
   <time name="diag">    0.32    0.32</time>
   <time name="diis">    1.00    1.00</time>
   <time name="orth">    0.01    0.01</time>
   <time name="total">    3.04    3.05</time>
   <energy>
    <i name="e_fr_energy">    -23.93284060 </i>
    <i name="e_wo_entrp">    -23.94851694 </i>
    <i name="e_0_energy">    -23.93806604 </i>
   </energy>
  </scstep>
  <scstep>
   <time name="diag">    0.33    0.33</time>
   <time name="diis">    1.06    1.06</time>
   <time name="orth">    0.01    0.01</time>
   <time name="total">    3.14    3.15</time>
   <energy>
    <i name="e_fr_energy">    -23.93284330 </i>
    <i name="e_wo_entrp">    -23.94852299 </i>
    <i name="e_0_energy">    -23.93806986 </i>
   </energy>
  </scstep>
  <scstep>
   <time name="diag">    0.33    0.33</time>
   <time name="diis">    0.90    0.90</time>
   <time name="orth">    0.01    0.01</time>
   <time name="total">    2.97    2.98</time>
   <energy>
    <i name="e_fr_energy">    -23.93284471 </i>
    <i name="e_wo_entrp">    -23.94852478 </i>
    <i name="e_0_energy">    -23.93807140 </i>
   </energy>
  </scstep>
  <scstep>
   <time name="diag">    0.32    0.32</time>
   <time name="diis">    0.88    0.88</time>
   <time name="orth">    0.01    0.01</time>
   <time name="total">    2.99    2.99</time>
   <energy>
    <i name="e_fr_energy">    -23.93284594 </i>
    <i name="e_wo_entrp">    -23.94852638 </i>
    <i name="e_0_energy">    -23.93807275 </i>
   </energy>
  </scstep>
  <scstep>
   <time name="diag">    0.30    0.30</time>
   <time name="diis">    0.89    0.89</time>
   <time name="orth">    0.01    0.01</time>
   <time name="total">    2.75    2.75</time>
   <energy>
    <i name="alphaZ">      0.24227563 </i>
    <i name="ewald">    126.43350035 </i>
    <i name="hartreedc">   -282.39798507 </i>
    <i name="XCdc">     24.63246682 </i>
    <i name="pawpsdc">    463.91578708 </i>
    <i name="pawaedc">   -464.69829086 </i>
    <i name="eentropy">      0.01568010 </i>
    <i name="bandstr">    -89.11803498 </i>
    <i name="atom">    197.04175453 </i>
    <i name="e_fr_energy">    -23.93284640 </i>
    <i name="e_wo_entrp">    -23.94852650 </i>
    <i name="e_0_energy">    -23.93807310 </i>
   </energy>
  </scstep>
  <structure>
   <crystal>
    <varray name="basis" >
     <v>      10.08728459       0.00000000       0.00000000 </v>
     <v>      -0.10641161      10.03660801       0.00000000 </v>
     <v>      -0.08086875      -0.03014333       9.87629913 </v>
    </varray>
    <i name="volume">    999.89747521 </i>
    <varray name="rec_basis" >
     <v>       0.09913471       0.00105106       0.00081494 </v>
     <v>      -0.00000000       0.09963526       0.00030410 </v>
     <v>       0.00000000      -0.00000000       0.10125250 </v>
    </varray>
   </crystal>
   <varray name="positions" >
    <v>       0.54024653       0.40641259       0.36251986 </v>
    <v>       0.39856808       0.48136545       0.44057304 </v>
    <v>       0.55218367       0.57027896       0.44093021 </v>
    <v>       0.52884840       0.41097908       0.54090415 </v>
    <v>       0.50267787       0.46730726       0.44508790 </v>
   </varray>
  </structure>
  <varray name="forces" >
   <v>      -0.00685884      -0.31313876       0.07797609 </v>
   <v>      -0.57959935      -0.18410488       0.07342024 </v>
   <v>      -0.33131758      -0.94669094       0.66100160 </v>
   <v>      -0.50310704       1.20219125      -1.29498896 </v>
   <v>       1.13561716       0.77645016       1.30427076 </v>
  </varray>
  <varray name="stress" >
   <v>       0.05798775      -0.46158437       0.32909840 </v>
   <v>      -0.46158438      -2.81337977       1.57415376 </v>
   <v>       0.32909840       1.57415375      -1.42517049 </v>
  </varray>
  <energy>
   <i name="e_fr_energy">    -23.93284640 </i>
   <i name="e_wo_entrp">    -23.93807310 </i>
   <i name="e_0_energy">      0.01568010 </i>
   <i name="kinetic">      0.05178697 </i>
   <i name="lattice kinetic">      0.00000000 </i>
   <i name="nosepot">      0.00086849 </i>
   <i name="nosekinetic">      0.00111937 </i>
   <i name="total">    -23.87907157 </i>
  </energy>
  <dos>
   <i name="efermi">     -8.77538317 </i>
   <total>
    <array>
     <dimension dim="1">gridpoints</dimension>
     <dimension dim="2">spin</dimension>
     <field>energy</field>
     <field>total</field>
     <field>integrated</field>
     <set>
      <set comment="spin 1">
       <r>   -18.8208     0.0000     0.0000 </r>
       <r>   -18.7491     0.0000     0.0000 </r>
       <r>   -18.6773     0.0000     0.0000 </r>
       <r>   -18.6056     0.0000     0.0000 </r>
       <r>   -18.5338     0.0000     0.0000 </r>
       <r>   -18.4620    -0.0000    -0.0000 </r>
       <r>   -18.3903    -0.0000    -0.0000 </r>
       <r>   -18.3185    -0.0000    -0.0000 </r>
       <r>   -18.2467    -0.0000    -0.0000 </r>
       <r>   -18.1750    -0.0000    -0.0000 </r>
       <r>   -18.1032    -0.0000    -0.0000 </r>
       <r>   -18.0315    -0.0000    -0.0000 </r>
       <r>   -17.9597    -0.0000    -0.0000 </r>
       <r>   -17.8879    -0.0000    -0.0000 </r>
       <r>   -17.8162    -0.0000    -0.0000 </r>
       <r>   -17.7444    -0.0000    -0.0000 </r>
       <r>   -17.6726    -0.0000    -0.0000 </r>
       <r>   -17.6009    -0.0000    -0.0000 </r>
       <r>   -17.5291    -0.0001    -0.0000 </r>
       <r>   -17.4574    -0.0008    -0.0001 </r>
       <r>   -17.3856    -0.0058    -0.0005 </r>
       <r>   -17.3138    -0.0309    -0.0027 </r>
       <r>   -17.2421    -0.1181    -0.0112 </r>
       <r>   -17.1703    -0.3050    -0.0331 </r>
       <r>   -17.0985    -0.4361    -0.0644 </r>
       <r>   -17.0268     0.1181    -0.0559 </r>
       <r>   -16.9550     2.1916     0.1014 </r>
       <r>   -16.8832     5.5434     0.4992 </r>
       <r>   -16.8115     8.0790     1.0790 </r>
       <r>   -16.7397     7.6478     1.6278 </r>
       <r>   -16.6680     4.6391     1.9607 </r>
       <r>   -16.5962     1.4850     2.0673 </r>
       <r>   -16.5244    -0.1447     2.0569 </r>
       <r>   -16.4527    -0.4329     2.0258 </r>
       <r>   -16.3809    -0.2489     2.0080 </r>
       <r>   -16.3091    -0.0862     2.0018 </r>
       <r>   -16.2374    -0.0207     2.0003 </r>
       <r>   -16.1656    -0.0036     2.0000 </r>
       <r>   -16.0939    -0.0005     2.0000 </r>
       <r>   -16.0221    -0.0000     2.0000 </r>
       <r>   -15.9503    -0.0000     2.0000 </r>
       <r>   -15.8786    -0.0000     2.0000 </r>
       <r>   -15.8068    -0.0000     2.0000 </r>
       <r>   -15.7350    -0.0000     2.0000 </r>
       <r>   -15.6633    -0.0000     2.0000 </r>
       <r>   -15.5915    -0.0000     2.0000 </r>
       <r>   -15.5197     0.0000     2.0000 </r>
       <r>   -15.4480     0.0000     2.0000 </r>
       <r>   -15.3762     0.0000     2.0000 </r>
       <r>   -15.3045     0.0000     2.0000 </r>
       <r>   -15.2327     0.0000     2.0000 </r>
       <r>   -15.1609     0.0000     2.0000 </r>
       <r>   -15.0892     0.0000     2.0000 </r>
       <r>   -15.0174     0.0000     2.0000 </r>
       <r>   -14.9456     0.0000     2.0000 </r>
       <r>   -14.8739     0.0000     2.0000 </r>
       <r>   -14.8021     0.0000     2.0000 </r>
       <r>   -14.7304     0.0000     2.0000 </r>
       <r>   -14.6586     0.0000     2.0000 </r>
       <r>   -14.5868     0.0000     2.0000 </r>
       <r>   -14.5151     0.0000     2.0000 </r>
       <r>   -14.4433     0.0000     2.0000 </r>
       <r>   -14.3715     0.0000     2.0000 </r>
       <r>   -14.2998     0.0000     2.0000 </r>
       <r>   -14.2280     0.0000     2.0000 </r>
       <r>   -14.1562     0.0000     2.0000 </r>
       <r>   -14.0845     0.0000     2.0000 </r>
       <r>   -14.0127     0.0000     2.0000 </r>
       <r>   -13.9410     0.0000     2.0000 </r>
       <r>   -13.8692     0.0000     2.0000 </r>
       <r>   -13.7974     0.0000     2.0000 </r>
       <r>   -13.7257     0.0000     2.0000 </r>
       <r>   -13.6539     0.0000     2.0000 </r>
       <r>   -13.5821     0.0000     2.0000 </r>
       <r>   -13.5104     0.0000     2.0000 </r>
       <r>   -13.4386     0.0000     2.0000 </r>
       <r>   -13.3669     0.0000     2.0000 </r>
       <r>   -13.2951     0.0000     2.0000 </r>
       <r>   -13.2233     0.0000     2.0000 </r>
       <r>   -13.1516     0.0000     2.0000 </r>
       <r>   -13.0798     0.0000     2.0000 </r>
       <r>   -13.0080     0.0000     2.0000 </r>
       <r>   -12.9363     0.0000     2.0000 </r>
       <r>   -12.8645     0.0000     2.0000 </r>
       <r>   -12.7927     0.0000     2.0000 </r>
       <r>   -12.7210     0.0000     2.0000 </r>
       <r>   -12.6492     0.0000     2.0000 </r>
       <r>   -12.5775     0.0000     2.0000 </r>
       <r>   -12.5057     0.0000     2.0000 </r>
       <r>   -12.4339     0.0000     2.0000 </r>
       <r>   -12.3622     0.0000     2.0000 </r>
       <r>   -12.2904     0.0000     2.0000 </r>
       <r>   -12.2186     0.0000     2.0000 </r>
       <r>   -12.1469     0.0000     2.0000 </r>
       <r>   -12.0751     0.0000     2.0000 </r>
       <r>   -12.0034     0.0000     2.0000 </r>
       <r>   -11.9316     0.0000     2.0000 </r>
       <r>   -11.8598     0.0000     2.0000 </r>
       <r>   -11.7881     0.0000     2.0000 </r>
       <r>   -11.7163     0.0000     2.0000 </r>
       <r>   -11.6445     0.0000     2.0000 </r>
       <r>   -11.5728     0.0000     2.0000 </r>
       <r>   -11.5010     0.0000     2.0000 </r>
       <r>   -11.4293     0.0000     2.0000 </r>
       <r>   -11.3575     0.0000     2.0000 </r>
       <r>   -11.2857    -0.0000     2.0000 </r>
       <r>   -11.2140    -0.0000     2.0000 </r>
       <r>   -11.1422    -0.0000     2.0000 </r>
       <r>   -11.0704    -0.0000     2.0000 </r>
       <r>   -10.9987    -0.0000     2.0000 </r>
       <r>   -10.9269    -0.0000     2.0000 </r>
       <r>   -10.8551    -0.0000     2.0000 </r>
       <r>   -10.7834    -0.0000     2.0000 </r>
       <r>   -10.7116    -0.0000     2.0000 </r>
       <r>   -10.6399    -0.0000     2.0000 </r>
       <r>   -10.5681    -0.0000     2.0000 </r>
       <r>   -10.4963    -0.0000     2.0000 </r>
       <r>   -10.4246    -0.0000     2.0000 </r>
       <r>   -10.3528    -0.0000     2.0000 </r>
       <r>   -10.2810    -0.0003     2.0000 </r>
       <r>   -10.2093    -0.0027     1.9998 </r>
       <r>   -10.1375    -0.0161     1.9986 </r>
       <r>   -10.0658    -0.0706     1.9936 </r>
       <r>    -9.9940    -0.2170     1.9780 </r>
       <r>    -9.9222    -0.4163     1.9481 </r>
       <r>    -9.8505    -0.2559     1.9297 </r>
       <r>    -9.7787     1.1148     2.0098 </r>
       <r>    -9.7069     4.0782     2.3024 </r>
       <r>    -9.6352     7.2279     2.8211 </r>
       <r>    -9.5634     8.0162     3.3964 </r>
       <r>    -9.4916     5.6370     3.8009 </r>
       <r>    -9.4199     2.3668     3.9708 </r>
       <r>    -9.3481     1.3009     4.0641 </r>
       <r>    -9.2764     3.3346     4.3034 </r>
       <r>    -9.2046     6.5387     4.7726 </r>
       <r>    -9.1328     8.4152     5.3766 </r>
       <r>    -9.0611     8.6766     5.9992 </r>
       <r>    -8.9893     8.7073     6.6241 </r>
       <r>    -8.9175     8.5582     7.2382 </r>
       <r>    -8.8458     6.8891     7.7326 </r>
       <r>    -8.7740     3.7676     8.0030 </r>
       <r>    -8.7023     0.9843     8.0736 </r>
       <r>    -8.6305    -0.2925     8.0526 </r>
       <r>    -8.5587    -0.4245     8.0222 </r>
       <r>    -8.4870    -0.2188     8.0065 </r>
       <r>    -8.4152    -0.0711     8.0014 </r>
       <r>    -8.3434    -0.0162     8.0002 </r>
       <r>    -8.2717    -0.0027     8.0000 </r>
       <r>    -8.1999    -0.0003     8.0000 </r>
       <r>    -8.1281    -0.0000     8.0000 </r>
       <r>    -8.0564    -0.0000     8.0000 </r>
       <r>    -7.9846    -0.0000     8.0000 </r>
       <r>    -7.9129    -0.0000     8.0000 </r>
       <r>    -7.8411    -0.0000     8.0000 </r>
       <r>    -7.7693    -0.0000     8.0000 </r>
       <r>    -7.6976    -0.0000     8.0000 </r>
       <r>    -7.6258     0.0000     8.0000 </r>
       <r>    -7.5540     0.0000     8.0000 </r>
       <r>    -7.4823     0.0000     8.0000 </r>
       <r>    -7.4105     0.0000     8.0000 </r>
       <r>    -7.3388     0.0000     8.0000 </r>
       <r>    -7.2670     0.0000     8.0000 </r>
       <r>    -7.1952     0.0000     8.0000 </r>
       <r>    -7.1235     0.0000     8.0000 </r>
       <r>    -7.0517     0.0000     8.0000 </r>
       <r>    -6.9799     0.0000     8.0000 </r>
       <r>    -6.9082     0.0000     8.0000 </r>
       <r>    -6.8364     0.0000     8.0000 </r>
       <r>    -6.7646     0.0000     8.0000 </r>
       <r>    -6.6929     0.0000     8.0000 </r>
       <r>    -6.6211     0.0000     8.0000 </r>
       <r>    -6.5494     0.0000     8.0000 </r>
       <r>    -6.4776     0.0000     8.0000 </r>
       <r>    -6.4058     0.0000     8.0000 </r>
       <r>    -6.3341     0.0000     8.0000 </r>
       <r>    -6.2623     0.0000     8.0000 </r>
       <r>    -6.1905     0.0000     8.0000 </r>
       <r>    -6.1188     0.0000     8.0000 </r>
       <r>    -6.0470     0.0000     8.0000 </r>
       <r>    -5.9753     0.0000     8.0000 </r>
       <r>    -5.9035     0.0000     8.0000 </r>
       <r>    -5.8317     0.0000     8.0000 </r>
       <r>    -5.7600     0.0000     8.0000 </r>
       <r>    -5.6882     0.0000     8.0000 </r>
       <r>    -5.6164     0.0000     8.0000 </r>
       <r>    -5.5447     0.0000     8.0000 </r>
       <r>    -5.4729     0.0000     8.0000 </r>
       <r>    -5.4012     0.0000     8.0000 </r>
       <r>    -5.3294     0.0000     8.0000 </r>
       <r>    -5.2576     0.0000     8.0000 </r>
       <r>    -5.1859     0.0000     8.0000 </r>
       <r>    -5.1141     0.0000     8.0000 </r>
       <r>    -5.0423     0.0000     8.0000 </r>
       <r>    -4.9706     0.0000     8.0000 </r>
       <r>    -4.8988     0.0000     8.0000 </r>
       <r>    -4.8270     0.0000     8.0000 </r>
       <r>    -4.7553     0.0000     8.0000 </r>
       <r>    -4.6835     0.0000     8.0000 </r>
       <r>    -4.6118     0.0000     8.0000 </r>
       <r>    -4.5400     0.0000     8.0000 </r>
       <r>    -4.4682     0.0000     8.0000 </r>
       <r>    -4.3965     0.0000     8.0000 </r>
       <r>    -4.3247     0.0000     8.0000 </r>
       <r>    -4.2529     0.0000     8.0000 </r>
       <r>    -4.1812     0.0000     8.0000 </r>
       <r>    -4.1094     0.0000     8.0000 </r>
       <r>    -4.0377     0.0000     8.0000 </r>
       <r>    -3.9659     0.0000     8.0000 </r>
       <r>    -3.8941     0.0000     8.0000 </r>
       <r>    -3.8224     0.0000     8.0000 </r>
       <r>    -3.7506     0.0000     8.0000 </r>
       <r>    -3.6788     0.0000     8.0000 </r>
       <r>    -3.6071     0.0000     8.0000 </r>
       <r>    -3.5353     0.0000     8.0000 </r>
       <r>    -3.4635     0.0000     8.0000 </r>
       <r>    -3.3918     0.0000     8.0000 </r>
       <r>    -3.3200     0.0000     8.0000 </r>
       <r>    -3.2483     0.0000     8.0000 </r>
       <r>    -3.1765     0.0000     8.0000 </r>
       <r>    -3.1047     0.0000     8.0000 </r>
       <r>    -3.0330     0.0000     8.0000 </r>
       <r>    -2.9612     0.0000     8.0000 </r>
       <r>    -2.8894     0.0000     8.0000 </r>
       <r>    -2.8177     0.0000     8.0000 </r>
       <r>    -2.7459     0.0000     8.0000 </r>
       <r>    -2.6742     0.0000     8.0000 </r>
       <r>    -2.6024     0.0000     8.0000 </r>
       <r>    -2.5306     0.0000     8.0000 </r>
       <r>    -2.4589     0.0000     8.0000 </r>
       <r>    -2.3871     0.0000     8.0000 </r>
       <r>    -2.3153     0.0000     8.0000 </r>
       <r>    -2.2436     0.0000     8.0000 </r>
       <r>    -2.1718     0.0000     8.0000 </r>
       <r>    -2.1000     0.0000     8.0000 </r>
       <r>    -2.0283     0.0000     8.0000 </r>
       <r>    -1.9565    -0.0000     8.0000 </r>
       <r>    -1.8848    -0.0000     8.0000 </r>
       <r>    -1.8130    -0.0000     8.0000 </r>
       <r>    -1.7412    -0.0000     8.0000 </r>
       <r>    -1.6695    -0.0000     8.0000 </r>
       <r>    -1.5977    -0.0000     8.0000 </r>
       <r>    -1.5259    -0.0000     8.0000 </r>
       <r>    -1.4542    -0.0000     8.0000 </r>
       <r>    -1.3824    -0.0000     8.0000 </r>
       <r>    -1.3107    -0.0000     8.0000 </r>
       <r>    -1.2389    -0.0000     8.0000 </r>
       <r>    -1.1671    -0.0000     8.0000 </r>
       <r>    -1.0954    -0.0000     8.0000 </r>
       <r>    -1.0236    -0.0002     8.0000 </r>
       <r>    -0.9518    -0.0013     7.9999 </r>
       <r>    -0.8801    -0.0090     7.9992 </r>
       <r>    -0.8083    -0.0441     7.9961 </r>
       <r>    -0.7365    -0.1544     7.9850 </r>
       <r>    -0.6648    -0.3562     7.9594 </r>
       <r>    -0.5930    -0.3997     7.9308 </r>
       <r>    -0.5213     0.4583     7.9636 </r>
       <r>    -0.4495     2.9341     8.1742 </r>
       <r>    -0.3777     6.3328     8.6287 </r>
       <r>    -0.3060     8.2840     9.2231 </r>
       <r>    -0.2342     7.0803     9.7313 </r>
       <r>    -0.1624     3.7978    10.0038 </r>
       <r>    -0.0907     0.9334    10.0708 </r>
       <r>    -0.0189    -0.3081    10.0487 </r>
       <r>     0.0528    -0.4311    10.0177 </r>
       <r>     0.1246    -0.3166     9.9950 </r>
       <r>     0.1964    -0.4169     9.9651 </r>
       <r>     0.2681    -0.7309     9.9126 </r>
       <r>     0.3399    -0.6910     9.8630 </r>
       <r>     0.4117     1.0169     9.9360 </r>
       <r>     0.4834     5.7406    10.3480 </r>
       <r>     0.5552    13.0516    11.2846 </r>
       <r>     0.6269    19.6552    12.6951 </r>
       <r>     0.6987    21.2360    14.2191 </r>
       <r>     0.7705    16.4236    15.3977 </r>
       <r>     0.8422     8.4826    16.0064 </r>
       <r>     0.9140     2.1391    16.1599 </r>
       <r>     0.9858    -0.6224    16.1153 </r>
       <r>     1.0575    -0.9142    16.0497 </r>
       <r>     1.1293    -0.4831    16.0150 </r>
       <r>     1.2011    -0.1626    16.0033 </r>
       <r>     1.2728    -0.0387    16.0006 </r>
       <r>     1.3446    -0.0068    16.0001 </r>
       <r>     1.4163    -0.0009    16.0000 </r>
       <r>     1.4881    -0.0001    16.0000 </r>
       <r>     1.5599    -0.0000    16.0000 </r>
       <r>     1.6316    -0.0000    16.0000 </r>
       <r>     1.7034    -0.0000    16.0000 </r>
       <r>     1.7752    -0.0000    16.0000 </r>
       <r>     1.8469    -0.0000    16.0000 </r>
       <r>     1.9187    -0.0000    16.0000 </r>
       <r>     1.9904    -0.0000    16.0000 </r>
       <r>     2.0622     0.0000    16.0000 </r>
       <r>     2.1340     0.0000    16.0000 </r>
       <r>     2.2057     0.0000    16.0000 </r>
       <r>     2.2775     0.0000    16.0000 </r>
       <r>     2.3493     0.0000    16.0000 </r>
       <r>     2.4210     0.0000    16.0000 </r>
       <r>     2.4928     0.0000    16.0000 </r>
       <r>     2.5646     0.0000    16.0000 </r>
       <r>     2.6363     0.0000    16.0000 </r>
       <r>     2.7081     0.0000    16.0000 </r>
      </set>
     </set>
    </array>
   </total>
  </dos>
  <time name="totalsc">   62.80   62.96</time>
 </calculation>
 <calculation>
  <scstep>
   <time name="dav">    1.54    1.54</time>
   <time name="total">    3.27    3.28</time>
   <energy>
    <i name="alphaZ">      0.24227563 </i>
    <i name="ewald">    127.94507882 </i>
    <i name="hartreedc">   -283.07685413 </i>
    <i name="XCdc">     24.66547746 </i>
    <i name="pawpsdc">    458.82031117 </i>
    <i name="pawaedc">   -459.60116908 </i>
    <i name="eentropy">      0.01179401 </i>
    <i name="bandstr">    -89.97115808 </i>
    <i name="atom">    197.04175453 </i>
    <i name="e_fr_energy">    -23.92248966 </i>
    <i name="e_wo_entrp">    -23.93428367 </i>
    <i name="e_0_energy">    -23.92642100 </i>
   </energy>
  </scstep>
  <scstep>
   <time name="diag">    0.32    0.32</time>
   <time name="diis">    1.13    1.13</time>
   <time name="orth">    0.01    0.01</time>
   <time name="total">    3.08    3.09</time>
   <energy>
    <i name="e_fr_energy">    -23.94482027 </i>
    <i name="e_wo_entrp">    -23.95646573 </i>
    <i name="e_0_energy">    -23.94870209 </i>
   </energy>
  </scstep>
  <scstep>
   <time name="diag">    0.32    0.32</time>
   <time name="diis">    1.11    1.12</time>
   <time name="orth">    0.01    0.01</time>
   <time name="total">    3.04    3.04</time>
   <energy>
    <i name="e_fr_energy">    -23.92727801 </i>
    <i name="e_wo_entrp">    -23.93903610 </i>
    <i name="e_0_energy">    -23.93119738 </i>
   </energy>
  </scstep>
  <scstep>
   <time name="diag">    0.32    0.32</time>
   <time name="diis">    1.12    1.12</time>
   <time name="orth">    0.01    0.01</time>
   <time name="total">    3.08    3.09</time>
   <energy>
    <i name="e_fr_energy">    -23.92292929 </i>
    <i name="e_wo_entrp">    -23.93475198 </i>
    <i name="e_0_energy">    -23.92687018 </i>
   </energy>
  </scstep>
  <scstep>
   <time name="diag">    0.33    0.33</time>
   <time name="diis">    1.12    1.12</time>
   <time name="orth">    0.01    0.01</time>
   <time name="total">    3.09    3.10</time>
   <energy>
    <i name="e_fr_energy">    -23.92296660 </i>
    <i name="e_wo_entrp">    -23.93478526 </i>
    <i name="e_0_energy">    -23.92690615 </i>
   </energy>
  </scstep>
  <scstep>
   <time name="diag">    0.33    0.33</time>
   <time name="diis">    1.13    1.14</time>
   <time name="orth">    0.01    0.01</time>
   <time name="total">    3.13    3.14</time>
   <energy>
    <i name="e_fr_energy">    -23.92302989 </i>
    <i name="e_wo_entrp">    -23.93482269 </i>
    <i name="e_0_energy">    -23.92696082 </i>
   </energy>
  </scstep>
  <scstep>
   <time name="diag">    0.33    0.33</time>
   <time name="diis">    1.20    1.21</time>
   <time name="orth">    0.01    0.01</time>
   <time name="total">    3.35    3.35</time>
   <energy>
    <i name="e_fr_energy">    -23.92298403 </i>
    <i name="e_wo_entrp">    -23.93476982 </i>
    <i name="e_0_energy">    -23.92691263 </i>
   </energy>
  </scstep>
  <scstep>
   <time name="diag">    0.32    0.32</time>
   <time name="diis">    1.12    1.12</time>
   <time name="orth">    0.01    0.01</time>
   <time name="total">    3.14    3.14</time>
   <energy>
    <i name="e_fr_energy">    -23.92297089 </i>
    <i name="e_wo_entrp">    -23.93475489 </i>
    <i name="e_0_energy">    -23.92689889 </i>
   </energy>
  </scstep>
  <scstep>
   <time name="diag">    0.29    0.29</time>
   <time name="diis">    1.09    1.10</time>
   <time name="orth">    0.01    0.01</time>
   <time name="total">    3.19    3.20</time>
   <energy>
    <i name="e_fr_energy">    -23.92298704 </i>
    <i name="e_wo_entrp">    -23.93476609 </i>
    <i name="e_0_energy">    -23.92691339 </i>
   </energy>
  </scstep>
  <scstep>
   <time name="diag">    0.30    0.30</time>
   <time name="diis">    1.10    1.10</time>
   <time name="orth">    0.01    0.01</time>
   <time name="total">    3.10    3.11</time>
   <energy>
    <i name="e_fr_energy">    -23.92299870 </i>
    <i name="e_wo_entrp">    -23.93477872 </i>
    <i name="e_0_energy">    -23.92692537 </i>
   </energy>
  </scstep>
  <scstep>
   <time name="diag">    0.36    0.36</time>
   <time name="diis">    1.11    1.11</time>
   <time name="orth">    0.01    0.01</time>
   <time name="total">    3.20    3.21</time>
   <energy>
    <i name="e_fr_energy">    -23.92300395 </i>
    <i name="e_wo_entrp">    -23.93478427 </i>
    <i name="e_0_energy">    -23.92693072 </i>
   </energy>
  </scstep>
  <scstep>
   <time name="diag">    0.32    0.32</time>
   <time name="diis">    0.89    0.89</time>
   <time name="orth">    0.01    0.01</time>
   <time name="total">    2.98    2.99</time>
   <energy>
    <i name="e_fr_energy">    -23.92300716 </i>
    <i name="e_wo_entrp">    -23.93478910 </i>
    <i name="e_0_energy">    -23.92693447 </i>
   </energy>
  </scstep>
  <scstep>
   <time name="diag">    0.32    0.32</time>
   <time name="diis">    1.05    1.05</time>
   <time name="orth">    0.01    0.01</time>
   <time name="total">    3.16    3.17</time>
   <energy>
    <i name="e_fr_energy">    -23.92300847 </i>
    <i name="e_wo_entrp">    -23.93479058 </i>
    <i name="e_0_energy">    -23.92693584 </i>
   </energy>
  </scstep>
  <scstep>
   <time name="diag">    0.32    0.32</time>
   <time name="diis">    0.89    0.89</time>
   <time name="orth">    0.01    0.01</time>
   <time name="total">    2.74    2.74</time>
   <energy>
    <i name="alphaZ">      0.24227563 </i>
    <i name="ewald">    127.94507882 </i>
    <i name="hartreedc">   -283.68438466 </i>
    <i name="XCdc">     24.69996437 </i>
    <i name="pawpsdc">    468.45944217 </i>
    <i name="pawaedc">   -469.24834371 </i>
    <i name="eentropy">      0.01178187 </i>
    <i name="bandstr">    -89.39057780 </i>
    <i name="atom">    197.04175453 </i>
    <i name="e_fr_energy">    -23.92300878 </i>
    <i name="e_wo_entrp">    -23.93479065 </i>
    <i name="e_0_energy">    -23.92693607 </i>
   </energy>
  </scstep>
  <structure>
   <crystal>
    <varray name="basis" >
     <v>      10.08728459       0.00000000       0.00000000 </v>
     <v>      -0.10641161      10.03660801       0.00000000 </v>
     <v>      -0.08086875      -0.03014333       9.87629913 </v>
    </varray>
    <i name="volume">    999.89747521 </i>
    <varray name="rec_basis" >
     <v>       0.09913471       0.00105106       0.00081494 </v>
     <v>      -0.00000000       0.09963526       0.00030410 </v>
     <v>       0.00000000      -0.00000000       0.10125250 </v>
    </varray>
   </crystal>
   <varray name="positions" >
    <v>       0.54219623       0.40493681       0.36441711 </v>
    <v>       0.39981164       0.48169976       0.44206129 </v>
    <v>       0.55122483       0.57132546       0.44171631 </v>
    <v>       0.52824505       0.40976217       0.53791818 </v>
    <v>       0.50254208       0.46741648       0.44498919 </v>
   </varray>
  </structure>
  <varray name="forces" >
   <v>      -0.28292066      -0.22435550      -0.09494089 </v>
   <v>      -0.91044733      -0.24661855       0.20199891 </v>
   <v>      -0.36638094      -1.35551800       0.46813216 </v>
   <v>       0.14097228       0.68321277       0.56911149 </v>
   <v>       1.57621358       0.83829413       0.97925568 </v>
  </varray>
  <varray name="stress" >
   <v>       1.08760934      -0.32891073       0.53839968 </v>
   <v>      -0.32891073      -3.38363070       0.87487236 </v>
   <v>       0.53839969       0.87487236       0.48609496 </v>
  </varray>
  <energy>
   <i name="e_fr_energy">    -23.92300878 </i>
   <i name="e_wo_entrp">    -23.92693607 </i>
   <i name="e_0_energy">      0.01178187 </i>
   <i name="kinetic">      0.02995688 </i>
   <i name="lattice kinetic">      0.00000000 </i>
   <i name="nosepot">      0.00237510 </i>
   <i name="nosekinetic">      0.00190517 </i>
   <i name="total">    -23.88877163 </i>
  </energy>
  <dos>
   <i name="efermi">     -8.64827581 </i>
   <total>
    <array>
     <dimension dim="1">gridpoints</dimension>
     <dimension dim="2">spin</dimension>
     <field>energy</field>
     <field>total</field>
     <field>integrated</field>
     <set>
      <set comment="spin 1">
       <r>   -18.8817     0.0000     0.0000 </r>
       <r>   -18.8097     0.0000     0.0000 </r>
       <r>   -18.7377     0.0000     0.0000 </r>
       <r>   -18.6657     0.0000     0.0000 </r>
       <r>   -18.5937     0.0000     0.0000 </r>
       <r>   -18.5218    -0.0000    -0.0000 </r>
       <r>   -18.4498    -0.0000    -0.0000 </r>
       <r>   -18.3778    -0.0000    -0.0000 </r>
       <r>   -18.3058    -0.0000    -0.0000 </r>
       <r>   -18.2338    -0.0000    -0.0000 </r>
       <r>   -18.1618    -0.0000    -0.0000 </r>
       <r>   -18.0899    -0.0000    -0.0000 </r>
       <r>   -18.0179    -0.0000    -0.0000 </r>
       <r>   -17.9459    -0.0000    -0.0000 </r>
       <r>   -17.8739    -0.0000    -0.0000 </r>
       <r>   -17.8019    -0.0000    -0.0000 </r>
       <r>   -17.7300    -0.0000    -0.0000 </r>
       <r>   -17.6580    -0.0000    -0.0000 </r>
       <r>   -17.5860    -0.0001    -0.0000 </r>
       <r>   -17.5140    -0.0009    -0.0001 </r>
       <r>   -17.4420    -0.0065    -0.0005 </r>
       <r>   -17.3700    -0.0340    -0.0030 </r>
       <r>   -17.2981    -0.1273    -0.0122 </r>
       <r>   -17.2261    -0.3199    -0.0352 </r>
       <r>   -17.1541    -0.4297    -0.0661 </r>
       <r>   -17.0821     0.2136    -0.0507 </r>
       <r>   -17.0101     2.4233     0.1237 </r>
       <r>   -16.9381     5.8155     0.5423 </r>
       <r>   -16.8662     8.1718     1.1305 </r>
       <r>   -16.7942     7.4594     1.6675 </r>
       <r>   -16.7222     4.3230     1.9787 </r>
       <r>   -16.6502     1.2603     2.0694 </r>
       <r>   -16.5782    -0.2167     2.0538 </r>
       <r>   -16.5063    -0.4232     2.0233 </r>
       <r>   -16.4343    -0.2278     2.0069 </r>
       <r>   -16.3623    -0.0754     2.0015 </r>
       <r>   -16.2903    -0.0174     2.0002 </r>
       <r>   -16.2183    -0.0029     2.0000 </r>
       <r>   -16.1463    -0.0004     2.0000 </r>
       <r>   -16.0744    -0.0000     2.0000 </r>
       <r>   -16.0024    -0.0000     2.0000 </r>
       <r>   -15.9304    -0.0000     2.0000 </r>
       <r>   -15.8584    -0.0000     2.0000 </r>
       <r>   -15.7864    -0.0000     2.0000 </r>
       <r>   -15.7145    -0.0000     2.0000 </r>
       <r>   -15.6425    -0.0000     2.0000 </r>
       <r>   -15.5705     0.0000     2.0000 </r>
       <r>   -15.4985     0.0000     2.0000 </r>
       <r>   -15.4265     0.0000     2.0000 </r>
       <r>   -15.3545     0.0000     2.0000 </r>
       <r>   -15.2826     0.0000     2.0000 </r>
       <r>   -15.2106     0.0000     2.0000 </r>
       <r>   -15.1386     0.0000     2.0000 </r>
       <r>   -15.0666     0.0000     2.0000 </r>
       <r>   -14.9946     0.0000     2.0000 </r>
       <r>   -14.9226     0.0000     2.0000 </r>
       <r>   -14.8507     0.0000     2.0000 </r>
       <r>   -14.7787     0.0000     2.0000 </r>
       <r>   -14.7067     0.0000     2.0000 </r>
       <r>   -14.6347     0.0000     2.0000 </r>
[...]
       <r>     0.2551    -0.6143     9.9361 </r>
       <r>     0.3274    -0.8290     9.8762 </r>
       <r>     0.3996     0.0404     9.8791 </r>
       <r>     0.4719     3.5608    10.1365 </r>
       <r>     0.5442    10.2566    10.8779 </r>
       <r>     0.6165    17.8058    12.1649 </r>
       <r>     0.6888    21.6348    13.7287 </r>
       <r>     0.7611    18.7553    15.0844 </r>
       <r>     0.8333    11.0866    15.8858 </r>
       <r>     0.9056     3.6841    16.1521 </r>
       <r>     0.9779    -0.1991    16.1377 </r>
       <r>     1.0502    -0.9959    16.0657 </r>
       <r>     1.1225    -0.6142    16.0213 </r>
       <r>     1.1947    -0.2253    16.0050 </r>
       <r>     1.2670    -0.0570    16.0009 </r>
       <r>     1.3393    -0.0105    16.0001 </r>
       <r>     1.4116    -0.0014    16.0000 </r>
       <r>     1.4839    -0.0001    16.0000 </r>
       <r>     1.5562    -0.0000    16.0000 </r>
       <r>     1.6284    -0.0000    16.0000 </r>
       <r>     1.7007    -0.0000    16.0000 </r>
       <r>     1.7730    -0.0000    16.0000 </r>
       <r>     1.8453    -0.0000    16.0000 </r>
       <r>     1.9176    -0.0000    16.0000 </r>
       <r>     1.9898    -0.0000    16.0000 </r>
       <r>     2.0621     0.0000    16.0000 </r>
       <r>     2.1344     0.0000    16.0000 </r>
       <r>     2.2067     0.0000    16.0000 </r>
       <r>     2.2790     0.0000    16.0000 </r>
       <r>     2.3513     0.0000    16.0000 </r>
       <r>     2.4235     0.0000    16.0000 </r>
       <r>     2.4958     0.0000    16.0000 </r>
       <r>     2.5681     0.0000    16.0000 </r>
       <r>     2.6404     0.0000    16.0000 </r>
       <r>     2.7127     0.0000    16.0000 </r>
      </set>
     </set>
    </array>
   </total>
  </dos>
  <time name="totalsc">   64.82   65.00</time>
  <eigenvalues>
   <array>
    <dimension dim="1">band</dimension>
    <dimension dim="2">kpoint</dimension>
    <dimension dim="3">spin</dimension>
    <field>eigene</field>
    <field>occ</field>
    <set>
     <set comment="spin 1">
      <set comment="kpoint 1">
       <r>  -16.8979    1.0000 </r>
       <r>   -9.4312    1.0062 </r>
       <r>   -9.2250    1.0293 </r>
       <r>   -9.1585    0.9647 </r>
       <r>   -0.3112    0.0000 </r>
       <r>    0.5596    0.0000 </r>
       <r>    0.6659    0.0000 </r>
       <r>    0.7064    0.0000 </r>
      </set>
      <set comment="kpoint 2">
       <r>  -16.8978    1.0000 </r>
       <r>   -9.4311    1.0062 </r>
       <r>   -9.2249    1.0293 </r>
       <r>   -9.1584    0.9644 </r>
       <r>   -0.3148    0.0000 </r>
       <r>    0.5647    0.0000 </r>
       <r>    0.6783    0.0000 </r>
       <r>    0.7045    0.0000 </r>
      </set>
      <set comment="kpoint 3">
       <r>  -16.8978    1.0000 </r>
       <r>   -9.4311    1.0062 </r>
       <r>   -9.2249    1.0292 </r>
       <r>   -9.1584    0.9645 </r>
       <r>   -0.3133    0.0000 </r>
       <r>    0.5537    0.0000 </r>
       <r>    0.6778    0.0000 </r>
       <r>    0.7128    0.0000 </r>
      </set>
      <set comment="kpoint 4">
       <r>  -16.8979    1.0000 </r>
       <r>   -9.4311    1.0062 </r>
       <r>   -9.2251    1.0293 </r>
       <r>   -9.1585    0.9646 </r>
       <r>   -0.3136    0.0000 </r>
       <r>    0.5672    0.0000 </r>
       <r>    0.6649    0.0000 </r>
       <r>    0.7115    0.0000 </r>
      </set>
     </set>
    </set>
   </array>
  </eigenvalues>
  <separator name="orbital magnetization" >
   <v name="MAGDIPOLOUT">      0.00000000      0.00000000      0.00000000</v>
  </separator>
  <dos>
   <i name="efermi">     -9.01572610 </i>
   <total>
    <array>
     <dimension dim="1">gridpoints</dimension>
     <dimension dim="2">spin</dimension>
     <field>energy</field>
     <field>total</field>
     <field>integrated</field>
     <set>
      <set comment="spin 1">
       <r>   -18.8979     0.0000     0.0000 </r>
       <r>   -18.8258     0.0000     0.0000 </r>
       <r>   -18.7538     0.0000     0.0000 </r>
       <r>   -18.6818     0.0000     0.0000 </r>
       <r>   -18.6097     0.0000     0.0000 </r>
       <r>   -18.5377    -0.0000    -0.0000 </r>
       <r>   -18.4657    -0.0000    -0.0000 </r>
       <r>   -18.3936    -0.0000    -0.0000 </r>
       <r>   -18.3216    -0.0000    -0.0000 </r>
       <r>   -18.2496    -0.0000    -0.0000 </r>
       <r>   -18.1775    -0.0000    -0.0000 </r>
       <r>   -18.1055    -0.0000    -0.0000 </r>
       <r>   -18.0335    -0.0000    -0.0000 </r>
       <r>   -17.9614    -0.0000    -0.0000 </r>
       <r>   -17.8894    -0.0000    -0.0000 </r>
       <r>   -17.8173    -0.0000    -0.0000 </r>
       <r>   -17.7453    -0.0000    -0.0000 </r>
       <r>   -17.6733    -0.0000    -0.0000 </r>
       <r>   -17.6012    -0.0001    -0.0000 </r>
       <r>   -17.5292    -0.0009    -0.0001 </r>
       <r>   -17.4572    -0.0067    -0.0006 </r>
       <r>   -17.3851    -0.0348    -0.0031 </r>
       <r>   -17.3131    -0.1297    -0.0124 </r>
       <r>   -17.2411    -0.3235    -0.0357 </r>
       <r>   -17.1690    -0.4276    -0.0665 </r>
       <r>   -17.0970     0.2384    -0.0493 </r>
       <r>   -17.0250     2.4814     0.1294 </r>
       <r>   -16.9529     5.8811     0.5531 </r>
       <r>   -16.8809     8.1910     1.1431 </r>
       <r>   -16.8088     7.4102     1.6769 </r>
       <r>   -16.7368     4.2458     1.9828 </r>
       <r>   -16.6648     1.2076     2.0697 </r>
       <r>   -16.5927    -0.2325     2.0530 </r>
       <r>   -16.5207    -0.4203     2.0227 </r>
       <r>   -16.4487    -0.2227     2.0067 </r>
       <r>   -16.3766    -0.0729     2.0014 </r>
       <r>   -16.3046    -0.0166     2.0002 </r>
       <r>   -16.2326    -0.0028     2.0000 </r>
       <r>   -16.1605    -0.0003     2.0000 </r>
       <r>   -16.0885    -0.0000     2.0000 </r>
       <r>   -16.0165    -0.0000     2.0000 </r>
       <r>   -15.9444    -0.0000     2.0000 </r>
       <r>   -15.8724    -0.0000     2.0000 </r>
       <r>   -15.8003    -0.0000     2.0000 </r>
       <r>   -15.7283    -0.0000     2.0000 </r>
       <r>   -15.6563    -0.0000     2.0000 </r>
       <r>   -15.5842     0.0000     2.0000 </r>
       <r>   -15.5122     0.0000     2.0000 </r>
       <r>   -15.4402     0.0000     2.0000 </r>
       <r>   -15.3681     0.0000     2.0000 </r>
       <r>   -15.2961     0.0000     2.0000 </r>
       <r>   -15.2241     0.0000     2.0000 </r>
       <r>   -15.1520     0.0000     2.0000 </r>
       <r>   -15.0800     0.0000     2.0000 </r>
       <r>   -15.0080     0.0000     2.0000 </r>
       <r>   -14.9359     0.0000     2.0000 </r>
       <r>   -14.8639     0.0000     2.0000 </r>
       <r>   -14.7918     0.0000     2.0000 </r>
       <r>   -14.7198     0.0000     2.0000 </r>
       <r>   -14.6478     0.0000     2.0000 </r>
       <r>   -14.5757     0.0000     2.0000 </r>
       <r>   -14.5037     0.0000     2.0000 </r>
       <r>   -14.4317     0.0000     2.0000 </r>
       <r>   -14.3596     0.0000     2.0000 </r>
       <r>   -14.2876     0.0000     2.0000 </r>
       <r>   -14.2156     0.0000     2.0000 </r>
       <r>   -14.1435     0.0000     2.0000 </r>
       <r>   -14.0715     0.0000     2.0000 </r>
       <r>   -13.9995     0.0000     2.0000 </r>
       <r>   -13.9274     0.0000     2.0000 </r>
       <r>   -13.8554     0.0000     2.0000 </r>
       <r>   -13.7834     0.0000     2.0000 </r>
       <r>   -13.7113     0.0000     2.0000 </r>
       <r>   -13.6393     0.0000     2.0000 </r>
       <r>   -13.5672     0.0000     2.0000 </r>
       <r>   -13.4952     0.0000     2.0000 </r>
       <r>   -13.4232     0.0000     2.0000 </r>
       <r>   -13.3511     0.0000     2.0000 </r>
       <r>   -13.2791     0.0000     2.0000 </r>
       <r>   -13.2071     0.0000     2.0000 </r>
       <r>   -13.1350     0.0000     2.0000 </r>
       <r>   -13.0630     0.0000     2.0000 </r>
       <r>   -12.9910     0.0000     2.0000 </r>
       <r>   -12.9189     0.0000     2.0000 </r>
       <r>   -12.8469     0.0000     2.0000 </r>
       <r>   -12.7749     0.0000     2.0000 </r>
       <r>   -12.7028     0.0000     2.0000 </r>
       <r>   -12.6308     0.0000     2.0000 </r>
       <r>   -12.5587     0.0000     2.0000 </r>
       <r>   -12.4867     0.0000     2.0000 </r>
       <r>   -12.4147     0.0000     2.0000 </r>
       <r>   -12.3426     0.0000     2.0000 </r>
       <r>   -12.2706     0.0000     2.0000 </r>
       <r>   -12.1986     0.0000     2.0000 </r>
       <r>   -12.1265     0.0000     2.0000 </r>
       <r>   -12.0545     0.0000     2.0000 </r>
       <r>   -11.9825     0.0000     2.0000 </r>
       <r>   -11.9104     0.0000     2.0000 </r>
       <r>   -11.8384     0.0000     2.0000 </r>
       <r>   -11.7664     0.0000     2.0000 </r>
       <r>   -11.6943     0.0000     2.0000 </r>
       <r>   -11.6223     0.0000     2.0000 </r>
       <r>   -11.5502     0.0000     2.0000 </r>
       <r>   -11.4782     0.0000     2.0000 </r>
       <r>   -11.4062     0.0000     2.0000 </r>
       <r>   -11.3341     0.0000     2.0000 </r>
       <r>   -11.2621     0.0000     2.0000 </r>
       <r>   -11.1901     0.0000     2.0000 </r>
       <r>   -11.1180     0.0000     2.0000 </r>
       <r>   -11.0460    -0.0000     2.0000 </r>
       <r>   -10.9740    -0.0000     2.0000 </r>
       <r>   -10.9019    -0.0000     2.0000 </r>
       <r>   -10.8299    -0.0000     2.0000 </r>
       <r>   -10.7579    -0.0000     2.0000 </r>
       <r>   -10.6858    -0.0000     2.0000 </r>
       <r>   -10.6138    -0.0000     2.0000 </r>
       <r>   -10.5417    -0.0000     2.0000 </r>
       <r>   -10.4697    -0.0000     2.0000 </r>
       <r>   -10.3977    -0.0000     2.0000 </r>
       <r>   -10.3256    -0.0000     2.0000 </r>
       <r>   -10.2536    -0.0000     2.0000 </r>
       <r>   -10.1816    -0.0000     2.0000 </r>
       <r>   -10.1095    -0.0002     2.0000 </r>
       <r>   -10.0375    -0.0019     1.9998 </r>
       <r>    -9.9655    -0.0123     1.9990 </r>
       <r>    -9.8934    -0.0575     1.9948 </r>
       <r>    -9.8214    -0.1903     1.9811 </r>
       <r>    -9.7494    -0.4112     1.9515 </r>
       <r>    -9.6773    -0.4188     1.9213 </r>
       <r>    -9.6053     0.5278     1.9593 </r>
       <r>    -9.5332     2.9697     2.1733 </r>
       <r>    -9.4612     6.2609     2.6243 </r>
       <r>    -9.3892     9.1982     3.2869 </r>
       <r>    -9.3171    11.8391     4.1397 </r>
       <r>    -9.2451    14.7254     5.2004 </r>
       <r>    -9.1731    16.2289     6.3695 </r>
       <r>    -9.1010    13.7938     7.3632 </r>
       <r>    -9.0290     8.0277     7.9414 </r>
       <r>    -8.9570     2.5238     8.1232 </r>
       <r>    -8.8849    -0.2722     8.1036 </r>
       <r>    -8.8129    -0.7735     8.0479 </r>
       <r>    -8.7409    -0.4541     8.0152 </r>
       <r>    -8.6688    -0.1622     8.0035 </r>
       <r>    -8.5968    -0.0404     8.0006 </r>
       <r>    -8.5247    -0.0073     8.0001 </r>
       <r>    -8.4527    -0.0010     8.0000 </r>
       <r>    -8.3807    -0.0001     8.0000 </r>
       <r>    -8.3086    -0.0000     8.0000 </r>
       <r>    -8.2366    -0.0000     8.0000 </r>
       <r>    -8.1646    -0.0000     8.0000 </r>
       <r>    -8.0925    -0.0000     8.0000 </r>
       <r>    -8.0205    -0.0000     8.0000 </r>
       <r>    -7.9485    -0.0000     8.0000 </r>
       <r>    -7.8764    -0.0000     8.0000 </r>
       <r>    -7.8044     0.0000     8.0000 </r>
       <r>    -7.7324     0.0000     8.0000 </r>
       <r>    -7.6603     0.0000     8.0000 </r>
       <r>    -7.5883     0.0000     8.0000 </r>
       <r>    -7.5163     0.0000     8.0000 </r>
       <r>    -7.4442     0.0000     8.0000 </r>
       <r>    -7.3722     0.0000     8.0000 </r>
       <r>    -7.3001     0.0000     8.0000 </r>
       <r>    -7.2281     0.0000     8.0000 </r>
       <r>    -7.1561     0.0000     8.0000 </r>
       <r>    -7.0840     0.0000     8.0000 </r>
       <r>    -7.0120     0.0000     8.0000 </r>
       <r>    -6.9400     0.0000     8.0000 </r>
       <r>    -6.8679     0.0000     8.0000 </r>
       <r>    -6.7959     0.0000     8.0000 </r>
       <r>    -6.7239     0.0000     8.0000 </r>
       <r>    -6.6518     0.0000     8.0000 </r>
       <r>    -6.5798     0.0000     8.0000 </r>
       <r>    -6.5078     0.0000     8.0000 </r>
       <r>    -6.4357     0.0000     8.0000 </r>
       <r>    -6.3637     0.0000     8.0000 </r>
       <r>    -6.2916     0.0000     8.0000 </r>
       <r>    -6.2196     0.0000     8.0000 </r>
       <r>    -6.1476     0.0000     8.0000 </r>
       <r>    -6.0755     0.0000     8.0000 </r>
       <r>    -6.0035     0.0000     8.0000 </r>
       <r>    -5.9315     0.0000     8.0000 </r>
       <r>    -5.8594     0.0000     8.0000 </r>
       <r>    -5.7874     0.0000     8.0000 </r>
       <r>    -5.7154     0.0000     8.0000 </r>
       <r>    -5.6433     0.0000     8.0000 </r>
       <r>    -5.5713     0.0000     8.0000 </r>
       <r>    -5.4993     0.0000     8.0000 </r>
       <r>    -5.4272     0.0000     8.0000 </r>
       <r>    -5.3552     0.0000     8.0000 </r>
       <r>    -5.2831     0.0000     8.0000 </r>
       <r>    -5.2111     0.0000     8.0000 </r>
       <r>    -5.1391     0.0000     8.0000 </r>
       <r>    -5.0670     0.0000     8.0000 </r>
       <r>    -4.9950     0.0000     8.0000 </r>
       <r>    -4.9230     0.0000     8.0000 </r>
       <r>    -4.8509     0.0000     8.0000 </r>
       <r>    -4.7789     0.0000     8.0000 </r>
       <r>    -4.7069     0.0000     8.0000 </r>
       <r>    -4.6348     0.0000     8.0000 </r>
       <r>    -4.5628     0.0000     8.0000 </r>
       <r>    -4.4908     0.0000     8.0000 </r>
       <r>    -4.4187     0.0000     8.0000 </r>
       <r>    -4.3467     0.0000     8.0000 </r>
       <r>    -4.2746     0.0000     8.0000 </r>
       <r>    -4.2026     0.0000     8.0000 </r>
       <r>    -4.1306     0.0000     8.0000 </r>
       <r>    -4.0585     0.0000     8.0000 </r>
       <r>    -3.9865     0.0000     8.0000 </r>
       <r>    -3.9145     0.0000     8.0000 </r>
       <r>    -3.8424     0.0000     8.0000 </r>
       <r>    -3.7704     0.0000     8.0000 </r>
       <r>    -3.6984     0.0000     8.0000 </r>
       <r>    -3.6263     0.0000     8.0000 </r>
       <r>    -3.5543     0.0000     8.0000 </r>
       <r>    -3.4823     0.0000     8.0000 </r>
       <r>    -3.4102     0.0000     8.0000 </r>
       <r>    -3.3382     0.0000     8.0000 </r>
       <r>    -3.2661     0.0000     8.0000 </r>
       <r>    -3.1941     0.0000     8.0000 </r>
       <r>    -3.1221     0.0000     8.0000 </r>
       <r>    -3.0500     0.0000     8.0000 </r>
       <r>    -2.9780     0.0000     8.0000 </r>
       <r>    -2.9060     0.0000     8.0000 </r>
       <r>    -2.8339     0.0000     8.0000 </r>
       <r>    -2.7619     0.0000     8.0000 </r>
       <r>    -2.6899     0.0000     8.0000 </r>
       <r>    -2.6178     0.0000     8.0000 </r>
       <r>    -2.5458     0.0000     8.0000 </r>
       <r>    -2.4738     0.0000     8.0000 </r>
       <r>    -2.4017     0.0000     8.0000 </r>
       <r>    -2.3297     0.0000     8.0000 </r>
       <r>    -2.2577     0.0000     8.0000 </r>
       <r>    -2.1856     0.0000     8.0000 </r>
       <r>    -2.1136     0.0000     8.0000 </r>
       <r>    -2.0415     0.0000     8.0000 </r>
       <r>    -1.9695    -0.0000     8.0000 </r>
       <r>    -1.8975    -0.0000     8.0000 </r>
       <r>    -1.8254    -0.0000     8.0000 </r>
       <r>    -1.7534    -0.0000     8.0000 </r>
       <r>    -1.6814    -0.0000     8.0000 </r>
       <r>    -1.6093    -0.0000     8.0000 </r>
       <r>    -1.5373    -0.0000     8.0000 </r>
       <r>    -1.4653    -0.0000     8.0000 </r>
       <r>    -1.3932    -0.0000     8.0000 </r>
       <r>    -1.3212    -0.0000     8.0000 </r>
       <r>    -1.2492    -0.0000     8.0000 </r>
       <r>    -1.1771    -0.0000     8.0000 </r>
       <r>    -1.1051    -0.0000     8.0000 </r>
       <r>    -1.0330    -0.0001     8.0000 </r>
       <r>    -0.9610    -0.0006     8.0000 </r>
       <r>    -0.8890    -0.0044     7.9996 </r>
       <r>    -0.8169    -0.0246     7.9979 </r>
       <r>    -0.7449    -0.0992     7.9907 </r>
       <r>    -0.6729    -0.2738     7.9710 </r>
       <r>    -0.6008    -0.4386     7.9394 </r>
       <r>    -0.5288    -0.0313     7.9371 </r>
       <r>    -0.4568     1.8195     8.0682 </r>
       <r>    -0.3847     5.1002     8.4356 </r>
       <r>    -0.3127     7.8965     9.0044 </r>
       <r>    -0.2407     7.8721     9.5715 </r>
       <r>    -0.1686     5.0493     9.9352 </r>
       <r>    -0.0966     1.7796    10.0634 </r>
       <r>    -0.0245    -0.0493    10.0599 </r>
       <r>     0.0475    -0.4596    10.0268 </r>
       <r>     0.1195    -0.3653    10.0005 </r>
       <r>     0.1916    -0.4002     9.9716 </r>
       <r>     0.2636    -0.6777     9.9228 </r>
       <r>     0.3356    -0.7367     9.8697 </r>
       <r>     0.4077     0.6234     9.9146 </r>
       <r>     0.4797     4.8039    10.2607 </r>
       <r>     0.5517    11.7644    11.1081 </r>
       <r>     0.6238    18.7102    12.4559 </r>
       <r>     0.6958    21.3169    13.9915 </r>
       <r>     0.7678    17.4674    15.2498 </r>
       <r>     0.8399     9.7073    15.9491 </r>
       <r>     0.9119     2.8754    16.1562 </r>
       <r>     0.9840    -0.4213    16.1259 </r>
       <r>     1.0560    -0.9536    16.0572 </r>
       <r>     1.1280    -0.5449    16.0179 </r>
       <r>     1.2001    -0.1918    16.0041 </r>
       <r>     1.2721    -0.0471    16.0007 </r>
       <r>     1.3441    -0.0084    16.0001 </r>
       <r>     1.4162    -0.0011    16.0000 </r>
       <r>     1.4882    -0.0001    16.0000 </r>
       <r>     1.5602    -0.0000    16.0000 </r>
       <r>     1.6323    -0.0000    16.0000 </r>
       <r>     1.7043    -0.0000    16.0000 </r>
       <r>     1.7763    -0.0000    16.0000 </r>
       <r>     1.8484    -0.0000    16.0000 </r>
       <r>     1.9204    -0.0000    16.0000 </r>
       <r>     1.9925    -0.0000    16.0000 </r>
       <r>     2.0645     0.0000    16.0000 </r>
       <r>     2.1365     0.0000    16.0000 </r>
       <r>     2.2086     0.0000    16.0000 </r>
       <r>     2.2806     0.0000    16.0000 </r>
       <r>     2.3526     0.0000    16.0000 </r>
       <r>     2.4247     0.0000    16.0000 </r>
       <r>     2.4967     0.0000    16.0000 </r>
       <r>     2.5687     0.0000    16.0000 </r>
       <r>     2.6408     0.0000    16.0000 </r>
       <r>     2.7128     0.0000    16.0000 </r>
      </set>
     </set>
    </array>
   </total>
  </dos>
 </calculation>
 <structure name="finalpos" >
  <crystal>
   <varray name="basis" >
    <v>      10.08728459       0.00000000       0.00000000 </v>
    <v>      -0.10641161      10.03660801       0.00000000 </v>
    <v>      -0.08086875      -0.03014333       9.87629913 </v>
   </varray>
   <i name="volume">    999.89747521 </i>
   <varray name="rec_basis" >
    <v>       0.09913471       0.00105106       0.00081494 </v>
    <v>      -0.00000000       0.09963526       0.00030410 </v>
    <v>       0.00000000      -0.00000000       0.10125250 </v>
   </varray>
  </crystal>
  <varray name="positions" >
   <v>       0.54206479       0.40052225       0.36718764 </v>
   <v>       0.39682928       0.47678840       0.43044340 </v>
   <v>       0.55079798       0.56241773       0.42726717 </v>
   <v>       0.53285387       0.42733798       0.54651266 </v>
   <v>       0.50245314       0.46747125       0.44621324 </v>
  </varray>
  <varray name="velocities" >
   <v>       0.00089474      -0.00088979       0.00235454 </v>
   <v>      -0.00143515       0.00094015      -0.00282818 </v>
   <v>       0.00183792      -0.00009822      -0.00533425 </v>
   <v>       0.00229908      -0.00054842       0.00083566 </v>
   <v>      -0.00029944       0.00004965       0.00041397 </v>
  </varray>
 </structure>
</modeling>
