unknown system                          
           1
    10.087285    0.000000    0.000000
    -0.106412   10.036608    0.000000
    -0.080869   -0.030143    9.876299
   H    C 
   4   1
Direct configuration=     1
   0.53828028  0.40657508  0.36068362
   0.39511269  0.48017744  0.43913737
   0.55193062  0.56540240  0.44253606
   0.52759256  0.41675542  0.53863739
   0.50325489  0.46731773  0.44541534
Direct configuration=     2
   0.54024653  0.40641259  0.36251986
   0.39856808  0.48136545  0.44057304
   0.55218367  0.57027896  0.44093021
   0.52884840  0.41097908  0.54090415
   0.50267787  0.46730726  0.44508790
Direct configuration=     3
   0.54219623  0.40493681  0.36441711
   0.39981164  0.48169976  0.44206129
   0.55122483  0.57132546  0.44171631
   0.52824505  0.40976217  0.53791818
   0.50254208  0.46741648  0.44498919
Direct configuration=     4
   0.54296932  0.40272449  0.36538193
   0.39754261  0.48116285  0.44377238
   0.54883343  0.56728191  0.44377065
   0.52819549  0.41124677  0.53670123
   0.50286985  0.46785843  0.44469668
Direct configuration=     5
   0.54151978  0.40141963  0.36642854
   0.39468287  0.48009832  0.44320629
   0.54764033  0.56533287  0.44723269
   0.52786133  0.41520520  0.53770992
   0.50335578  0.46788840  0.44428446
Direct configuration=     6
   0.54009018  0.40047697  0.36510617
   0.39271899  0.47935291  0.44151897
   0.54701923  0.56860348  0.44862063
   0.52820451  0.41900850  0.54278949
   0.50366145  0.46743999  0.44399657
Direct configuration=     7
   0.53940268  0.40172388  0.36479401
   0.39270658  0.47816408  0.43956725
   0.54809445  0.57165830  0.44705226
   0.52780663  0.42363692  0.54317008
   0.50366333  0.46679547  0.44428394
Direct configuration=     8
   0.53926077  0.40256560  0.36478828
   0.39442741  0.47709586  0.43628164
   0.54838337  0.56915308  0.44315204
   0.52847478  0.42635767  0.54064373
   0.50345219  0.46679638  0.44509303
Direct configuration=     9
   0.54005379  0.40244975  0.36445795
   0.39755278  0.47555217  0.43532538
   0.54822721  0.56458300  0.43865846
   0.52938642  0.42795127  0.54089315
   0.50306306  0.46718236  0.44555350
Direct configuration=    10
   0.54117005  0.40141205  0.36483310
   0.39826443  0.47584825  0.43327158
   0.54896006  0.56251595  0.43260142
   0.53055480  0.42788640  0.54567700
   0.50275258  0.46742161  0.44579926
