   5   5   0****
  0.1916137E+03  0.9702527E-09  0.1004140E-08  0.9841486E-09  0.2000000E-14
   50.000000000000000     
  CAR 
 unknown system                          
      2.73144786    -18.98990200  301     -9.15274423      1.00000000
    -18.990  0.0000E+00  0.0000E+00
    -18.917  0.0000E+00  0.0000E+00
    -18.845  0.0000E+00  0.0000E+00
    -18.773  0.0000E+00  0.0000E+00
    -18.700  0.0000E+00  0.0000E+00
    -18.628 -0.4727E-27 -0.3423E-28
    -18.555 -0.1486E-24 -0.1079E-25
    -18.483 -0.3594E-22 -0.2613E-23
    -18.411 -0.6670E-20 -0.4856E-21
    -18.338 -0.9497E-18 -0.6925E-19
    -18.266 -0.1037E-15 -0.7577E-17
    -18.193 -0.8677E-14 -0.6358E-15
    -18.121 -0.5393E-12 -0.3968E-13
    -18.049 -0.2632E-10 -0.1946E-11
    -17.976 -0.9821E-09 -0.7305E-10
    -17.904 -0.2794E-07 -0.2096E-08
    -17.831 -0.6051E-06 -0.4590E-07
    -17.759 -0.9942E-05 -0.7658E-06
    -17.687 -0.1235E-03 -0.9706E-05
    -17.614 -0.1152E-02 -0.9311E-04
    -17.542 -0.7997E-02 -0.6721E-03
    -17.469 -0.4065E-01 -0.3615E-02
    -17.397 -0.1466E+00 -0.1423E-01
    -17.325 -0.3480E+00 -0.3943E-01
    -17.252 -0.4065E+00 -0.6886E-01
    -17.180  0.4245E+00 -0.3812E-01
    -17.107  0.2893E+01  0.1714E+00
    -17.035  0.6320E+01  0.6290E+00
    -16.963  0.8284E+01  0.1229E+01
    -16.890  0.7042E+01  0.1739E+01
    -16.818  0.3719E+01  0.2008E+01
    -16.745  0.8697E+00  0.2071E+01
    -16.673 -0.3227E+00  0.2048E+01
    -16.601 -0.3954E+00  0.2019E+01
    -16.528 -0.1893E+00  0.2005E+01
    -16.456 -0.5759E-01  0.2001E+01
    -16.383 -0.1228E-01  0.2000E+01
    -16.311 -0.1906E-02  0.2000E+01
    -16.239 -0.2194E-03  0.2000E+01
    -16.166 -0.1894E-04  0.2000E+01
    -16.094 -0.1234E-05  0.2000E+01
    -16.021 -0.6097E-07  0.2000E+01
    -15.949 -0.2291E-08  0.2000E+01
    -15.877 -0.6562E-10  0.2000E+01
    -15.804 -0.1435E-11  0.2000E+01
    -15.732 -0.2453E-13  0.2000E+01
    -15.659  0.0000E+00  0.2000E+01
    -15.587  0.0000E+00  0.2000E+01
    -15.514  0.0000E+00  0.2000E+01
    -15.442  0.0000E+00  0.2000E+01
    -15.370  0.0000E+00  0.2000E+01
    -15.297  0.0000E+00  0.2000E+01
    -15.225  0.0000E+00  0.2000E+01
    -15.152  0.0000E+00  0.2000E+01
    -15.080  0.0000E+00  0.2000E+01
    -15.008  0.0000E+00  0.2000E+01
    -14.935  0.0000E+00  0.2000E+01
    -14.863  0.0000E+00  0.2000E+01
    -14.790  0.0000E+00  0.2000E+01
    -14.718  0.0000E+00  0.2000E+01
    -14.646  0.0000E+00  0.2000E+01
    -14.573  0.0000E+00  0.2000E+01
    -14.501  0.0000E+00  0.2000E+01
    -14.428  0.0000E+00  0.2000E+01
    -14.356  0.0000E+00  0.2000E+01
    -14.284  0.0000E+00  0.2000E+01
    -14.211  0.0000E+00  0.2000E+01
    -14.139  0.0000E+00  0.2000E+01
    -14.066  0.0000E+00  0.2000E+01
    -13.994  0.0000E+00  0.2000E+01
    -13.922  0.0000E+00  0.2000E+01
    -13.849  0.0000E+00  0.2000E+01
    -13.777  0.0000E+00  0.2000E+01
    -13.704  0.0000E+00  0.2000E+01
    -13.632  0.0000E+00  0.2000E+01
    -13.560  0.0000E+00  0.2000E+01
    -13.487  0.0000E+00  0.2000E+01
    -13.415  0.0000E+00  0.2000E+01
    -13.342  0.0000E+00  0.2000E+01
    -13.270  0.0000E+00  0.2000E+01
    -13.198  0.0000E+00  0.2000E+01
    -13.125  0.0000E+00  0.2000E+01
    -13.053  0.0000E+00  0.2000E+01
    -12.980  0.0000E+00  0.2000E+01
    -12.908  0.0000E+00  0.2000E+01
    -12.836  0.0000E+00  0.2000E+01
    -12.763  0.0000E+00  0.2000E+01
    -12.691  0.0000E+00  0.2000E+01
    -12.618  0.0000E+00  0.2000E+01
    -12.546  0.0000E+00  0.2000E+01
    -12.473  0.0000E+00  0.2000E+01
    -12.401  0.0000E+00  0.2000E+01
    -12.329  0.0000E+00  0.2000E+01
    -12.256  0.0000E+00  0.2000E+01
    -12.184  0.0000E+00  0.2000E+01
    -12.111  0.0000E+00  0.2000E+01
    -12.039  0.0000E+00  0.2000E+01
    -11.967  0.0000E+00  0.2000E+01
    -11.894  0.0000E+00  0.2000E+01
    -11.822  0.0000E+00  0.2000E+01
    -11.749  0.0000E+00  0.2000E+01
    -11.677  0.0000E+00  0.2000E+01
    -11.605  0.0000E+00  0.2000E+01
    -11.532  0.0000E+00  0.2000E+01
    -11.460  0.0000E+00  0.2000E+01
    -11.387  0.0000E+00  0.2000E+01
    -11.315  0.0000E+00  0.2000E+01
    -11.243  0.0000E+00  0.2000E+01
    -11.170  0.0000E+00  0.2000E+01
    -11.098  0.0000E+00  0.2000E+01
    -11.025 -0.7133E-27  0.2000E+01
    -10.953 -0.2206E-24  0.2000E+01
    -10.881 -0.5243E-22  0.2000E+01
    -10.808 -0.9564E-20  0.2000E+01
    -10.736 -0.1339E-17  0.2000E+01
    -10.663 -0.1438E-15  0.2000E+01
    -10.591 -0.1185E-13  0.2000E+01
    -10.519 -0.7252E-12  0.2000E+01
    -10.446 -0.3494E-10  0.2000E+01
    -10.374 -0.1289E-08  0.2000E+01
    -10.301 -0.3636E-07  0.2000E+01
    -10.229 -0.7832E-06  0.2000E+01
    -10.157 -0.1287E-04  0.2000E+01
    -10.084 -0.1609E-03  0.2000E+01
    -10.012 -0.1526E-02  0.2000E+01
     -9.939 -0.1091E-01  0.1999E+01
     -9.867 -0.5826E-01  0.1995E+01
     -9.795 -0.2278E+00  0.1978E+01
     -9.722 -0.6231E+00  0.1933E+01
     -9.650 -0.1038E+01  0.1858E+01
     -9.577 -0.3070E+00  0.1836E+01
     -9.505  0.3658E+01  0.2101E+01
     -9.433  0.1165E+02  0.2944E+01
     -9.360  0.2024E+02  0.4410E+01
     -9.288  0.2327E+02  0.6094E+01
     -9.215  0.1810E+02  0.7405E+01
     -9.143  0.8924E+01  0.8051E+01
     -9.070  0.1856E+01  0.8185E+01
     -8.998 -0.9071E+00  0.8120E+01
     -8.926 -0.9997E+00  0.8047E+01
     -8.853 -0.4729E+00  0.8013E+01
     -8.781 -0.1447E+00  0.8003E+01
     -8.708 -0.3131E-01  0.8000E+01
     -8.636 -0.4958E-02  0.8000E+01
     -8.564 -0.5846E-03  0.8000E+01
     -8.491 -0.5181E-04  0.8000E+01
     -8.419 -0.3473E-05  0.8000E+01
     -8.346 -0.1768E-06  0.8000E+01
     -8.274 -0.6852E-08  0.8000E+01
     -8.202 -0.2026E-09  0.8000E+01
     -8.129 -0.4572E-11  0.8000E+01
     -8.057 -0.8587E-13  0.8000E+01
     -7.984  0.0000E+00  0.8000E+01
     -7.912  0.0000E+00  0.8000E+01
     -7.840  0.0000E+00  0.8000E+01
     -7.767  0.0000E+00  0.8000E+01
     -7.695  0.0000E+00  0.8000E+01
     -7.622  0.0000E+00  0.8000E+01
     -7.550  0.0000E+00  0.8000E+01
     -7.478  0.0000E+00  0.8000E+01
     -7.405  0.0000E+00  0.8000E+01
     -7.333  0.0000E+00  0.8000E+01
     -7.260  0.0000E+00  0.8000E+01
     -7.188  0.0000E+00  0.8000E+01
     -7.116  0.0000E+00  0.8000E+01
     -7.043  0.0000E+00  0.8000E+01
     -6.971  0.0000E+00  0.8000E+01
     -6.898  0.0000E+00  0.8000E+01
     -6.826  0.0000E+00  0.8000E+01
     -6.754  0.0000E+00  0.8000E+01
     -6.681  0.0000E+00  0.8000E+01
     -6.609  0.0000E+00  0.8000E+01
     -6.536  0.0000E+00  0.8000E+01
     -6.464  0.0000E+00  0.8000E+01
     -6.392  0.0000E+00  0.8000E+01
     -6.319  0.0000E+00  0.8000E+01
     -6.247  0.0000E+00  0.8000E+01
     -6.174  0.0000E+00  0.8000E+01
     -6.102  0.0000E+00  0.8000E+01
     -6.029  0.0000E+00  0.8000E+01
     -5.957  0.0000E+00  0.8000E+01
     -5.885  0.0000E+00  0.8000E+01
     -5.812  0.0000E+00  0.8000E+01
     -5.740  0.0000E+00  0.8000E+01
     -5.667  0.0000E+00  0.8000E+01
     -5.595  0.0000E+00  0.8000E+01
     -5.523  0.0000E+00  0.8000E+01
     -5.450  0.0000E+00  0.8000E+01
     -5.378  0.0000E+00  0.8000E+01
     -5.305  0.0000E+00  0.8000E+01
     -5.233  0.0000E+00  0.8000E+01
     -5.161  0.0000E+00  0.8000E+01
     -5.088  0.0000E+00  0.8000E+01
     -5.016  0.0000E+00  0.8000E+01
     -4.943  0.0000E+00  0.8000E+01
     -4.871  0.0000E+00  0.8000E+01
     -4.799  0.0000E+00  0.8000E+01
     -4.726  0.0000E+00  0.8000E+01
     -4.654  0.0000E+00  0.8000E+01
     -4.581  0.0000E+00  0.8000E+01
     -4.509  0.0000E+00  0.8000E+01
     -4.437  0.0000E+00  0.8000E+01
     -4.364  0.0000E+00  0.8000E+01
     -4.292  0.0000E+00  0.8000E+01
     -4.219  0.0000E+00  0.8000E+01
     -4.147  0.0000E+00  0.8000E+01
     -4.075  0.0000E+00  0.8000E+01
     -4.002  0.0000E+00  0.8000E+01
     -3.930  0.0000E+00  0.8000E+01
     -3.857  0.0000E+00  0.8000E+01
     -3.785  0.0000E+00  0.8000E+01
     -3.713  0.0000E+00  0.8000E+01
     -3.640  0.0000E+00  0.8000E+01
     -3.568  0.0000E+00  0.8000E+01
     -3.495  0.0000E+00  0.8000E+01
     -3.423  0.0000E+00  0.8000E+01
     -3.351  0.0000E+00  0.8000E+01
     -3.278  0.0000E+00  0.8000E+01
     -3.206  0.0000E+00  0.8000E+01
     -3.133  0.0000E+00  0.8000E+01
     -3.061  0.0000E+00  0.8000E+01
     -2.989  0.0000E+00  0.8000E+01
     -2.916  0.0000E+00  0.8000E+01
     -2.844  0.0000E+00  0.8000E+01
     -2.771  0.0000E+00  0.8000E+01
     -2.699  0.0000E+00  0.8000E+01
     -2.626  0.0000E+00  0.8000E+01
     -2.554  0.0000E+00  0.8000E+01
     -2.482  0.0000E+00  0.8000E+01
     -2.409  0.0000E+00  0.8000E+01
     -2.337  0.0000E+00  0.8000E+01
     -2.264  0.0000E+00  0.8000E+01
     -2.192  0.0000E+00  0.8000E+01
     -2.120  0.0000E+00  0.8000E+01
     -2.047  0.0000E+00  0.8000E+01
     -1.975  0.0000E+00  0.8000E+01
     -1.902 -0.4698E-26  0.8000E+01
     -1.830 -0.1327E-23  0.8000E+01
     -1.758 -0.2887E-21  0.8000E+01
     -1.685 -0.4819E-19  0.8000E+01
     -1.613 -0.6170E-17  0.8000E+01
     -1.540 -0.6059E-15  0.8000E+01
     -1.468 -0.4407E-13  0.8000E+01
     -1.396 -0.2543E-11  0.8000E+01
     -1.323 -0.1116E-09  0.8000E+01
     -1.251 -0.3743E-08  0.8000E+01
     -1.178 -0.9563E-07  0.8000E+01
     -1.106 -0.1858E-05  0.8000E+01
     -1.034 -0.2737E-04  0.8000E+01
     -0.961 -0.3041E-03  0.8000E+01
     -0.889 -0.2531E-02  0.8000E+01
     -0.816 -0.1559E-01  0.7999E+01
     -0.744 -0.6969E-01  0.7994E+01
     -0.672 -0.2165E+00  0.7978E+01
     -0.599 -0.4163E+00  0.7948E+01
     -0.527 -0.2438E+00  0.7930E+01
     -0.454  0.1174E+01  0.8015E+01
     -0.382  0.4208E+01  0.8320E+01
     -0.310  0.7392E+01  0.8855E+01
     -0.237  0.8185E+01  0.9448E+01
     -0.165  0.5864E+01  0.9872E+01
     -0.092  0.2455E+01  0.1005E+02
     -0.020  0.2199E+00  0.1007E+02
      0.052 -0.4409E+00  0.1003E+02
      0.125 -0.3795E+00  0.1001E+02
      0.197 -0.3476E+00  0.9981E+01
      0.270 -0.5923E+00  0.9938E+01
      0.342 -0.8456E+00  0.9877E+01
      0.415 -0.7578E-01  0.9872E+01
      0.487  0.3338E+01  0.1011E+02
      0.559  0.1006E+02  0.1084E+02
      0.632  0.1781E+02  0.1213E+02
      0.704  0.2183E+02  0.1371E+02
      0.777  0.1895E+02  0.1508E+02
      0.849  0.1115E+02  0.1589E+02
      0.921  0.3653E+01  0.1616E+02
      0.994 -0.2357E+00  0.1614E+02
      1.066 -0.1007E+01  0.1607E+02
      1.139 -0.6120E+00  0.1602E+02
      1.211 -0.2221E+00  0.1600E+02
      1.283 -0.5564E-01  0.1600E+02
      1.356 -0.1010E-01  0.1600E+02
      1.428 -0.1359E-02  0.1600E+02
      1.501 -0.1372E-03  0.1600E+02
      1.573 -0.1045E-04  0.1600E+02
      1.645 -0.6047E-06  0.1600E+02
      1.718 -0.2664E-07  0.1600E+02
      1.790 -0.8957E-09  0.1600E+02
      1.863 -0.2303E-10  0.1600E+02
      1.935 -0.4523E-12  0.1600E+02
      2.007 -0.6133E-14  0.1600E+02
      2.080  0.0000E+00  0.1600E+02
      2.152  0.0000E+00  0.1600E+02
      2.225  0.0000E+00  0.1600E+02
      2.297  0.0000E+00  0.1600E+02
      2.369  0.0000E+00  0.1600E+02
      2.442  0.0000E+00  0.1600E+02
      2.514  0.0000E+00  0.1600E+02
      2.587  0.0000E+00  0.1600E+02
      2.659  0.0000E+00  0.1600E+02
      2.731  0.0000E+00  0.1600E+02
      2.72780037    -18.88035779  301     -8.99830001      1.00000000
    -18.880  0.0000E+00  0.0000E+00
    -18.808  0.0000E+00  0.0000E+00
    -18.736  0.0000E+00  0.0000E+00
    -18.664  0.0000E+00  0.0000E+00
    -18.592  0.0000E+00  0.0000E+00
    -18.520 -0.4075E-27 -0.2935E-28
    -18.448 -0.1252E-24 -0.9050E-26
    -18.376 -0.2970E-22 -0.2148E-23
    -18.304 -0.5420E-20 -0.3925E-21
    -18.232 -0.7609E-18 -0.5519E-19
    -18.160 -0.8213E-16 -0.5971E-17
    -18.088 -0.6813E-14 -0.4967E-15
    -18.016 -0.4203E-12 -0.3077E-13
    -17.944 -0.2050E-10 -0.1507E-11
    -17.872 -0.7646E-09 -0.5658E-10
    -17.800 -0.2182E-07 -0.1628E-08
    -17.728 -0.4752E-06 -0.3586E-07
    -17.656 -0.7879E-05 -0.6034E-06
    -17.584 -0.9906E-04 -0.7739E-05
    -17.512 -0.9390E-03 -0.7537E-04
    -17.440 -0.6651E-02 -0.5544E-03
    -17.368 -0.3467E-01 -0.3052E-02
    -17.296 -0.1293E+00 -0.1237E-01
    -17.224 -0.3230E+00 -0.3563E-01
    -17.152 -0.4279E+00 -0.6645E-01
    -17.080  0.2346E+00 -0.4956E-01
    -17.008  0.2473E+01  0.1285E+00
    -16.936  0.5871E+01  0.5514E+00
    -16.864  0.8188E+01  0.1141E+01
    -16.792  0.7418E+01  0.1675E+01
    -16.720  0.4258E+01  0.1982E+01
    -16.648  0.1216E+01  0.2070E+01
    -16.575 -0.2301E+00  0.2053E+01
    -16.503 -0.4207E+00  0.2023E+01
    -16.431 -0.2235E+00  0.2007E+01
    -16.359 -0.7330E-01  0.2001E+01
    -16.287 -0.1673E-01  0.2000E+01
    -16.215 -0.2777E-02  0.2000E+01
    -16.143 -0.3419E-03  0.2000E+01
    -16.071 -0.3160E-04  0.2000E+01
    -15.999 -0.2209E-05  0.2000E+01
    -15.927 -0.1173E-06  0.2000E+01
    -15.855 -0.4748E-08  0.2000E+01
    -15.783 -0.1469E-09  0.2000E+01
    -15.711 -0.3473E-11  0.2000E+01
    -15.639 -0.6782E-13  0.2000E+01
    -15.567  0.0000E+00  0.2000E+01
    -15.495  0.0000E+00  0.2000E+01
    -15.423  0.0000E+00  0.2000E+01
    -15.351  0.0000E+00  0.2000E+01
    -15.279  0.0000E+00  0.2000E+01
    -15.207  0.0000E+00  0.2000E+01
    -15.135  0.0000E+00  0.2000E+01
    -15.063  0.0000E+00  0.2000E+01
    -14.991  0.0000E+00  0.2000E+01
    -14.919  0.0000E+00  0.2000E+01
    -14.847  0.0000E+00  0.2000E+01
    -14.775  0.0000E+00  0.2000E+01
    -14.703  0.0000E+00  0.2000E+01
    -14.631  0.0000E+00  0.2000E+01
    -14.559  0.0000E+00  0.2000E+01
    -14.487  0.0000E+00  0.2000E+01
    -14.415  0.0000E+00  0.2000E+01
    -14.343  0.0000E+00  0.2000E+01
    -14.271  0.0000E+00  0.2000E+01
    -14.199  0.0000E+00  0.2000E+01
    -14.127  0.0000E+00  0.2000E+01
    -14.055  0.0000E+00  0.2000E+01
    -13.983  0.0000E+00  0.2000E+01
    -13.910  0.0000E+00  0.2000E+01
    -13.838  0.0000E+00  0.2000E+01
    -13.766  0.0000E+00  0.2000E+01
    -13.694  0.0000E+00  0.2000E+01
    -13.622  0.0000E+00  0.2000E+01
    -13.550  0.0000E+00  0.2000E+01
    -13.478  0.0000E+00  0.2000E+01
    -13.406  0.0000E+00  0.2000E+01
    -13.334  0.0000E+00  0.2000E+01
    -13.262  0.0000E+00  0.2000E+01
    -13.190  0.0000E+00  0.2000E+01
    -13.118  0.0000E+00  0.2000E+01
    -13.046  0.0000E+00  0.2000E+01
    -12.974  0.0000E+00  0.2000E+01
    -12.902  0.0000E+00  0.2000E+01
    -12.830  0.0000E+00  0.2000E+01
    -12.758  0.0000E+00  0.2000E+01
    -12.686  0.0000E+00  0.2000E+01
    -12.614  0.0000E+00  0.2000E+01
    -12.542  0.0000E+00  0.2000E+01
    -12.470  0.0000E+00  0.2000E+01
    -12.398  0.0000E+00  0.2000E+01
    -12.326  0.0000E+00  0.2000E+01
    -12.254  0.0000E+00  0.2000E+01
    -12.182  0.0000E+00  0.2000E+01
    -12.110  0.0000E+00  0.2000E+01
    -12.038  0.0000E+00  0.2000E+01
    -11.966  0.0000E+00  0.2000E+01
    -11.894  0.0000E+00  0.2000E+01
    -11.822  0.0000E+00  0.2000E+01
    -11.750  0.0000E+00  0.2000E+01
    -11.678  0.0000E+00  0.2000E+01
    -11.606  0.0000E+00  0.2000E+01
    -11.534  0.0000E+00  0.2000E+01
    -11.462  0.0000E+00  0.2000E+01
    -11.390  0.0000E+00  0.2000E+01
    -11.318  0.0000E+00  0.2000E+01
    -11.245  0.0000E+00  0.2000E+01
    -11.173 -0.4648E-28  0.2000E+01
    -11.101 -0.1573E-25  0.2000E+01
    -11.029 -0.4107E-23  0.2000E+01
    -10.957 -0.8252E-21  0.2000E+01
    -10.885 -0.1276E-18  0.2000E+01
    -10.813 -0.1517E-16  0.2000E+01
    -10.741 -0.1386E-14  0.2000E+01
    -10.669 -0.9423E-13  0.2000E+01
    -10.597 -0.5072E-11  0.2000E+01
    -10.525 -0.2087E-09  0.2000E+01
    -10.453 -0.6572E-08  0.2000E+01
    -10.381 -0.1581E-06  0.2000E+01
    -10.309 -0.2899E-05  0.2000E+01
    -10.237 -0.4038E-04  0.2000E+01
    -10.165 -0.4249E-03  0.2000E+01
    -10.093 -0.3354E-02  0.2000E+01
    -10.021 -0.1962E-01  0.1998E+01
     -9.949 -0.8315E-01  0.1992E+01
     -9.877 -0.2438E+00  0.1975E+01
     -9.805 -0.4326E+00  0.1944E+01
     -9.733 -0.1703E+00  0.1931E+01
     -9.661  0.1388E+01  0.2031E+01
     -9.589  0.4367E+01  0.2346E+01
     -9.517  0.7026E+01  0.2852E+01
     -9.445  0.7220E+01  0.3372E+01
     -9.373  0.5804E+01  0.3790E+01
     -9.301  0.6610E+01  0.4266E+01
     -9.229  0.1124E+02  0.5075E+01
     -9.157  0.1570E+02  0.6206E+01
     -9.085  0.1489E+02  0.7279E+01
     -9.013  0.9030E+01  0.7929E+01
     -8.941  0.2856E+01  0.8135E+01
     -8.869 -0.3154E+00  0.8112E+01
     -8.797 -0.8553E+00  0.8050E+01
     -8.725 -0.4849E+00  0.8015E+01
     -8.652 -0.1661E+00  0.8003E+01
     -8.580 -0.3938E-01  0.8001E+01
     -8.508 -0.6772E-02  0.8000E+01
     -8.436 -0.8636E-03  0.8000E+01
     -8.364 -0.8268E-04  0.8000E+01
     -8.292 -0.5987E-05  0.8000E+01
     -8.220 -0.3296E-06  0.8000E+01
     -8.148 -0.1384E-07  0.8000E+01
     -8.076 -0.4442E-09  0.8000E+01
     -8.004 -0.1092E-10  0.8000E+01
     -7.932 -0.2096E-12  0.8000E+01
     -7.860  0.0000E+00  0.8000E+01
     -7.788  0.0000E+00  0.8000E+01
     -7.716  0.0000E+00  0.8000E+01
     -7.644  0.0000E+00  0.8000E+01
     -7.572  0.0000E+00  0.8000E+01
     -7.500  0.0000E+00  0.8000E+01
     -7.428  0.0000E+00  0.8000E+01
     -7.356  0.0000E+00  0.8000E+01
     -7.284  0.0000E+00  0.8000E+01
     -7.212  0.0000E+00  0.8000E+01
     -7.140  0.0000E+00  0.8000E+01
     -7.068  0.0000E+00  0.8000E+01
     -6.996  0.0000E+00  0.8000E+01
     -6.924  0.0000E+00  0.8000E+01
     -6.852  0.0000E+00  0.8000E+01
     -6.780  0.0000E+00  0.8000E+01
     -6.708  0.0000E+00  0.8000E+01
     -6.636  0.0000E+00  0.8000E+01
     -6.564  0.0000E+00  0.8000E+01
     -6.492  0.0000E+00  0.8000E+01
     -6.420  0.0000E+00  0.8000E+01
     -6.348  0.0000E+00  0.8000E+01
     -6.276  0.0000E+00  0.8000E+01
     -6.204  0.0000E+00  0.8000E+01
     -6.132  0.0000E+00  0.8000E+01
     -6.060  0.0000E+00  0.8000E+01
     -5.987  0.0000E+00  0.8000E+01
     -5.915  0.0000E+00  0.8000E+01
     -5.843  0.0000E+00  0.8000E+01
     -5.771  0.0000E+00  0.8000E+01
     -5.699  0.0000E+00  0.8000E+01
     -5.627  0.0000E+00  0.8000E+01
     -5.555  0.0000E+00  0.8000E+01
     -5.483  0.0000E+00  0.8000E+01
     -5.411  0.0000E+00  0.8000E+01
     -5.339  0.0000E+00  0.8000E+01
     -5.267  0.0000E+00  0.8000E+01
     -5.195  0.0000E+00  0.8000E+01
     -5.123  0.0000E+00  0.8000E+01
     -5.051  0.0000E+00  0.8000E+01
     -4.979  0.0000E+00  0.8000E+01
     -4.907  0.0000E+00  0.8000E+01
     -4.835  0.0000E+00  0.8000E+01
     -4.763  0.0000E+00  0.8000E+01
     -4.691  0.0000E+00  0.8000E+01
     -4.619  0.0000E+00  0.8000E+01
     -4.547  0.0000E+00  0.8000E+01
     -4.475  0.0000E+00  0.8000E+01
     -4.403  0.0000E+00  0.8000E+01
     -4.331  0.0000E+00  0.8000E+01
     -4.259  0.0000E+00  0.8000E+01
     -4.187  0.0000E+00  0.8000E+01
     -4.115  0.0000E+00  0.8000E+01
     -4.043  0.0000E+00  0.8000E+01
     -3.971  0.0000E+00  0.8000E+01
     -3.899  0.0000E+00  0.8000E+01
     -3.827  0.0000E+00  0.8000E+01
     -3.755  0.0000E+00  0.8000E+01
     -3.683  0.0000E+00  0.8000E+01
     -3.611  0.0000E+00  0.8000E+01
     -3.539  0.0000E+00  0.8000E+01
     -3.467  0.0000E+00  0.8000E+01
     -3.395  0.0000E+00  0.8000E+01
     -3.322  0.0000E+00  0.8000E+01
     -3.250  0.0000E+00  0.8000E+01
     -3.178  0.0000E+00  0.8000E+01
     -3.106  0.0000E+00  0.8000E+01
     -3.034  0.0000E+00  0.8000E+01
     -2.962  0.0000E+00  0.8000E+01
     -2.890  0.0000E+00  0.8000E+01
     -2.818  0.0000E+00  0.8000E+01
     -2.746  0.0000E+00  0.8000E+01
     -2.674  0.0000E+00  0.8000E+01
     -2.602  0.0000E+00  0.8000E+01
     -2.530  0.0000E+00  0.8000E+01
     -2.458  0.0000E+00  0.8000E+01
     -2.386  0.0000E+00  0.8000E+01
     -2.314  0.0000E+00  0.8000E+01
     -2.242  0.0000E+00  0.8000E+01
     -2.170  0.0000E+00  0.8000E+01
     -2.098  0.0000E+00  0.8000E+01
     -2.026  0.0000E+00  0.8000E+01
     -1.954 -0.3419E-27  0.8000E+01
     -1.882 -0.1057E-24  0.8000E+01
     -1.810 -0.2521E-22  0.8000E+01
     -1.738 -0.4628E-20  0.8000E+01
     -1.666 -0.6537E-18  0.8000E+01
     -1.594 -0.7102E-16  0.8000E+01
     -1.522 -0.5932E-14  0.8000E+01
     -1.450 -0.3691E-12  0.8000E+01
     -1.378 -0.1810E-10  0.8000E+01
     -1.306 -0.6802E-09  0.8000E+01
     -1.234 -0.1956E-07  0.8000E+01
     -1.162 -0.4294E-06  0.8000E+01
     -1.090 -0.7180E-05  0.8000E+01
     -1.018 -0.9105E-04  0.8000E+01
     -0.946 -0.8710E-03  0.8000E+01
     -0.874 -0.6229E-02  0.7999E+01
     -0.802 -0.3282E-01  0.7997E+01
     -0.730 -0.1239E+00  0.7988E+01
     -0.657 -0.3146E+00  0.7966E+01
     -0.585 -0.4311E+00  0.7934E+01
     -0.513  0.1857E+00  0.7948E+01
     -0.441  0.2358E+01  0.8118E+01
     -0.369  0.5741E+01  0.8531E+01
     -0.297  0.8145E+01  0.9118E+01
     -0.225  0.7502E+01  0.9658E+01
     -0.153  0.4393E+01  0.9975E+01
     -0.081  0.1308E+01  0.1007E+02
     -0.009 -0.2045E+00  0.1005E+02
      0.063 -0.4428E+00  0.1002E+02
      0.135 -0.3149E+00  0.1000E+02
      0.207 -0.3570E+00  0.9974E+01
      0.279 -0.6608E+00  0.9926E+01
      0.351 -0.8232E+00  0.9867E+01
      0.423  0.3417E+00  0.9892E+01
      0.495  0.4409E+01  0.1021E+02
      0.567  0.1158E+02  0.1104E+02
      0.639  0.1896E+02  0.1241E+02
      0.711  0.2181E+02  0.1398E+02
      0.783  0.1780E+02  0.1526E+02
      0.855  0.9744E+01  0.1596E+02
      0.927  0.2775E+01  0.1616E+02
      0.999 -0.4979E+00  0.1613E+02
      1.071 -0.9755E+00  0.1606E+02
      1.143 -0.5431E+00  0.1602E+02
      1.215 -0.1878E+00  0.1600E+02
      1.287 -0.4547E-01  0.1600E+02
      1.359 -0.8037E-02  0.1600E+02
      1.431 -0.1058E-02  0.1600E+02
      1.503 -0.1049E-03  0.1600E+02
      1.575 -0.7883E-05  0.1600E+02
      1.647 -0.4513E-06  0.1600E+02
      1.719 -0.1973E-07  0.1600E+02
      1.791 -0.6608E-09  0.1600E+02
      1.863 -0.1697E-10  0.1600E+02
      1.936 -0.3376E-12  0.1600E+02
      2.008 -0.4624E-14  0.1600E+02
      2.080  0.0000E+00  0.1600E+02
      2.152  0.0000E+00  0.1600E+02
      2.224  0.0000E+00  0.1600E+02
      2.296  0.0000E+00  0.1600E+02
      2.368  0.0000E+00  0.1600E+02
      2.440  0.0000E+00  0.1600E+02
      2.512  0.0000E+00  0.1600E+02
      2.584  0.0000E+00  0.1600E+02
      2.656  0.0000E+00  0.1600E+02
      2.728  0.0000E+00  0.1600E+02
      2.72586092    -18.82693729  301     -8.96014675      1.00000000
    -18.827  0.0000E+00  0.0000E+00
    -18.755  0.0000E+00  0.0000E+00
    -18.683  0.0000E+00  0.0000E+00
    -18.611  0.0000E+00  0.0000E+00
    -18.540  0.0000E+00  0.0000E+00
    -18.468 -0.3791E-27 -0.2723E-28
    -18.396 -0.1152E-24 -0.8305E-26
    -18.324 -0.2706E-22 -0.1953E-23
    -18.252 -0.4897E-20 -0.3538E-21
    -18.180 -0.6827E-18 -0.4940E-19
    -18.109 -0.7328E-16 -0.5314E-17
    -18.037 -0.6053E-14 -0.4402E-15
    -17.965 -0.3722E-12 -0.2718E-13
    -17.893 -0.1813E-10 -0.1330E-11
    -17.821 -0.6763E-09 -0.4992E-10
    -17.749 -0.1932E-07 -0.1438E-08
    -17.677 -0.4220E-06 -0.3176E-07
    -17.606 -0.7028E-05 -0.5366E-06
    -17.534 -0.8888E-04 -0.6922E-05
    -17.462 -0.8489E-03 -0.6791E-04
    -17.390 -0.6071E-02 -0.5040E-03
    -17.318 -0.3204E-01 -0.2806E-02
    -17.246 -0.1214E+00 -0.1153E-01
    -17.175 -0.3105E+00 -0.3383E-01
    -17.103 -0.4342E+00 -0.6503E-01
    -17.031  0.1520E+00 -0.5411E-01
    -16.959  0.2275E+01  0.1094E+00
    -16.887  0.5644E+01  0.5148E+00
    -16.815  0.8116E+01  0.1098E+01
    -16.744  0.7581E+01  0.1643E+01
    -16.672  0.4523E+01  0.1967E+01
    -16.600  0.1401E+01  0.2068E+01
    -16.528 -0.1724E+00  0.2056E+01
    -16.456 -0.4298E+00  0.2025E+01
    -16.384 -0.2411E+00  0.2008E+01
    -16.312 -0.8213E-01  0.2002E+01
    -16.241 -0.1939E-01  0.2000E+01
    -16.169 -0.3325E-02  0.2000E+01
    -16.097 -0.4230E-03  0.2000E+01
    -16.025 -0.4042E-04  0.2000E+01
    -15.953 -0.2923E-05  0.2000E+01
    -15.881 -0.1608E-06  0.2000E+01
    -15.810 -0.6748E-08  0.2000E+01
    -15.738 -0.2167E-09  0.2000E+01
    -15.666 -0.5331E-11  0.2000E+01
    -15.594 -0.1051E-12  0.2000E+01
    -15.522  0.0000E+00  0.2000E+01
    -15.450  0.0000E+00  0.2000E+01
    -15.378  0.0000E+00  0.2000E+01
    -15.307  0.0000E+00  0.2000E+01
    -15.235  0.0000E+00  0.2000E+01
    -15.163  0.0000E+00  0.2000E+01
    -15.091  0.0000E+00  0.2000E+01
    -15.019  0.0000E+00  0.2000E+01
    -14.947  0.0000E+00  0.2000E+01
    -14.876  0.0000E+00  0.2000E+01
    -14.804  0.0000E+00  0.2000E+01
    -14.732  0.0000E+00  0.2000E+01
    -14.660  0.0000E+00  0.2000E+01
    -14.588  0.0000E+00  0.2000E+01
    -14.516  0.0000E+00  0.2000E+01
    -14.445  0.0000E+00  0.2000E+01
    -14.373  0.0000E+00  0.2000E+01
    -14.301  0.0000E+00  0.2000E+01
    -14.229  0.0000E+00  0.2000E+01
    -14.157  0.0000E+00  0.2000E+01
    -14.085  0.0000E+00  0.2000E+01
    -14.013  0.0000E+00  0.2000E+01
    -13.942  0.0000E+00  0.2000E+01
    -13.870  0.0000E+00  0.2000E+01
    -13.798  0.0000E+00  0.2000E+01
    -13.726  0.0000E+00  0.2000E+01
    -13.654  0.0000E+00  0.2000E+01
    -13.582  0.0000E+00  0.2000E+01
    -13.511  0.0000E+00  0.2000E+01
    -13.439  0.0000E+00  0.2000E+01
    -13.367  0.0000E+00  0.2000E+01
    -13.295  0.0000E+00  0.2000E+01
    -13.223  0.0000E+00  0.2000E+01
    -13.151  0.0000E+00  0.2000E+01
    -13.080  0.0000E+00  0.2000E+01
    -13.008  0.0000E+00  0.2000E+01
    -12.936  0.0000E+00  0.2000E+01
    -12.864  0.0000E+00  0.2000E+01
    -12.792  0.0000E+00  0.2000E+01
    -12.720  0.0000E+00  0.2000E+01
    -12.648  0.0000E+00  0.2000E+01
    -12.577  0.0000E+00  0.2000E+01
    -12.505  0.0000E+00  0.2000E+01
    -12.433  0.0000E+00  0.2000E+01
    -12.361  0.0000E+00  0.2000E+01
    -12.289  0.0000E+00  0.2000E+01
    -12.217  0.0000E+00  0.2000E+01
    -12.146  0.0000E+00  0.2000E+01
    -12.074  0.0000E+00  0.2000E+01
    -12.002  0.0000E+00  0.2000E+01
    -11.930  0.0000E+00  0.2000E+01
    -11.858  0.0000E+00  0.2000E+01
    -11.786  0.0000E+00  0.2000E+01
    -11.715  0.0000E+00  0.2000E+01
    -11.643  0.0000E+00  0.2000E+01
    -11.571  0.0000E+00  0.2000E+01
    -11.499  0.0000E+00  0.2000E+01
    -11.427  0.0000E+00  0.2000E+01
    -11.355  0.0000E+00  0.2000E+01
    -11.283  0.0000E+00  0.2000E+01
    -11.212  0.0000E+00  0.2000E+01
    -11.140 -0.1973E-27  0.2000E+01
    -11.068 -0.6175E-25  0.2000E+01
    -10.996 -0.1493E-22  0.2000E+01
    -10.924 -0.2781E-20  0.2000E+01
    -10.852 -0.3992E-18  0.2000E+01
    -10.781 -0.4411E-16  0.2000E+01
    -10.709 -0.3752E-14  0.2000E+01
    -10.637 -0.2377E-12  0.2000E+01
    -10.565 -0.1192E-10  0.2000E+01
    -10.493 -0.4580E-09  0.2000E+01
    -10.421 -0.1348E-07  0.2000E+01
    -10.350 -0.3034E-06  0.2000E+01
    -10.278 -0.5208E-05  0.2000E+01
    -10.206 -0.6794E-04  0.2000E+01
    -10.134 -0.6697E-03  0.2000E+01
    -10.062 -0.4949E-02  0.2000E+01
     -9.990 -0.2704E-01  0.1998E+01
     -9.918 -0.1066E+00  0.1990E+01
     -9.847 -0.2864E+00  0.1969E+01
     -9.775 -0.4406E+00  0.1938E+01
     -9.703  0.1139E-01  0.1939E+01
     -9.631  0.1898E+01  0.2075E+01
     -9.559  0.5044E+01  0.2437E+01
     -9.487  0.7396E+01  0.2969E+01
     -9.416  0.6958E+01  0.3469E+01
     -9.344  0.5040E+01  0.3831E+01
     -9.272  0.5655E+01  0.4237E+01
     -9.200  0.1037E+02  0.4982E+01
     -9.128  0.1529E+02  0.6080E+01
     -9.056  0.1518E+02  0.7171E+01
     -8.984  0.9761E+01  0.7872E+01
     -8.913  0.3479E+01  0.8122E+01
     -8.841 -0.5764E-01  0.8118E+01
     -8.769 -0.8452E+00  0.8057E+01
     -8.697 -0.5345E+00  0.8018E+01
     -8.625 -0.1970E+00  0.8004E+01
     -8.553 -0.4987E-01  0.8001E+01
     -8.482 -0.9152E-02  0.8000E+01
     -8.410 -0.1247E-02  0.8000E+01
     -8.338 -0.1278E-03  0.8000E+01
     -8.266 -0.9929E-05  0.8000E+01
     -8.194 -0.5878E-06  0.8000E+01
     -8.122 -0.2661E-07  0.8000E+01
     -8.051 -0.9229E-09  0.8000E+01
     -7.979 -0.2457E-10  0.8000E+01
     -7.907 -0.5084E-12  0.8000E+01
     -7.835 -0.6181E-14  0.8000E+01
     -7.763  0.0000E+00  0.8000E+01
     -7.691  0.0000E+00  0.8000E+01
     -7.619  0.0000E+00  0.8000E+01
     -7.548  0.0000E+00  0.8000E+01
     -7.476  0.0000E+00  0.8000E+01
     -7.404  0.0000E+00  0.8000E+01
     -7.332  0.0000E+00  0.8000E+01
     -7.260  0.0000E+00  0.8000E+01
     -7.188  0.0000E+00  0.8000E+01
     -7.117  0.0000E+00  0.8000E+01
     -7.045  0.0000E+00  0.8000E+01
     -6.973  0.0000E+00  0.8000E+01
     -6.901  0.0000E+00  0.8000E+01
     -6.829  0.0000E+00  0.8000E+01
     -6.757  0.0000E+00  0.8000E+01
     -6.686  0.0000E+00  0.8000E+01
     -6.614  0.0000E+00  0.8000E+01
     -6.542  0.0000E+00  0.8000E+01
     -6.470  0.0000E+00  0.8000E+01
     -6.398  0.0000E+00  0.8000E+01
     -6.326  0.0000E+00  0.8000E+01
     -6.254  0.0000E+00  0.8000E+01
     -6.183  0.0000E+00  0.8000E+01
     -6.111  0.0000E+00  0.8000E+01
     -6.039  0.0000E+00  0.8000E+01
     -5.967  0.0000E+00  0.8000E+01
     -5.895  0.0000E+00  0.8000E+01
     -5.823  0.0000E+00  0.8000E+01
     -5.752  0.0000E+00  0.8000E+01
     -5.680  0.0000E+00  0.8000E+01
     -5.608  0.0000E+00  0.8000E+01
     -5.536  0.0000E+00  0.8000E+01
     -5.464  0.0000E+00  0.8000E+01
     -5.392  0.0000E+00  0.8000E+01
     -5.321  0.0000E+00  0.8000E+01
     -5.249  0.0000E+00  0.8000E+01
     -5.177  0.0000E+00  0.8000E+01
     -5.105  0.0000E+00  0.8000E+01
     -5.033  0.0000E+00  0.8000E+01
     -4.961  0.0000E+00  0.8000E+01
     -4.889  0.0000E+00  0.8000E+01
     -4.818  0.0000E+00  0.8000E+01
     -4.746  0.0000E+00  0.8000E+01
     -4.674  0.0000E+00  0.8000E+01
     -4.602  0.0000E+00  0.8000E+01
     -4.530  0.0000E+00  0.8000E+01
     -4.458  0.0000E+00  0.8000E+01
     -4.387  0.0000E+00  0.8000E+01
     -4.315  0.0000E+00  0.8000E+01
     -4.243  0.0000E+00  0.8000E+01
     -4.171  0.0000E+00  0.8000E+01
     -4.099  0.0000E+00  0.8000E+01
     -4.027  0.0000E+00  0.8000E+01
     -3.956  0.0000E+00  0.8000E+01
     -3.884  0.0000E+00  0.8000E+01
     -3.812  0.0000E+00  0.8000E+01
     -3.740  0.0000E+00  0.8000E+01
     -3.668  0.0000E+00  0.8000E+01
     -3.596  0.0000E+00  0.8000E+01
     -3.524  0.0000E+00  0.8000E+01
     -3.453  0.0000E+00  0.8000E+01
     -3.381  0.0000E+00  0.8000E+01
     -3.309  0.0000E+00  0.8000E+01
     -3.237  0.0000E+00  0.8000E+01
     -3.165  0.0000E+00  0.8000E+01
     -3.093  0.0000E+00  0.8000E+01