    5    5    1    1
  0.1916137E+03  0.9702526E-09  0.1004140E-08  0.9841486E-09  0.2000000E-14
   50.000000000000000     
  CAR 
 unknown system                          
      8      4      8

  0.2500000E+00  0.2500000E+00  0.2500000E+00  0.2500000E+00
    1      -16.754143   1.000000
    2       -9.507973   1.000001
    3       -9.029188   1.034970
    4       -8.915433   0.964858
    5       -0.306802   0.000000
    6        0.608035   0.000000
    7        0.712035   0.000000
    8        0.739129   0.000000

 -0.2500000E+00  0.2500000E+00  0.2500000E+00  0.2500000E+00
    1      -16.754094   1.000000
    2       -9.507975   1.000001
    3       -9.029076   1.034979
    4       -8.915505   0.964979
    5       -0.300116   0.000000
    6        0.573727   0.000000
    7        0.696490   0.000000
    8        0.743182   0.000000

  0.2500000E+00 -0.2500000E+00  0.2500000E+00  0.2500000E+00
    1      -16.754093   1.000000
    2       -9.507948   1.000001
    3       -9.029095   1.034977
    4       -8.915709   0.965318
    5       -0.296458   0.000000
    6        0.575291   0.000000
    7        0.678594   0.000000
    8        0.728927   0.000000

 -0.2500000E+00 -0.2500000E+00  0.2500000E+00  0.2500000E+00
    1      -16.754129   1.000000
    2       -9.508054   1.000001
    3       -9.029074   1.034979
    4       -8.915480   0.964936
    5       -0.300685   0.000000
    6        0.585463   0.000000
    7        0.682699   0.000000
    8        0.746639   0.000000
