 vasp.5.4.4.18Apr17-6-g9f103f2a35 (build Jul 12 2018 13:43:46) complex           
 executed on             LinuxGNU date 2019.06.22  02:17:35
 running on    1 total cores
 distrk:  each k-point on    1 cores,    1 groups
 distr:  one band on NCORES_PER_BAND=   1 cores,    1 groups


--------------------------------------------------------------------------------------------------------


 INCAR:
 POTCAR:    PAW_PBE H 15Jun2001                   
 POTCAR:    PAW_PBE C 08Apr2002                   
 POTCAR:    PAW_PBE H 15Jun2001                   
   VRHFIN =H: ultrasoft test                                                    
   LEXCH  = PE                                                                  
   EATOM  =    12.4884 eV,    0.9179 Ry                                         
                                                                                
   TITEL  = PAW_PBE H 15Jun2001                                                 
   LULTRA =        F    use ultrasoft PP ?                                      
   IUNSCR =        0    unscreen: 0-lin 1-nonlin 2-no                           
   RPACOR =    0.000    partial core radius                                     
   POMASS =    1.000; ZVAL   =    1.000    mass and valenz                      
   RCORE  =    1.100    outmost cutoff radius                                   
   RWIGS  =    0.700; RWIGS  =    0.370    wigner-seitz radius (au A)           
   ENMAX  =  250.000; ENMIN  =  200.000 eV                                      
   RCLOC  =    0.701    cutoff for local pot                                    
   LCOR   =        T    correct aug charges                                     
   LPAW   =        T    paw PP                                                  
   EAUG   =  400.000                                                            
   RMAX   =    1.123    core radius for proj-oper                               
   RAUG   =    1.200    factor for augmentation sphere                          
   RDEP   =    1.112    radius for radial grids                                 
   RDEPT  =    0.926    core radius for aug-charge                              
                                                                                
   Atomic configuration                                                         
    2 entries                                                                   
     n  l   j            E        occ.                                          
     1  0  0.50        -6.4927   1.0000                                         
     2  1  0.50        -3.4015   0.0000                                         
   Description                                                                  
     l       E           TYP  RCUT    TYP  RCUT                                 
     0     -6.4927494     23  1.100                                             
     0      6.8029130     23  1.100                                             
     1     -4.0817478     23  1.100                                             
  local pseudopotential read in
  atomic valenz-charges read in
  non local Contribution for L=           0  read in
    real space projection operators read in
  non local Contribution for L=           0  read in
    real space projection operators read in
  non local Contribution for L=           1  read in
    real space projection operators read in
    PAW grid and wavefunctions read in

   number of l-projection  operators is LMAX  =           3
   number of lm-projection operators is LMMAX =           5

 POTCAR:    PAW_PBE C 08Apr2002                   
   VRHFIN =C: s2p2                                                              
   LEXCH  = PE                                                                  
   EATOM  =   147.1560 eV,   10.8157 Ry                                         
                                                                                
   TITEL  = PAW_PBE C 08Apr2002                                                 
   LULTRA =        F    use ultrasoft PP ?                                      
   IUNSCR =        1    unscreen: 0-lin 1-nonlin 2-no                           
   RPACOR =    1.200    partial core radius                                     
   POMASS =   12.011; ZVAL   =    4.000    mass and valenz                      
   RCORE  =    1.500    outmost cutoff radius                                   
   RWIGS  =    1.630; RWIGS  =    0.863    wigner-seitz radius (au A)           
   ENMAX  =  400.000; ENMIN  =  300.000 eV                                      
   ICORE  =        2    local potential                                         
   LCOR   =        T    correct aug charges                                     
   LPAW   =        T    paw PP                                                  
   EAUG   =  644.873                                                            
   DEXC   =    0.000                                                            
   RMAX   =    1.529    core radius for proj-oper                               
   RAUG   =    1.300    factor for augmentation sphere                          
   RDEP   =    1.501    radius for radial grids                                 
   RDEPT  =    1.300    core radius for aug-charge                              
                                                                                
   Atomic configuration                                                         
    4 entries                                                                   
     n  l   j            E        occ.                                          
     1  0  0.50      -273.3789   2.0000                                         
     2  0  0.50       -13.7508   2.0000                                         
     2  1  0.50        -5.2854   2.0000                                         
     3  2  1.50        -5.4423   0.0000                                         
   Description                                                                  
     l       E           TYP  RCUT    TYP  RCUT                                 
     0    -13.7508458     23  1.200                                             
     0     -8.2022199     23  1.200                                             
     1     -5.2854383     23  1.500                                             
     1     34.0145650     23  1.500                                             
     2     -5.4423304      7  1.500                                             
  local pseudopotential read in
  partial core-charges read in
  partial kinetic energy density read in
  atomic valenz-charges read in
  non local Contribution for L=           0  read in
    real space projection operators read in
  non local Contribution for L=           0  read in
    real space projection operators read in
  non local Contribution for L=           1  read in
    real space projection operators read in
  non local Contribution for L=           1  read in
    real space projection operators read in
    PAW grid and wavefunctions read in

   number of l-projection  operators is LMAX  =           4
   number of lm-projection operators is LMMAX =           8


 ----------------------------------------------------------------------------- 
|                                                                             |
|  ADVICE TO THIS USER RUNNING 'VASP/VAMP'   (HEAR YOUR MASTER'S VOICE ...):  |
|                                                                             |
|      You have a (more or less) 'small supercell' and for smaller cells      |
|      it is recommended  to use the reciprocal-space projection scheme!      |
|      The real space optimization is not  efficient for small cells and it   |
|      is also less accurate ...                                              |
|      Therefore set LREAL=.FALSE. in the  INCAR file                         |
|                                                                             |
 ----------------------------------------------------------------------------- 


 ----------------------------------------------------------------------------- 
|                                                                             |
|           W    W    AA    RRRRR   N    N  II  N    N   GGGG   !!!           |
|           W    W   A  A   R    R  NN   N  II  NN   N  G    G  !!!           |
|           W    W  A    A  R    R  N N  N  II  N N  N  G       !!!           |
|           W WW W  AAAAAA  RRRRR   N  N N  II  N  N N  G  GGG   !            |
|           WW  WW  A    A  R   R   N   NN  II  N   NN  G    G                |
|           W    W  A    A  R    R  N    N  II  N    N   GGGG   !!!           |
|                                                                             |
|     The real-space-projection scheme for the treatment of the nonlocal      |
|     pseudopotentials has been switched on -- but on file POTCAR I have      |
|     not found any entries signalling me that you have ever performed a      |
|     real-space optimization of all nonlocal projectors! BE WARNED that      |
|     a calculation using the real-space-projection scheme together with      |
|     nonlocal projectors which were not real-space-optimized (according      |
|     to the plane-wave-cutoff used in this calculation) might give more      |
|     or less inaccurate results                                              |
|     I hope you know what you are doing                                      |
|                                                                             |
 ----------------------------------------------------------------------------- 

  PAW_PBE H 15Jun2001                   :
 energy of atom  1       EATOM=  -12.4884
 kinetic energy error for atom=    0.0098 (will be added to EATOM!!)
  PAW_PBE C 08Apr2002                   :
 energy of atom  2       EATOM= -147.1560
 kinetic energy error for atom=    0.0288 (will be added to EATOM!!)


 POSCAR:  H  C                                   
  positions in cartesian coordinates
  No initial velocities read in
 exchange correlation table for  LEXCH =        8
   RHO(1)=    0.500       N(1)  =     2000
   RHO(2)=  100.500       N(2)  =     4000



--------------------------------------------------------------------------------------------------------


 ion  position               nearest neighbor table
   1  0.538  0.407  0.360-   5 1.09
   2  0.395  0.480  0.439-   5 1.06
   3  0.553  0.565  0.442-   5 1.10
   4  0.528  0.416  0.539-   5 1.07
   5  0.503  0.467  0.445-   2 1.06   4 1.07   1 1.09   3 1.10


IMPORTANT INFORMATION: All symmetrisations will be switched off!
NOSYMM: (Re-)initialisation of all symmetry stuff for point group C_1.




Automatic generation of k-mesh.
 generate k-points for:    2    2    2
Space group operators:
 irot       det(A)        alpha          n_x          n_y          n_z        tau_x        tau_y        tau_z
    1     1.000000     0.000000     1.000000     0.000000     0.000000     0.000000     0.000000     0.000000
 
 Subroutine IBZKPT returns following result:
 ===========================================
 
 Found      4 irreducible k-points:
 
 Following reciprocal coordinates:
            Coordinates               Weight
  0.250000  0.250000  0.250000      2.000000
 -0.250000  0.250000  0.250000      2.000000
  0.250000 -0.250000  0.250000      2.000000
 -0.250000 -0.250000  0.250000      2.000000
 
 Following cartesian coordinates:
            Coordinates               Weight
  0.025766  0.024203  0.024628      2.000000
 -0.025766  0.025609  0.024768      2.000000
  0.025766 -0.025609  0.026059      2.000000
 -0.025766 -0.024203  0.026198      2.000000
 


--------------------------------------------------------------------------------------------------------




 Dimension of arrays:
   k-points           NKPTS =      4   k-points in BZ     NKDIM =      4   number of bands    NBANDS=      8
   number of dos      NEDOS =    301   number of ions     NIONS =      5
   non local maximal  LDIM  =      4   non local SUM 2l+1 LMDIM =      8
   total plane-waves  NPLWV = 286720
   max r-space proj   IRMAX =    713   max aug-charges    IRDMAX=   3731
   dimension x,y,z NGX =    64 NGY =   70 NGZ =   64
   dimension x,y,z NGXF=   128 NGYF=  140 NGZF=  128
   support grid    NGXF=   128 NGYF=  140 NGZF=  128
   ions per type =               4   1
   NGX,Y,Z   is equivalent  to a cutoff of  10.97, 11.59, 10.81 a.u.
   NGXF,Y,Z  is equivalent  to a cutoff of  21.93, 23.18, 21.62 a.u.

 SYSTEM =  unknown system                          
 POSCAR =   H  C                                   

 Startparameter for this run:
   NWRITE =      2    write-flag & timer
   PREC   = a         normal or accurate (medium, high low for compatibility)
   ISTART =      0    job   : 0-new  1-cont  2-samecut
   ICHARG =      2    charge: 1-file 2-atom 10-const
   ISPIN  =      1    spin polarized calculation?
   LNONCOLLINEAR =      F non collinear calculations
   LSORBIT =      F    spin-orbit coupling
   INIWAV =      1    electr: 0-lowe 1-rand  2-diag
   LASPH  =      F    aspherical Exc in radial PAW
   METAGGA=      F    non-selfconsistent MetaGGA calc.

 Electronic Relaxation 1
   ENCUT  =  400.0 eV  29.40 Ry    5.42 a.u.  15.82 16.37 16.05*2*pi/ulx,y,z
   ENINI  =  400.0     initial cutoff
   ENAUG  =  644.9 eV  augmentation charge cutoff
   NELM   =     60;   NELMIN=  2; NELMDL= -5     # of ELM steps 
   EDIFF  = 0.1E-05   stopping-criterion for ELM
   LREAL  =      T    real-space projection
   NLSPLINE    = F    spline interpolate recip. space projectors
   LCOMPAT=      F    compatible to vasp.4.4
   GGA_COMPAT  = T    GGA compatible to vasp.4.4-vasp.4.6
   LMAXPAW     = -100 max onsite density
   LMAXMIX     =    2 max onsite mixed and CHGCAR
   VOSKOWN=      0    Vosko Wilk Nusair interpolation
   ROPT   =    0.00000   0.00000
 Ionic relaxation
   EDIFFG = 0.1E-04   stopping-criterion for IOM
   NSW    =     10    number of steps for IOM
   NBLOCK =      1;   KBLOCK =      1    inner block; outer block 
   IBRION =      0    ionic relax: 0-MD 1-quasi-New 2-CG
   NFREE  =      0    steps in history (QN), initial steepest desc. (CG)
   ISIF   =      2    stress and relaxation
   IWAVPR =     12    prediction:  0-non 1-charg 2-wave 3-comb
   ISYM   =      0    0-nonsym 1-usesym 2-fastsym
   LCORR  =      T    Harris-Foulkes like correction to forces

   POTIM  = 2.0000    time-step for ionic-motion
   TEIN   =   50.0    initial temperature
   TEBEG  =   50.0;   TEEND  =  50.0 temperature during run
   SMASS  =   0.00    Nose mass-parameter (am)
   estimated Nose-frequenzy (Omega)   =  0.79E+14 period in steps = 40.00 mass=   0.123E-29a.u.
   SCALEE = 1.0000    scale energy and forces
   NPACO  =    256;   APACO  = 16.0  distance and # of slots for P.C.
   PSTRESS=    0.0 pullay stress

  Mass of Ions in am
   POMASS =   1.00 12.01
  Ionic Valenz
   ZVAL   =   1.00  4.00
  Atomic Wigner-Seitz radii
   RWIGS  =  -1.00 -1.00
  virtual crystal weights 
   VCA    =   1.00  1.00
   NELECT =       8.0000    total number of electrons
   NUPDOWN=      -1.0000    fix difference up-down

 DOS related values:
   EMIN   =  10.00;   EMAX   =-10.00  energy-range for DOS
   EFERMI =   0.00
   ISMEAR =     1;   SIGMA  =   0.20  broadening in eV -4-tet -1-fermi 0-gaus

 Electronic relaxation 2 (details)
   IALGO  =     68    algorithm
   LDIAG  =      T    sub-space diagonalisation (order eigenvalues)
   LSUBROT=      F    optimize rotation matrix (better conditioning)
   TURBO    =      0    0=normal 1=particle mesh
   IRESTART =      0    0=no restart 2=restart with 2 vectors
   NREBOOT  =      0    no. of reboots
   NMIN     =      0    reboot dimension
   EREF     =   0.00    reference energy to select bands
   IMIX   =      4    mixing-type and parameters
     AMIX     =   0.40;   BMIX     =  1.00
     AMIX_MAG =   1.60;   BMIX_MAG =  1.00
     AMIN     =   0.10
     WC   =   100.;   INIMIX=   1;  MIXPRE=   1;  MAXMIX=  50

 Intra band minimization:
   WEIMIN = 0.0010     energy-eigenvalue tresh-hold
   EBREAK =  0.31E-07  absolut break condition
   DEPER  =   0.30     relativ break condition  

   TIME   =   0.40     timestep for ELM

  volume/ion in A,a.u.               =     191.61      1293.07
  Fermi-wavevector in a.u.,A,eV,Ry     =   0.332128  0.627632  1.500849  0.110309
  Thomas-Fermi vector in A             =   1.228873

 Write flags
   LWAVE        =      F    write WAVECAR
   LDOWNSAMPLE  =      F    k-point downsampling of WAVECAR
   LCHARG       =      F    write CHGCAR
   LVTOT        =      F    write LOCPOT, total local potential
   LVHAR        =      F    write LOCPOT, Hartree potential only
   LELF         =      F    write electronic localiz. function (ELF)
   LORBIT       =      0    0 simple, 1 ext, 2 COOP (PROOUT), +10 PAW based schemes


 Dipole corrections
   LMONO  =      F    monopole corrections only (constant potential shift)
   LDIPOL =      F    correct potential (dipole corrections)
   IDIPOL =      0    1-x, 2-y, 3-z, 4-all directions 
   EPSILON=  1.0000000 bulk dielectric constant

 Exchange correlation treatment:
   GGA     =    --    GGA type
   LEXCH   =     8    internal setting for exchange type
   VOSKOWN=      0    Vosko Wilk Nusair interpolation
   LHFCALC =     F    Hartree Fock is set to
   LHFONE  =     F    Hartree Fock one center treatment
   AEXX    =    0.0000 exact exchange contribution

 Linear response parameters
   LEPSILON=     F    determine dielectric tensor
   LRPA    =     F    only Hartree local field effects (RPA)
   LNABLA  =     F    use nabla operator in PAW spheres
   LVEL    =     F    velocity operator in full k-point grid
   LINTERFAST=   F  fast interpolation
   KINTER  =     0    interpolate to denser k-point grid
   CSHIFT  =0.1000    complex shift for real part using Kramers Kronig
   OMEGAMAX=  -1.0    maximum frequency
   DEG_THRESHOLD= 0.2000000E-02 threshold for treating states as degnerate
   RTIME   =   -0.100 relaxation time in fs
  (WPLASMAI=    0.000 imaginary part of plasma frequency in eV, 0.658/RTIME)
   DFIELD  = 0.0000000 0.0000000 0.0000000 field for delta impulse in time

 Orbital magnetization related:
   ORBITALMAG=     F  switch on orbital magnetization
   LCHIMAG   =     F  perturbation theory with respect to B field
   DQ        =  0.001000  dq finite difference perturbation B field
   LLRAUG    =     F  two centre corrections for induced B field



--------------------------------------------------------------------------------------------------------


 molecular dynamics for ions
   using nose mass (canonical ensemble)
 charge density and potential will be updated during run
 non-spin polarized calculation
 RMM-DIIS sequential band-by-band and
  variant of blocked Davidson during initial phase
 perform sub-space diagonalisation
    before iterative eigenvector-optimisation
 modified Broyden-mixing scheme, WC =      100.0
 initial mixing is a Kerker type mixing with AMIX =  0.4000 and BMIX =      1.0000
 Hartree-type preconditioning will be used
 using additional bands            4
 real space projection scheme for non local part
 use partial core corrections
 calculate Harris-corrections to forces   (improved forces if not selfconsistent)
 use gradient corrections 
 use of overlap-Matrix (Vanderbilt PP)
 Methfessel and Paxton  Order N= 1 SIGMA  =   0.20


--------------------------------------------------------------------------------------------------------


  energy-cutoff  :      400.00
  volume of cell :      958.07
      direct lattice vectors                 reciprocal lattice vectors
     9.702526420  0.000000000  0.000000000     0.103065939 -0.002811235 -0.000278250
     0.273788176 10.037664411  0.000000000     0.000000000  0.099624769 -0.002861194
     0.034264475  0.282526404  9.837370016     0.000000000  0.000000000  0.101653186

  length of vectors
     9.702526420 10.041397652  9.841485867     0.103104647  0.099665847  0.101653186



 k-points in units of 2pi/SCALE and weight: read from INCAR                         
   0.02576648  0.02420338  0.02462844       0.250
  -0.02576648  0.02560900  0.02476756       0.250
   0.02576648 -0.02560900  0.02605903       0.250
  -0.02576648 -0.02420338  0.02619816       0.250

 k-points in reciprocal lattice and weights: read from INCAR                         
   0.25000000  0.25000000  0.25000000       0.250
  -0.25000000  0.25000000  0.25000000       0.250
   0.25000000 -0.25000000  0.25000000       0.250
  -0.25000000 -0.25000000  0.25000000       0.250

 position of ions in fractional coordinates (direct lattice) 
   0.53796481  0.40660791  0.36044931
   0.39467980  0.48005301  0.43856926
   0.55250178  0.56519119  0.44244753
   0.52824869  0.41610105  0.53916710
   0.50327151  0.46732701  0.44510684

 position of ions in cartesian coordinates  (Angst):
   5.34329285  4.18323017  3.54587322
   3.97585138  4.94251842  4.31436808
   5.53056598  5.79820259  4.35252003
   5.25774468  4.32901168  5.30398623
   5.02620510  4.81662612  4.37868070



--------------------------------------------------------------------------------------------------------


 k-point  1 :   0.2500 0.2500 0.2500  plane waves:   17408
 k-point  2 :  -0.2500 0.2500 0.2500  plane waves:   17409
 k-point  3 :   0.2500-0.2500 0.2500  plane waves:   17402
 k-point  4 :  -0.2500-0.2500 0.2500  plane waves:   17409

 maximum and minimum number of plane-waves per node :     17409    17402

 maximum number of plane-waves:     17409
 maximum index in each direction: 
   IXMAX=   16   IYMAX=   16   IZMAX=   15
   IXMIN=  -16   IYMIN=  -16   IZMIN=  -16


 serial   3D FFT for wavefunctions
 parallel 3D FFT for charge:
    minimum data exchange during FFTs selected (reduces bandwidth)


 total amount of memory used by VASP MPI-rank0   259784. kBytes
=======================================================================

   base      :      30000. kBytes
   nonlr-proj:        146. kBytes
   fftplans  :      79272. kBytes
   grid      :     141424. kBytes
   one-center:         15. kBytes
   wavefun   :       8927. kBytes

     INWAV:  cpu time    0.0000: real time    0.0000
 Broyden mixing: mesh for mixing (old mesh)
   NGX = 31   NGY = 33   NGZ = 33
  (NGX  =128   NGY  =140   NGZ  =128)
  gives a total of  33759 points

 initial charge density was supplied:
 charge density of overlapping atoms calculated
 number of electron       8.0000000 magnetization 
 keeping initial charge density in first step


--------------------------------------------------------------------------------------------------------


 Maximum index for non-local projection operator          648
 Maximum index for augmentation-charges         3430 (set IRDMAX)


--------------------------------------------------------------------------------------------------------


 First call to EWALD:  gamma=   0.180
 Maximum number of real-space cells 3x 3x 3
 Maximum number of reciprocal cells 3x 3x 3

    FEWALD:  cpu time    0.0007: real time    0.0007


--------------------------------------- Iteration      1(   1)  ---------------------------------------


    POTLOK:  cpu time    1.5821: real time    1.5862
    SETDIJ:  cpu time    0.0066: real time    0.0066
     EDDAV:  cpu time    2.2762: real time    2.2816
       DOS:  cpu time    0.0003: real time    0.0003
    --------------------------------------------
      LOOP:  cpu time    3.8653: real time    3.8747

 eigenvalue-minimisations  :    88
 total energy-change (2. order) : 0.2504783E+02  (-0.1871315E+03)
 number of electron       8.0000000 magnetization 
 augmentation part        8.0000000 magnetization 

 Free energy of the ion-electron system (eV)
  ---------------------------------------------------
  alpha Z        PSCENC =         0.25285334
  Ewald energy   TEWEN  =       130.47326200
  -Hartree energ DENC   =      -244.04435045
  -exchange      EXHF   =         0.00000000
  -V(xc)+E(xc)   XCENC  =        22.09379886
  PAW double counting   =       117.05815612     -117.66307307
  entropy T*S    EENTRO =        -0.03199891
  eigenvalues    EBANDS =       -80.13257071
  atomic energy  EATOM  =       197.04175453
  Solvation  Ediel_sol  =         0.00000000
  ---------------------------------------------------
  free energy    TOTEN  =        25.04783171 eV

  energy without entropy =       25.07983062  energy(sigma->0) =       25.05849802


--------------------------------------------------------------------------------------------------------




--------------------------------------- Iteration      1(   2)  ---------------------------------------


     EDDAV:  cpu time    2.1012: real time    2.1062
       DOS:  cpu time    0.0002: real time    0.0002
    --------------------------------------------
      LOOP:  cpu time    2.1014: real time    2.1064

 eigenvalue-minimisations  :    80
 total energy-change (2. order) :-0.4652387E+02  (-0.3853042E+02)
 number of electron       8.0000000 magnetization 
 augmentation part        8.0000000 magnetization 

 Free energy of the ion-electron system (eV)
  ---------------------------------------------------
  alpha Z        PSCENC =         0.25285334
  Ewald energy   TEWEN  =       130.47326200
  -Hartree energ DENC   =      -244.04435045
  -exchange      EXHF   =         0.00000000
  -V(xc)+E(xc)   XCENC  =        22.09379886
  PAW double counting   =       117.05815612     -117.66307307
  entropy T*S    EENTRO =         0.00289895
  eigenvalues    EBANDS =      -126.69133642
  atomic energy  EATOM  =       197.04175453
  Solvation  Ediel_sol  =         0.00000000
  ---------------------------------------------------
  free energy    TOTEN  =       -21.47603614 eV

  energy without entropy =      -21.47893509  energy(sigma->0) =      -21.47700245


--------------------------------------------------------------------------------------------------------




--------------------------------------- Iteration      1(   3)  ---------------------------------------


     EDDAV:  cpu time    1.7601: real time    1.7643
       DOS:  cpu time    0.0002: real time    0.0002
    --------------------------------------------
      LOOP:  cpu time    1.7603: real time    1.7645

 eigenvalue-minimisations  :    64
 total energy-change (2. order) :-0.5995639E+01  (-0.6009430E+01)
 number of electron       8.0000000 magnetization 
 augmentation part        8.0000000 magnetization 

 Free energy of the ion-electron system (eV)
  ---------------------------------------------------
  alpha Z        PSCENC =         0.25285334
  Ewald energy   TEWEN  =       130.47326200
  -Hartree energ DENC   =      -244.04435045
  -exchange      EXHF   =         0.00000000
  -V(xc)+E(xc)   XCENC  =        22.09379886
  PAW double counting   =       117.05815612     -117.66307307
  entropy T*S    EENTRO =         0.03366413
  eigenvalues    EBANDS =      -132.71774102
  atomic energy  EATOM  =       197.04175453
  Solvation  Ediel_sol  =         0.00000000
  ---------------------------------------------------
  free energy    TOTEN  =       -27.47167555 eV

  energy without entropy =      -27.50533968  energy(sigma->0) =      -27.48289693


--------------------------------------------------------------------------------------------------------




--------------------------------------- Iteration      1(   4)  ---------------------------------------


     EDDAV:  cpu time    3.1721: real time    3.1796
       DOS:  cpu time    0.0002: real time    0.0002
    --------------------------------------------
      LOOP:  cpu time    3.1723: real time    3.1798

 eigenvalue-minimisations  :   128
 total energy-change (2. order) :-0.2529697E+00  (-0.2479951E+00)
 number of electron       8.0000000 magnetization 
 augmentation part        8.0000000 magnetization 

 Free energy of the ion-electron system (eV)
  ---------------------------------------------------
  alpha Z        PSCENC =         0.25285334
  Ewald energy   TEWEN  =       130.47326200
  -Hartree energ DENC   =      -244.04435045
  -exchange      EXHF   =         0.00000000
  -V(xc)+E(xc)   XCENC  =        22.09379886
  PAW double counting   =       117.05815612     -117.66307307
  entropy T*S    EENTRO =         0.02884608
  eigenvalues    EBANDS =      -132.96589271
  atomic energy  EATOM  =       197.04175453
  Solvation  Ediel_sol  =         0.00000000
  ---------------------------------------------------
  free energy    TOTEN  =       -27.72464529 eV

  energy without entropy =      -27.75349137  energy(sigma->0) =      -27.73426065


--------------------------------------------------------------------------------------------------------




--------------------------------------- Iteration      1(   5)  ---------------------------------------


     EDDAV:  cpu time    2.4223: real time    2.4280
       DOS:  cpu time    0.0002: real time    0.0002
    CHARGE:  cpu time    0.1670: real time    0.1674
    MIXING:  cpu time    0.0373: real time    0.0373
    --------------------------------------------
      LOOP:  cpu time    2.6268: real time    2.6330

 eigenvalue-minimisations  :    96
 total energy-change (2. order) :-0.7102208E-04  (-0.7102273E-04)
 number of electron       8.0000001 magnetization 
 augmentation part        0.2314064 magnetization 

 Broyden mixing:
  rms(total) = 0.90537E+00    rms(broyden)= 0.90513E+00
  rms(prec ) = 0.12823E+01
  weight for this iteration     100.00

 Free energy of the ion-electron system (eV)
  ---------------------------------------------------
  alpha Z        PSCENC =         0.25285334
  Ewald energy   TEWEN  =       130.47326200
  -Hartree energ DENC   =      -244.04435045
  -exchange      EXHF   =         0.00000000
  -V(xc)+E(xc)   XCENC  =        22.09379886
  PAW double counting   =       117.05815612     -117.66307307
  entropy T*S    EENTRO =         0.02884604
  eigenvalues    EBANDS =      -132.96596369
  atomic energy  EATOM  =       197.04175453
  Solvation  Ediel_sol  =         0.00000000
  ---------------------------------------------------
  free energy    TOTEN  =       -27.72471631 eV

  energy without entropy =      -27.75356235  energy(sigma->0) =      -27.73433166


--------------------------------------------------------------------------------------------------------




--------------------------------------- Iteration      1(   6)  ---------------------------------------


    POTLOK:  cpu time    1.5819: real time    1.5856
    SETDIJ:  cpu time    0.0064: real time    0.0065
    EDDIAG:  cpu time    0.3640: real time    0.3649
  RMM-DIIS:  cpu time    1.2307: real time    1.2336
    ORTHCH:  cpu time    0.0112: real time    0.0112
       DOS:  cpu time    0.0002: real time    0.0002
    CHARGE:  cpu time    0.1500: real time    0.1504
    MIXING:  cpu time    0.0373: real time    0.0374
    --------------------------------------------
      LOOP:  cpu time    3.3819: real time    3.3899

 eigenvalue-minimisations  :    64
 total energy-change (2. order) : 0.3086145E+01  (-0.5779459E+00)
 number of electron       8.0000001 magnetization 
 augmentation part        0.2038664 magnetization 

 Broyden mixing:
  rms(total) = 0.44936E+00    rms(broyden)= 0.44927E+00
  rms(prec ) = 0.58254E+00
  weight for this iteration     100.00

 eigenvalues of (default mixing * dielectric matrix)
  average eigenvalue GAMMA=   1.3046
  1.3046

 Free energy of the ion-electron system (eV)
  ---------------------------------------------------
  alpha Z        PSCENC =         0.25285334
  Ewald energy   TEWEN  =       130.47326200
  -Hartree energ DENC   =      -264.41029130
  -exchange      EXHF   =         0.00000000
  -V(xc)+E(xc)   XCENC  =        23.32980690
  PAW double counting   =       247.28308068     -248.07246781
  entropy T*S    EENTRO =         0.03529955
  eigenvalues    EBANDS =      -110.57186874
  atomic energy  EATOM  =       197.04175453
  Solvation  Ediel_sol  =         0.00000000
  ---------------------------------------------------
  free energy    TOTEN  =       -24.63857084 eV

  energy without entropy =      -24.67387039  energy(sigma->0) =      -24.65033735


--------------------------------------------------------------------------------------------------------




--------------------------------------- Iteration      1(   7)  ---------------------------------------


    POTLOK:  cpu time    1.5875: real time    1.5913
    SETDIJ:  cpu time    0.0064: real time    0.0064
    EDDIAG:  cpu time    0.3502: real time    0.3510
  RMM-DIIS:  cpu time    1.2707: real time    1.2737
    ORTHCH:  cpu time    0.0115: real time    0.0116
       DOS:  cpu time    0.0002: real time    0.0002
    CHARGE:  cpu time    0.1590: real time    0.1594
    MIXING:  cpu time    0.0390: real time    0.0391
    --------------------------------------------
      LOOP:  cpu time    3.4246: real time    3.4327

 eigenvalue-minimisations  :    64
 total energy-change (2. order) : 0.5239752E+00  (-0.1367442E+00)
 number of electron       8.0000001 magnetization 
 augmentation part        0.1927867 magnetization 

 Broyden mixing:
  rms(total) = 0.24564E+00    rms(broyden)= 0.24557E+00
  rms(prec ) = 0.29689E+00
  weight for this iteration     100.00

 eigenvalues of (default mixing * dielectric matrix)
  average eigenvalue GAMMA=   1.5619
  1.5619  1.5619

 Free energy of the ion-electron system (eV)
  ---------------------------------------------------
  alpha Z        PSCENC =         0.25285334
  Ewald energy   TEWEN  =       130.47326200
  -Hartree energ DENC   =      -276.58669970
  -exchange      EXHF   =         0.00000000
  -V(xc)+E(xc)   XCENC  =        24.21872087
  PAW double counting   =       387.39635206     -388.23027368
  entropy T*S    EENTRO =         0.03904453
  eigenvalues    EBANDS =       -98.71960963
  atomic energy  EATOM  =       197.04175453
  Solvation  Ediel_sol  =         0.00000000
  ---------------------------------------------------
  free energy    TOTEN  =       -24.11459567 eV

  energy without entropy =      -24.15364021  energy(sigma->0) =      -24.12761052


--------------------------------------------------------------------------------------------------------




--------------------------------------- Iteration      1(   8)  ---------------------------------------


    POTLOK:  cpu time    1.5689: real time    1.5726
    SETDIJ:  cpu time    0.0064: real time    0.0064
    EDDIAG:  cpu time    0.3642: real time    0.3650
  RMM-DIIS:  cpu time    1.2552: real time    1.2582
    ORTHCH:  cpu time    0.0116: real time    0.0116
       DOS:  cpu time    0.0002: real time    0.0002
    CHARGE:  cpu time    0.1567: real time    0.1571
    MIXING:  cpu time    0.0373: real time    0.0374
    --------------------------------------------
      LOOP:  cpu time    3.4005: real time    3.4085

 eigenvalue-minimisations  :    64
 total energy-change (2. order) : 0.1157878E+00  (-0.1140230E-01)
 number of electron       8.0000001 magnetization 
 augmentation part        0.1913550 magnetization 

 Broyden mixing:
  rms(total) = 0.10601E+00    rms(broyden)= 0.10594E+00
  rms(prec ) = 0.14360E+00
  weight for this iteration     100.00

 eigenvalues of (default mixing * dielectric matrix)
  average eigenvalue GAMMA=   1.4434
  2.2277  1.4695  0.6330

 Free energy of the ion-electron system (eV)
  ---------------------------------------------------
  alpha Z        PSCENC =         0.25285334
  Ewald energy   TEWEN  =       130.47326200
  -Hartree energ DENC   =      -280.62861965
  -exchange      EXHF   =         0.00000000
  -V(xc)+E(xc)   XCENC  =        24.60991486
  PAW double counting   =       474.10079892     -474.91290618
  entropy T*S    EENTRO =         0.03508726
  eigenvalues    EBANDS =       -94.97095290
  atomic energy  EATOM  =       197.04175453
  Solvation  Ediel_sol  =         0.00000000
  ---------------------------------------------------
  free energy    TOTEN  =       -23.99880783 eV

  energy without entropy =      -24.03389508  energy(sigma->0) =      -24.01050358


--------------------------------------------------------------------------------------------------------




--------------------------------------- Iteration      1(   9)  ---------------------------------------


    POTLOK:  cpu time    1.5748: real time    1.5785
    SETDIJ:  cpu time    0.0064: real time    0.0064
    EDDIAG:  cpu time    0.3598: real time    0.3607
  RMM-DIIS:  cpu time    1.3105: real time    1.3135
    ORTHCH:  cpu time    0.0119: real time    0.0119
       DOS:  cpu time    0.0002: real time    0.0002
    CHARGE:  cpu time    0.1485: real time    0.1488
    MIXING:  cpu time    0.0383: real time    0.0383
    --------------------------------------------
      LOOP:  cpu time    3.4504: real time    3.4585

 eigenvalue-minimisations  :    64
 total energy-change (2. order) : 0.3883735E-01  (-0.4028673E-02)
 number of electron       8.0000001 magnetization 
 augmentation part        0.1908127 magnetization 

 Broyden mixing:
  rms(total) = 0.62610E-01    rms(broyden)= 0.62598E-01
  rms(prec ) = 0.91156E-01
  weight for this iteration     100.00

 eigenvalues of (default mixing * dielectric matrix)
  average eigenvalue GAMMA=   1.3167
  2.1560  1.4334  0.8387  0.8387

 Free energy of the ion-electron system (eV)
  ---------------------------------------------------
  alpha Z        PSCENC =         0.25285334
  Ewald energy   TEWEN  =       130.47326200
  -Hartree energ DENC   =      -282.73789473
  -exchange      EXHF   =         0.00000000
  -V(xc)+E(xc)   XCENC  =        24.79971410
  PAW double counting   =       513.17139407     -513.97371454
  entropy T*S    EENTRO =         0.03924791
  eigenvalues    EBANDS =       -93.02658716
  atomic energy  EATOM  =       197.04175453
  Solvation  Ediel_sol  =         0.00000000
  ---------------------------------------------------
  free energy    TOTEN  =       -23.95997048 eV

  energy without entropy =      -23.99921839  energy(sigma->0) =      -23.97305312


--------------------------------------------------------------------------------------------------------




--------------------------------------- Iteration      1(  10)  ---------------------------------------


    POTLOK:  cpu time    1.5610: real time    1.5647
    SETDIJ:  cpu time    0.0065: real time    0.0065
    EDDIAG:  cpu time    0.3325: real time    0.3333
  RMM-DIIS:  cpu time    1.3098: real time    1.3129
    ORTHCH:  cpu time    0.0115: real time    0.0115
       DOS:  cpu time    0.0002: real time    0.0002
    CHARGE:  cpu time    0.1669: real time    0.1673
    MIXING:  cpu time    0.0403: real time    0.0404
    --------------------------------------------
      LOOP:  cpu time    3.4287: real time    3.4368

 eigenvalue-minimisations  :    64
 total energy-change (2. order) : 0.4280809E-02  (-0.1120037E-02)
 number of electron       8.0000001 magnetization 
 augmentation part        0.1904618 magnetization 

 Broyden mixing:
  rms(total) = 0.41768E-01    rms(broyden)= 0.41637E-01
  rms(prec ) = 0.63090E-01
  weight for this iteration     100.00

 eigenvalues of (default mixing * dielectric matrix)
  average eigenvalue GAMMA=   1.3439
  1.9169  1.9169  1.2481  0.8186  0.8186

 Free energy of the ion-electron system (eV)
  ---------------------------------------------------
  alpha Z        PSCENC =         0.25285334
  Ewald energy   TEWEN  =       130.47326200
  -Hartree energ DENC   =      -283.50485157
  -exchange      EXHF   =         0.00000000
  -V(xc)+E(xc)   XCENC  =        24.83149055
  PAW double counting   =       510.31890389     -511.12404631
  entropy T*S    EENTRO =         0.03823095
  eigenvalues    EBANDS =       -92.28328706
  atomic energy  EATOM  =       197.04175453
  Solvation  Ediel_sol  =         0.00000000
  ---------------------------------------------------
  free energy    TOTEN  =       -23.95568967 eV

  energy without entropy =      -23.99392063  energy(sigma->0) =      -23.96843332


--------------------------------------------------------------------------------------------------------




--------------------------------------- Iteration      1(  11)  ---------------------------------------


    POTLOK:  cpu time    1.5899: real time    1.5937
    SETDIJ:  cpu time    0.0065: real time    0.0065
    EDDIAG:  cpu time    0.3414: real time    0.3422
  RMM-DIIS:  cpu time    1.2457: real time    1.2486
    ORTHCH:  cpu time    0.0116: real time    0.0116
       DOS:  cpu time    0.0002: real time    0.0002
    CHARGE:  cpu time    0.1603: real time    0.1607
    MIXING:  cpu time    0.0423: real time    0.0424
    --------------------------------------------
      LOOP:  cpu time    3.3978: real time    3.4060

 eigenvalue-minimisations  :    64
 total energy-change (2. order) :-0.4425076E-02  (-0.1132024E-02)
 number of electron       8.0000001 magnetization 
 augmentation part        0.1900844 magnetization 

 Broyden mixing:
  rms(total) = 0.75831E-01    rms(broyden)= 0.75759E-01
  rms(prec ) = 0.10248E+00
  weight for this iteration     100.00

 eigenvalues of (default mixing * dielectric matrix)
  average eigenvalue GAMMA=   1.5345
  2.8713  2.6592  1.3328  0.9520  0.6958  0.6958

 Free energy of the ion-electron system (eV)
  ---------------------------------------------------
  alpha Z        PSCENC =         0.25285334
  Ewald energy   TEWEN  =       130.47326200
  -Hartree energ DENC   =      -284.66787654
  -exchange      EXHF   =         0.00000000
  -V(xc)+E(xc)   XCENC  =        24.88285613
  PAW double counting   =       508.81295781     -509.61684565
  entropy T*S    EENTRO =         0.04071782
  eigenvalues    EBANDS =       -91.17979419
  atomic energy  EATOM  =       197.04175453
  Solvation  Ediel_sol  =         0.00000000
  ---------------------------------------------------
  free energy    TOTEN  =       -23.96011475 eV

  energy without entropy =      -24.00083257  energy(sigma->0) =      -23.97368736


--------------------------------------------------------------------------------------------------------




--------------------------------------- Iteration      1(  12)  ---------------------------------------


    POTLOK:  cpu time    1.5334: real time    1.5370
    SETDIJ:  cpu time    0.0064: real time    0.0065
    EDDIAG:  cpu time    0.3605: real time    0.3614
  RMM-DIIS:  cpu time    1.2077: real time    1.2106
    ORTHCH:  cpu time    0.0115: real time    0.0115
       DOS:  cpu time    0.0002: real time    0.0002
    CHARGE:  cpu time    0.1673: real time    0.1677
    MIXING:  cpu time    0.0424: real time    0.0425
    --------------------------------------------
      LOOP:  cpu time    3.3295: real time    3.3373

 eigenvalue-minimisations  :    64
 total energy-change (2. order) : 0.1113412E-01  (-0.7162588E-03)
 number of electron       8.0000001 magnetization 
 augmentation part        0.1898445 magnetization 

 Broyden mixing:
  rms(total) = 0.96798E-02    rms(broyden)= 0.94730E-02
  rms(prec ) = 0.15458E-01
  weight for this iteration     100.00

 eigenvalues of (default mixing * dielectric matrix)
  average eigenvalue GAMMA=   1.4608
  3.1217  2.4403  1.1985  1.1985  0.8534  0.7067  0.7067

 Free energy of the ion-electron system (eV)
  ---------------------------------------------------
  alpha Z        PSCENC =         0.25285334
  Ewald energy   TEWEN  =       130.47326200
  -Hartree energ DENC   =      -285.55262412
  -exchange      EXHF   =         0.00000000
  -V(xc)+E(xc)   XCENC  =        24.91283111
  PAW double counting   =       502.21335014     -503.01711602
  entropy T*S    EENTRO =         0.03702595
  eigenvalues    EBANDS =       -90.31031758
  atomic energy  EATOM  =       197.04175453
  Solvation  Ediel_sol  =         0.00000000
  ---------------------------------------------------
  free energy    TOTEN  =       -23.94898063 eV

  energy without entropy =      -23.98600658  energy(sigma->0) =      -23.96132262


--------------------------------------------------------------------------------------------------------




--------------------------------------- Iteration      1(  13)  ---------------------------------------


    POTLOK:  cpu time    1.5309: real time    1.5346
    SETDIJ:  cpu time    0.0064: real time    0.0064
    EDDIAG:  cpu time    0.3698: real time    0.3706
  RMM-DIIS:  cpu time    1.2114: real time    1.2142
    ORTHCH:  cpu time    0.0115: real time    0.0115
       DOS:  cpu time    0.0002: real time    0.0002
    CHARGE:  cpu time    0.1635: real time    0.1639
    MIXING:  cpu time    0.0415: real time    0.0416
    --------------------------------------------
      LOOP:  cpu time    3.3351: real time    3.3430

 eigenvalue-minimisations  :    64
 total energy-change (2. order) :-0.3378017E-02  (-0.1105568E-03)
 number of electron       8.0000001 magnetization 
 augmentation part        0.1899123 magnetization 

 Broyden mixing:
  rms(total) = 0.14879E-01    rms(broyden)= 0.14855E-01
  rms(prec ) = 0.21326E-01
  weight for this iteration     100.00

 eigenvalues of (default mixing * dielectric matrix)
  average eigenvalue GAMMA=   1.5248
  3.2234  2.2624  2.2624  1.4210  0.6920  0.6920  0.9078  0.7374

 Free energy of the ion-electron system (eV)
  ---------------------------------------------------
  alpha Z        PSCENC =         0.25285334
  Ewald energy   TEWEN  =       130.47326200
  -Hartree energ DENC   =      -285.63516520
  -exchange      EXHF   =         0.00000000
  -V(xc)+E(xc)   XCENC  =        24.91662250
  PAW double counting   =       504.21229594     -505.01407124
  entropy T*S    EENTRO =         0.03719339
  eigenvalues    EBANDS =       -90.23710391
  atomic energy  EATOM  =       197.04175453
  Solvation  Ediel_sol  =         0.00000000
  ---------------------------------------------------
  free energy    TOTEN  =       -23.95235865 eV

  energy without entropy =      -23.98955203  energy(sigma->0) =      -23.96475644


--------------------------------------------------------------------------------------------------------




--------------------------------------- Iteration      1(  14)  ---------------------------------------


    POTLOK:  cpu time    1.4582: real time    1.4616
    SETDIJ:  cpu time    0.0065: real time    0.0065
    EDDIAG:  cpu time    0.3786: real time    0.3795
  RMM-DIIS:  cpu time    1.2583: real time    1.2612
    ORTHCH:  cpu time    0.0116: real time    0.0116
       DOS:  cpu time    0.0002: real time    0.0002
    CHARGE:  cpu time    0.1488: real time    0.1491
    MIXING:  cpu time    0.0424: real time    0.0425
    --------------------------------------------
      LOOP:  cpu time    3.3045: real time    3.3123

 eigenvalue-minimisations  :    64
 total energy-change (2. order) :-0.5220107E-02  (-0.1455349E-03)
 number of electron       8.0000001 magnetization 
 augmentation part        0.1899944 magnetization 

 Broyden mixing:
  rms(total) = 0.11288E-01    rms(broyden)= 0.11266E-01
  rms(prec ) = 0.15012E-01
  weight for this iteration     100.00

 eigenvalues of (default mixing * dielectric matrix)
  average eigenvalue GAMMA=   1.6339
  4.3420  2.7137  2.2103  1.2229  1.2229  0.6900  0.6900  0.8830  0.7305

 Free energy of the ion-electron system (eV)
  ---------------------------------------------------
  alpha Z        PSCENC =         0.25285334
  Ewald energy   TEWEN  =       130.47326200
  -Hartree energ DENC   =      -285.76357513
  -exchange      EXHF   =         0.00000000
  -V(xc)+E(xc)   XCENC  =        24.91609236
  PAW double counting   =       504.93823700     -505.73903911
  entropy T*S    EENTRO =         0.03704133
  eigenvalues    EBANDS =       -90.11420508
  atomic energy  EATOM  =       197.04175453
  Solvation  Ediel_sol  =         0.00000000
  ---------------------------------------------------
  free energy    TOTEN  =       -23.95757876 eV

  energy without entropy =      -23.99462008  energy(sigma->0) =      -23.96992587


--------------------------------------------------------------------------------------------------------




--------------------------------------- Iteration      1(  15)  ---------------------------------------


    POTLOK:  cpu time    1.4194: real time    1.4228
    SETDIJ:  cpu time    0.0064: real time    0.0065
    EDDIAG:  cpu time    0.3825: real time    0.3834
  RMM-DIIS:  cpu time    1.2488: real time    1.2517
    ORTHCH:  cpu time    0.0115: real time    0.0115
       DOS:  cpu time    0.0002: real time    0.0002
    CHARGE:  cpu time    0.1683: real time    0.1687
    MIXING:  cpu time    0.0448: real time    0.0449
    --------------------------------------------
      LOOP:  cpu time    3.2819: real time    3.2897

 eigenvalue-minimisations  :    64
 total energy-change (2. order) :-0.1669478E-02  (-0.6542930E-04)
 number of electron       8.0000001 magnetization 
 augmentation part        0.1898528 magnetization 

 Broyden mixing:
  rms(total) = 0.37200E-02    rms(broyden)= 0.37189E-02
  rms(prec ) = 0.56689E-02
  weight for this iteration     100.00

 eigenvalues of (default mixing * dielectric matrix)
  average eigenvalue GAMMA=   1.6820
  5.0691  2.9490  2.3239  1.2878  1.0291  1.0291  1.0565  0.6887  0.6887  0.6983

 Free energy of the ion-electron system (eV)
  ---------------------------------------------------
  alpha Z        PSCENC =         0.25285334
  Ewald energy   TEWEN  =       130.47326200
  -Hartree energ DENC   =      -285.89712712
  -exchange      EXHF   =         0.00000000
  -V(xc)+E(xc)   XCENC  =        24.91445354
  PAW double counting   =       502.85263294     -503.65519463
  entropy T*S    EENTRO =         0.03700826
  eigenvalues    EBANDS =       -89.97889109
  atomic energy  EATOM  =       197.04175453
  Solvation  Ediel_sol  =         0.00000000
  ---------------------------------------------------
  free energy    TOTEN  =       -23.95924823 eV

  energy without entropy =      -23.99625649  energy(sigma->0) =      -23.97158432


--------------------------------------------------------------------------------------------------------




--------------------------------------- Iteration      1(  16)  ---------------------------------------


    POTLOK:  cpu time    1.4208: real time    1.4241
    SETDIJ:  cpu time    0.0064: real time    0.0064
    EDDIAG:  cpu time    0.3779: real time    0.3788
  RMM-DIIS:  cpu time    1.2631: real time    1.2661
    ORTHCH:  cpu time    0.0117: real time    0.0117
       DOS:  cpu time    0.0002: real time    0.0002
    CHARGE:  cpu time    0.1565: real time    0.1569
    MIXING:  cpu time    0.0466: real time    0.0467
    --------------------------------------------
      LOOP:  cpu time    3.2831: real time    3.2909

 eigenvalue-minimisations  :    64
 total energy-change (2. order) :-0.1243620E-02  (-0.1471649E-04)
 number of electron       8.0000001 magnetization 
 augmentation part        0.1898287 magnetization 

 Broyden mixing:
  rms(total) = 0.13613E-02    rms(broyden)= 0.13545E-02
  rms(prec ) = 0.25693E-02
  weight for this iteration     100.00

 eigenvalues of (default mixing * dielectric matrix)
  average eigenvalue GAMMA=   1.8548
  5.7363  3.5548  2.4579  2.4579  1.2689  0.6892  0.6892  1.0267  0.9054  0.9054
  0.7104

 Free energy of the ion-electron system (eV)
  ---------------------------------------------------
  alpha Z        PSCENC =         0.25285334
  Ewald energy   TEWEN  =       130.47326200
  -Hartree energ DENC   =      -285.88858090
  -exchange      EXHF   =         0.00000000
  -V(xc)+E(xc)   XCENC  =        24.91197608
  PAW double counting   =       503.20396173     -504.00630803
  entropy T*S    EENTRO =         0.03701053
  eigenvalues    EBANDS =       -89.98642114
  atomic energy  EATOM  =       197.04175453
  Solvation  Ediel_sol  =         0.00000000
  ---------------------------------------------------
  free energy    TOTEN  =       -23.96049185 eV

  energy without entropy =      -23.99750239  energy(sigma->0) =      -23.97282870


--------------------------------------------------------------------------------------------------------




--------------------------------------- Iteration      1(  17)  ---------------------------------------


    POTLOK:  cpu time    1.4271: real time    1.4305
    SETDIJ:  cpu time    0.0065: real time    0.0065
    EDDIAG:  cpu time    0.3691: real time    0.3700
  RMM-DIIS:  cpu time    1.2609: real time    1.2639
    ORTHCH:  cpu time    0.0119: real time    0.0119
       DOS:  cpu time    0.0002: real time    0.0002
    CHARGE:  cpu time    0.1531: real time    0.1535
    MIXING:  cpu time    0.0448: real time    0.0449
    --------------------------------------------
      LOOP:  cpu time    3.2737: real time    3.2815

 eigenvalue-minimisations  :    64
 total energy-change (2. order) :-0.1288408E-02  (-0.2155334E-04)
 number of electron       8.0000001 magnetization 
 augmentation part        0.1898019 magnetization 

 Broyden mixing:
  rms(total) = 0.18155E-02    rms(broyden)= 0.18142E-02
  rms(prec ) = 0.23328E-02
  weight for this iteration     100.00

 eigenvalues of (default mixing * dielectric matrix)
  average eigenvalue GAMMA=   1.8896
  6.6295  4.0673  2.4589  2.3038  1.2461  1.2461  0.6893  0.6893  0.9442  0.9442
  0.7281  0.7281

 Free energy of the ion-electron system (eV)
  ---------------------------------------------------
  alpha Z        PSCENC =         0.25285334
  Ewald energy   TEWEN  =       130.47326200
  -Hartree energ DENC   =      -285.85488881
  -exchange      EXHF   =         0.00000000
  -V(xc)+E(xc)   XCENC  =        24.90638291
  PAW double counting   =       502.84549944     -503.64807385
  entropy T*S    EENTRO =         0.03701124
  eigenvalues    EBANDS =       -90.01558107
  atomic energy  EATOM  =       197.04175453
  Solvation  Ediel_sol  =         0.00000000
  ---------------------------------------------------
  free energy    TOTEN  =       -23.96178026 eV

  energy without entropy =      -23.99879150  energy(sigma->0) =      -23.97411734


--------------------------------------------------------------------------------------------------------




--------------------------------------- Iteration      1(  18)  ---------------------------------------


    POTLOK:  cpu time    1.4054: real time    1.4087
    SETDIJ:  cpu time    0.0064: real time    0.0065
    EDDIAG:  cpu time    0.3796: real time    0.3805
  RMM-DIIS:  cpu time    1.2729: real time    1.2759
    ORTHCH:  cpu time    0.0114: real time    0.0114
       DOS:  cpu time    0.0002: real time    0.0002
    CHARGE:  cpu time    0.1527: real time    0.1531
    MIXING:  cpu time    0.0466: real time    0.0467
    --------------------------------------------
      LOOP:  cpu time    3.2753: real time    3.2831

 eigenvalue-minimisations  :    64
 total energy-change (2. order) :-0.1463733E-03  (-0.2770120E-05)
 number of electron       8.0000001 magnetization 
 augmentation part        0.1898087 magnetization 

 Broyden mixing:
  rms(total) = 0.47551E-03    rms(broyden)= 0.47527E-03
  rms(prec ) = 0.78870E-03
  weight for this iteration     100.00

 eigenvalues of (default mixing * dielectric matrix)
  average eigenvalue GAMMA=   2.0775
  7.4856  4.7407  3.0007  2.2985  2.2985  0.6893  0.6893  1.1713  1.1713  0.9595
  0.9595  0.7007  0.8421

 Free energy of the ion-electron system (eV)
  ---------------------------------------------------
  alpha Z        PSCENC =         0.25285334
  Ewald energy   TEWEN  =       130.47326200
  -Hartree energ DENC   =      -285.86122525
  -exchange      EXHF   =         0.00000000
  -V(xc)+E(xc)   XCENC  =        24.90776571
  PAW double counting   =       503.43790521     -504.24011210
  entropy T*S    EENTRO =         0.03700832
  eigenvalues    EBANDS =       -90.01113839
  atomic energy  EATOM  =       197.04175453
  Solvation  Ediel_sol  =         0.00000000
  ---------------------------------------------------
  free energy    TOTEN  =       -23.96192663 eV

  energy without entropy =      -23.99893495  energy(sigma->0) =      -23.97426274


--------------------------------------------------------------------------------------------------------




--------------------------------------- Iteration      1(  19)  ---------------------------------------


    POTLOK:  cpu time    1.4011: real time    1.4044
    SETDIJ:  cpu time    0.0065: real time    0.0065
    EDDIAG:  cpu time    0.3883: real time    0.3892
  RMM-DIIS:  cpu time    1.2689: real time    1.2720
    ORTHCH:  cpu time    0.0114: real time    0.0114
       DOS:  cpu time    0.0002: real time    0.0002
    CHARGE:  cpu time    0.1549: real time    0.1553
    MIXING:  cpu time    0.0468: real time    0.0469
    --------------------------------------------
      LOOP:  cpu time    3.2780: real time    3.2858

 eigenvalue-minimisations  :    60
 total energy-change (2. order) :-0.1664960E-03  (-0.8938706E-06)
 number of electron       8.0000001 magnetization 
 augmentation part        0.1898043 magnetization 

 Broyden mixing:
  rms(total) = 0.65589E-03    rms(broyden)= 0.65554E-03
  rms(prec ) = 0.87759E-03
  weight for this iteration     100.00

 eigenvalues of (default mixing * dielectric matrix)
  average eigenvalue GAMMA=   2.0752
  7.8125  4.8823  3.2996  2.4802  2.1310  1.3222  1.3222  0.6893  0.6893  0.9945
  0.9945  0.8673  0.8673  0.7000

 Free energy of the ion-electron system (eV)
  ---------------------------------------------------
  alpha Z        PSCENC =         0.25285334
  Ewald energy   TEWEN  =       130.47326200
  -Hartree energ DENC   =      -285.86820803
  -exchange      EXHF   =         0.00000000
  -V(xc)+E(xc)   XCENC  =        24.90793995
  PAW double counting   =       503.24796880     -504.05023256
  entropy T*S    EENTRO =         0.03700914
  eigenvalues    EBANDS =       -90.00444031
  atomic energy  EATOM  =       197.04175453
  Solvation  Ediel_sol  =         0.00000000
  ---------------------------------------------------
  free energy    TOTEN  =       -23.96209313 eV

  energy without entropy =      -23.99910227  energy(sigma->0) =      -23.97442951


--------------------------------------------------------------------------------------------------------




--------------------------------------- Iteration      1(  20)  ---------------------------------------


    POTLOK:  cpu time    1.4169: real time    1.4202
    SETDIJ:  cpu time    0.0065: real time    0.0066
    EDDIAG:  cpu time    0.3812: real time    0.3821
  RMM-DIIS:  cpu time    1.0513: real time    1.0538
    ORTHCH:  cpu time    0.0116: real time    0.0116
       DOS:  cpu time    0.0002: real time    0.0002
    CHARGE:  cpu time    0.1671: real time    0.1675
    MIXING:  cpu time    0.0544: real time    0.0545
    --------------------------------------------
      LOOP:  cpu time    3.0892: real time    3.0965

 eigenvalue-minimisations  :    48
 total energy-change (2. order) :-0.2101662E-04  (-0.1401327E-06)
 number of electron       8.0000001 magnetization 
 augmentation part        0.1898009 magnetization 

 Broyden mixing:
  rms(total) = 0.20803E-03    rms(broyden)= 0.20630E-03
  rms(prec ) = 0.27872E-03
  weight for this iteration     100.00

 eigenvalues of (default mixing * dielectric matrix)
  average eigenvalue GAMMA=   2.1568
  8.3297  5.1867  3.5365  2.7172  2.1509  2.1509  1.2287  1.2287  0.6892  0.6892
  1.0186  1.0186  0.8525  0.8525  0.7019

 Free energy of the ion-electron system (eV)
  ---------------------------------------------------
  alpha Z        PSCENC =         0.25285334
  Ewald energy   TEWEN  =       130.47326200
  -Hartree energ DENC   =      -285.87509562
  -exchange      EXHF   =         0.00000000
  -V(xc)+E(xc)   XCENC  =        24.90825475
  PAW double counting   =       503.23299466     -504.03530048
  entropy T*S    EENTRO =         0.03700785
  eigenvalues    EBANDS =       -89.99784517
  atomic energy  EATOM  =       197.04175453
  Solvation  Ediel_sol  =         0.00000000
  ---------------------------------------------------
  free energy    TOTEN  =       -23.96211415 eV

  energy without entropy =      -23.99912199  energy(sigma->0) =      -23.97445010


--------------------------------------------------------------------------------------------------------




--------------------------------------- Iteration      1(  21)  ---------------------------------------


    POTLOK:  cpu time    1.4881: real time    1.4917
    SETDIJ:  cpu time    0.0064: real time    0.0064
    EDDIAG:  cpu time    0.3410: real time    0.3418
  RMM-DIIS:  cpu time    0.9746: real time    0.9769
    ORTHCH:  cpu time    0.0116: real time    0.0116
       DOS:  cpu time    0.0002: real time    0.0002
    CHARGE:  cpu time    0.1562: real time    0.1565
    MIXING:  cpu time    0.0523: real time    0.0524
    --------------------------------------------
      LOOP:  cpu time    3.0302: real time    3.0375

 eigenvalue-minimisations  :    48
 total energy-change (2. order) :-0.1022945E-04  (-0.1058204E-06)
 number of electron       8.0000001 magnetization 
 augmentation part        0.1898055 magnetization 

 Broyden mixing:
  rms(total) = 0.16246E-03    rms(broyden)= 0.16234E-03
  rms(prec ) = 0.21947E-03
  weight for this iteration     100.00

 eigenvalues of (default mixing * dielectric matrix)
  average eigenvalue GAMMA=   2.1148
  8.2832  5.3509  3.7382  2.7577  2.4442  2.0948  1.2474  1.2474  0.6892  0.6892
  1.0198  1.0198  0.8594  0.8594  0.7024  0.8337

 Free energy of the ion-electron system (eV)
  ---------------------------------------------------
  alpha Z        PSCENC =         0.25285334
  Ewald energy   TEWEN  =       130.47326200
  -Hartree energ DENC   =      -285.86865638
  -exchange      EXHF   =         0.00000000
  -V(xc)+E(xc)   XCENC  =        24.90792909
  PAW double counting   =       503.25876671     -504.06101378
  entropy T*S    EENTRO =         0.03700799
  eigenvalues    EBANDS =       -90.00402788
  atomic energy  EATOM  =       197.04175453
  Solvation  Ediel_sol  =         0.00000000
  ---------------------------------------------------
  free energy    TOTEN  =       -23.96212438 eV

  energy without entropy =      -23.99913236  energy(sigma->0) =      -23.97446037


--------------------------------------------------------------------------------------------------------




--------------------------------------- Iteration      1(  22)  ---------------------------------------


    POTLOK:  cpu time    1.5371: real time    1.5408
    SETDIJ:  cpu time    0.0064: real time    0.0064
    EDDIAG:  cpu time    0.3250: real time    0.3257
  RMM-DIIS:  cpu time    0.9399: real time    0.9421
    ORTHCH:  cpu time    0.0117: real time    0.0117
       DOS:  cpu time    0.0002: real time    0.0002
    CHARGE:  cpu time    0.1650: real time    0.1654
    MIXING:  cpu time    0.0541: real time    0.0543
    --------------------------------------------
      LOOP:  cpu time    3.0395: real time    3.0466

 eigenvalue-minimisations  :    48
 total energy-change (2. order) :-0.1423118E-05  (-0.1553351E-07)
 number of electron       8.0000001 magnetization 
 augmentation part        0.1898061 magnetization 

 Broyden mixing:
  rms(total) = 0.82636E-04    rms(broyden)= 0.82531E-04
  rms(prec ) = 0.10496E-03
  weight for this iteration     100.00

 eigenvalues of (default mixing * dielectric matrix)
  average eigenvalue GAMMA=   2.1209
  8.3490  5.2963  4.1949  2.6470  2.5835  1.8442  1.8442  0.6892  0.6892  1.2176
  1.2176  1.1567  0.7016  0.8635  0.8635  0.9959  0.9010

 Free energy of the ion-electron system (eV)
  ---------------------------------------------------
  alpha Z        PSCENC =         0.25285334
  Ewald energy   TEWEN  =       130.47326200
  -Hartree energ DENC   =      -285.87043109
  -exchange      EXHF   =         0.00000000
  -V(xc)+E(xc)   XCENC  =        24.90803170
  PAW double counting   =       503.27420961     -504.07646081
  entropy T*S    EENTRO =         0.03700806
  eigenvalues    EBANDS =       -90.00235313
  atomic energy  EATOM  =       197.04175453
  Solvation  Ediel_sol  =         0.00000000
  ---------------------------------------------------
  free energy    TOTEN  =       -23.96212580 eV

  energy without entropy =      -23.99913386  energy(sigma->0) =      -23.97446182


--------------------------------------------------------------------------------------------------------




--------------------------------------- Iteration      1(  23)  ---------------------------------------


    POTLOK:  cpu time    1.5640: real time    1.5677
    SETDIJ:  cpu time    0.0064: real time    0.0064
    EDDIAG:  cpu time    0.3544: real time    0.3552
  RMM-DIIS:  cpu time    0.9507: real time    0.9529
    ORTHCH:  cpu time    0.0114: real time    0.0114
       DOS:  cpu time    0.0002: real time    0.0002
    --------------------------------------------
      LOOP:  cpu time    2.8870: real time    2.8938

 eigenvalue-minimisations  :    48
 total energy-change (2. order) :-0.8750146E-06  (-0.1724138E-07)
 number of electron       8.0000001 magnetization 
 augmentation part        0.1898061 magnetization 

 Free energy of the ion-electron system (eV)
  ---------------------------------------------------
  alpha Z        PSCENC =         0.25285334
  Ewald energy   TEWEN  =       130.47326200
  -Hartree energ DENC   =      -285.87303794
  -exchange      EXHF   =         0.00000000
  -V(xc)+E(xc)   XCENC  =        24.90811577
  PAW double counting   =       503.25604876     -504.05833166
  entropy T*S    EENTRO =         0.03700807
  eigenvalues    EBANDS =       -89.99979955
  atomic energy  EATOM  =       197.04175453
  Solvation  Ediel_sol  =         0.00000000
  ---------------------------------------------------
  free energy    TOTEN  =       -23.96212667 eV

  energy without entropy =      -23.99913475  energy(sigma->0) =      -23.97446270


--------------------------------------------------------------------------------------------------------




 average (electrostatic) potential at core
  the test charge radii are     0.5201  0.6991
  (the norm of the test charge is              1.0000)
       1 -41.5536       2 -41.6937       3 -41.4465       4 -41.6520       5 -57.8626



 E-fermi :  -9.1527     XC(G=0):  -0.7214     alpha+bet : -0.2199


 k-point     1 :       0.2500    0.2500    0.2500
  band No.  band energies     occupation 
      1     -16.9899      2.00000
      2      -9.3924      2.07069
      3      -9.3124      1.97929
      4      -9.3021      1.95032
      5      -0.2983      0.00000
      6       0.6087      0.00000
      7       0.7129      0.00000
      8       0.7314      0.00000

 k-point     2 :      -0.2500    0.2500    0.2500
  band No.  band energies     occupation 
      1     -16.9899      2.00000
      2      -9.3925      2.07070
      3      -9.3124      1.97908
      4      -9.3020      1.95009
      5      -0.2921      0.00000
      6       0.5903      0.00000
      7       0.6942      0.00000
      8       0.7218      0.00000

 k-point     3 :       0.2500   -0.2500    0.2500
  band No.  band energies     occupation 
      1     -16.9899      2.00000
      2      -9.3925      2.07070
      3      -9.3124      1.97924
      4      -9.3020      1.94997
      5      -0.2873      0.00000
      6       0.5766      0.00000
      7       0.6831      0.00000
      8       0.7148      0.00000

 k-point     4 :      -0.2500   -0.2500    0.2500
  band No.  band energies     occupation 
      1     -16.9899      2.00000
      2      -9.3925      2.07070
      3      -9.3124      1.97922
      4      -9.3020      1.94998
      5      -0.2917      0.00000
      6       0.5891      0.00000
      7       0.6928      0.00000
      8       0.7258      0.00000


--------------------------------------------------------------------------------------------------------


 soft charge-density along one line, spin component           1
         0         1         2         3         4         5         6         7         8         9
 total charge-density along one line

 pseudopotential strength for first ion, spin component:           1
 -2.342  -4.035  -0.001  -0.001   0.001
 -4.035  -6.868  -0.003  -0.004   0.002
 -0.001  -0.003  -0.336   0.002  -0.001
 -0.001  -0.004   0.002  -0.335  -0.001
  0.001   0.002  -0.001  -0.001  -0.337
 total augmentation occupancy for first ion, spin component:           1
  3.897  -0.770   0.273   0.364  -0.133
 -0.770   0.165  -0.055  -0.073   0.027
  0.273  -0.055   0.024   0.022  -0.008
  0.364  -0.073   0.022   0.038  -0.011
 -0.133   0.027  -0.008  -0.011   0.013


------------------------ aborting loop because EDIFF is reached ----------------------------------------


    CHARGE:  cpu time    0.1427: real time    0.1430
    FORLOC:  cpu time    0.1037: real time    0.1040
    FORNL :  cpu time    0.5075: real time    0.5087
    STRESS:  cpu time    1.6498: real time    1.6537
    FORCOR:  cpu time    1.5705: real time    1.5742
    FORHAR:  cpu time    0.5110: real time    0.5122
    MIXING:  cpu time    0.0519: real time    0.0521
    OFIELD:  cpu time    0.0000: real time    0.0000

  FORCE on cell =-STRESS in cart. coord.  units (eV):
  Direction    XX          YY          ZZ          XY          YZ          ZX
  --------------------------------------------------------------------------------------
  Alpha Z     0.25285     0.25285     0.25285
  Ewald      45.65997    41.14522    43.66805     1.12337     1.23131     1.25034
  Hartree    97.03342    93.35825    95.47919     0.86285     0.98964     0.53857
  E(xc)     -27.39731   -27.38306   -27.39207     0.00946     0.00855     0.00444
  Local    -201.09193  -193.22694  -197.69601    -2.12542    -2.42052    -1.94092
  n-local   -16.26280   -16.10087   -16.57349    -0.21851    -0.05503    -0.34712
  augment     0.10437     0.11160     0.10760     0.00310     0.00457     0.00127
  Kinetic   102.85449   101.45840   102.36805    -0.30473    -0.01161     0.82976
  Fock        0.00000     0.00000     0.00000     0.00000     0.00000     0.00000
  -------------------------------------------------------------------------------------
  Total       1.15307    -0.38455     0.21418    -0.64988    -0.25308     0.33634
  in kB       1.92828    -0.64308     0.35817    -1.08679    -0.42322     0.56246
  external pressure =        0.55 kB  Pullay stress =        0.00 kB

  kinetic pressure (ideal gas correction) =      0.03 kB
  total pressure  =      0.58 kB
  Total+kin.     1.960      -0.606       0.376      -1.112      -0.436       0.575

 VOLUME and BASIS-vectors are now :
 -----------------------------------------------------------------------------
  energy-cutoff  :      400.00
  volume of cell :      958.07
      direct lattice vectors                 reciprocal lattice vectors
     9.702526420  0.000000000  0.000000000     0.103065939 -0.002811235 -0.000278250
     0.273788176 10.037664411  0.000000000     0.000000000  0.099624769 -0.002861194
     0.034264475  0.282526404  9.837370016     0.000000000  0.000000000  0.101653186

  length of vectors
     9.702526420 10.041397652  9.841485867     0.103104647  0.099665847  0.101653186


 FORCES acting on ions
    electron-ion (+dipol)            ewald-force                    non-local-force                 convergence-correction
 -----------------------------------------------------------------------------------------------
   -.157E+02 0.307E+02 0.405E+02   0.173E+02 -.340E+02 -.449E+02   -.151E+01 0.365E+01 0.495E+01   -.539E-04 0.106E-03 0.174E-03
   0.543E+02 -.671E+01 0.319E+01   -.615E+02 0.761E+01 -.383E+01   0.612E+01 -.904E+00 0.544E+00   0.217E-03 -.109E-04 0.265E-04
   -.240E+02 -.469E+02 0.154E+01   0.265E+02 0.515E+02 -.154E+01   -.199E+01 -.405E+01 0.318E+00   -.102E-03 -.174E-03 0.264E-04
   -.117E+02 0.248E+02 -.468E+02   0.134E+02 -.278E+02 0.527E+02   -.170E+01 0.264E+01 -.469E+01   -.318E-04 0.916E-04 -.168E-03
   -.393E+01 -.227E+01 0.221E+01   0.438E+01 0.265E+01 -.241E+01   -.936E+00 0.704E-01 0.523E+00   0.892E-04 -.274E-04 0.299E-03
 -----------------------------------------------------------------------------------------------
   -.110E+01 -.386E+00 0.650E+00   0.711E-14 -.711E-14 0.000E+00   -.102E-01 0.140E+01 0.165E+01   0.119E-03 -.141E-04 0.357E-03


 POSITION                                       TOTAL-FORCE (eV/Angst)
 -----------------------------------------------------------------------------------
      5.34329      4.18323      3.54587         0.094062      0.389845      0.577179
      3.97585      4.94252      4.31437        -1.142176     -0.010725     -0.097063
      5.53057      5.79820      4.35252         0.464177      0.498863      0.320544
      5.25774      4.32901      5.30399        -0.044918     -0.307881      1.176620
      5.02621      4.81663      4.37868        -0.481090      0.446367      0.319711
 -----------------------------------------------------------------------------------
    total drift:                               -1.109945      1.016469      2.296991


--------------------------------------------------------------------------------------------------------



  FREE ENERGIE OF THE ION-ELECTRON SYSTEM (eV)
  ---------------------------------------------------
  free  energy   TOTEN  =       -23.96212667 eV

  energy  without entropy=      -23.99913475  energy(sigma->0) =      -23.97446270



--------------------------------------------------------------------------------------------------------


    POTLOK:  cpu time    1.5366: real time    1.5402


--------------------------------------------------------------------------------------------------------


           RANDOM_SEED =         578495917                0                0
           RANDOM_SEED =         578495917               30                0
   IONSTEP:  cpu time    0.0017: real time    0.0019

  ENERGY OF THE ELECTRON-ION-THERMOSTAT SYSTEM (eV)
  ---------------------------------------------------
% ion-electron   TOTEN  =       -23.962127  see above
  kinetic energy EKIN   =         0.033641
  kin. lattice  EKIN_LAT=         0.000000  (temperature   65.06 K)
  nose potential ES     =         0.000000
  nose kinetic   EPS    =         0.000007
  ---------------------------------------------------
  total energy   ETOTAL =       -23.928478 eV

  maximum distance moved by ions :      0.46E-02


 mean value of Nose-termostat <S>:     1.004 mean value of <T> :    65.065
 mean temperature <T/S>/<1/S>  :    65.065

    WAVPRE:  cpu time    0.4097: real time    0.4159
    FEWALD:  cpu time    0.0004: real time    0.0004
    ORTHCH:  cpu time    0.1766: real time    0.1770
     LOOP+:  cpu time   79.0889: real time   79.2834


--------------------------------------- Iteration      2(   1)  ---------------------------------------


    POTLOK:  cpu time    1.5393: real time    1.5430
    SETDIJ:  cpu time    0.0064: real time    0.0064
     EDDAV:  cpu time    1.6685: real time    1.6725
       DOS:  cpu time    0.0002: real time    0.0002
    CHARGE:  cpu time    0.1596: real time    0.1600
    MIXING:  cpu time    0.0404: real time    0.0405
    --------------------------------------------
      LOOP:  cpu time    3.4145: real time    3.4226

 eigenvalue-minimisations  :    64
 total energy-change (2. order) :-0.2018480E-01  (-0.2766311E+00)
 number of electron       8.0000002 magnetization 
 augmentation part        0.1852012 magnetization 

 Broyden mixing:
  rms(total) = 0.93914E-01    rms(broyden)= 0.93809E-01
  rms(prec ) = 0.11525E+00
  weight for this iteration     100.00

 Free energy of the ion-electron system (eV)
  ---------------------------------------------------
  alpha Z        PSCENC =         0.25285334
  Ewald energy   TEWEN  =       126.94973888
  -Hartree energ DENC   =      -283.80069351
  -exchange      EXHF   =         0.00000000
  -V(xc)+E(xc)   XCENC  =        24.80278958
  PAW double counting   =       503.24999212     -504.05227162
  entropy T*S    EENTRO =         0.02565035
  eigenvalues    EBANDS =       -88.45212427
  atomic energy  EATOM  =       197.04175453
  Solvation  Ediel_sol  =         0.00000000
  ---------------------------------------------------
  free energy    TOTEN  =       -23.98231060 eV

  energy without entropy =      -24.00796096  energy(sigma->0) =      -23.99086072


--------------------------------------------------------------------------------------------------------




--------------------------------------- Iteration      2(   2)  ---------------------------------------


    POTLOK:  cpu time    1.4294: real time    1.4328
    SETDIJ:  cpu time    0.0064: real time    0.0064
    EDDIAG:  cpu time    0.3413: real time    0.3421
  RMM-DIIS:  cpu time    1.2189: real time    1.2218
    ORTHCH:  cpu time    0.0113: real time    0.0113
       DOS:  cpu time    0.0002: real time    0.0002
    CHARGE:  cpu time    0.1412: real time    0.1416
    MIXING:  cpu time    0.0539: real time    0.0540
    --------------------------------------------
      LOOP:  cpu time    3.2026: real time    3.2102

 eigenvalue-minimisations  :    64
 total energy-change (2. order) :-0.1441140E-01  (-0.1168664E-01)
 number of electron       8.0000001 magnetization 
 augmentation part        0.1853017 magnetization 

 Broyden mixing:
  rms(total) = 0.10950E+00    rms(broyden)= 0.10946E+00
  rms(prec ) = 0.13693E+00
  weight for this iteration     100.00

 eigenvalues of (default mixing * dielectric matrix)
  average eigenvalue GAMMA=   2.1197
  8.3616  5.3862  4.1757  2.9018  2.9018  2.3755  2.1029  1.8270  0.6892  0.6892
  0.7018  1.1550  1.1550  0.8618  0.8618  1.0633  1.0633  1.0008  1.0008

 Free energy of the ion-electron system (eV)
  ---------------------------------------------------
  alpha Z        PSCENC =         0.25285334
  Ewald energy   TEWEN  =       126.94973888
  -Hartree energ DENC   =      -282.58675594
  -exchange      EXHF   =         0.00000000
  -V(xc)+E(xc)   XCENC  =        24.69538093
  PAW double counting   =       473.07415813     -473.87634513
  entropy T*S    EENTRO =         0.02541459
  eigenvalues    EBANDS =       -89.57292135
  atomic energy  EATOM  =       197.04175453
  Solvation  Ediel_sol  =         0.00000000
  ---------------------------------------------------
  free energy    TOTEN  =       -23.99672201 eV

  energy without entropy =      -24.02213660  energy(sigma->0) =      -24.00519354


--------------------------------------------------------------------------------------------------------




--------------------------------------- Iteration      2(   3)  ---------------------------------------


    POTLOK:  cpu time    1.3604: real time    1.3636
    SETDIJ:  cpu time    0.0064: real time    0.0064
    EDDIAG:  cpu time    0.3501: real time    0.3509
  RMM-DIIS:  cpu time    1.2031: real time    1.2060
    ORTHCH:  cpu time    0.0115: real time    0.0115
       DOS:  cpu time    0.0002: real time    0.0002
    CHARGE:  cpu time    0.1531: real time    0.1535
    MIXING:  cpu time    0.0556: real time    0.0557
    --------------------------------------------
      LOOP:  cpu time    3.1405: real time    3.1479

 eigenvalue-minimisations  :    64
 total energy-change (2. order) : 0.1958234E-01  (-0.1326851E-01)
 number of electron       8.0000002 magnetization 
 augmentation part        0.1874642 magnetization 

 Broyden mixing:
  rms(total) = 0.56365E-01    rms(broyden)= 0.56308E-01
  rms(prec ) = 0.71842E-01
  weight for this iteration     100.00

 eigenvalues of (default mixing * dielectric matrix)
  average eigenvalue GAMMA=   2.0930
  8.3630  5.3931  4.1757  2.9269  2.9269  2.4667  2.3024  2.1301  0.6892  0.6892
  1.1497  1.1497  1.1332  1.1332  0.7019  0.9653  0.9653  0.8609  0.8609  0.8771

 Free energy of the ion-electron system (eV)
  ---------------------------------------------------
  alpha Z        PSCENC =         0.25285334
[...]
  rms(prec ) = 0.92852E-03
  weight for this iteration     100.00

 eigenvalues of (default mixing * dielectric matrix)
  average eigenvalue GAMMA=   2.3753
  6.0398  6.0398  5.1011  0.9017  0.9017  4.3972  4.2688  1.3648  1.3648  0.8082
  0.8082  0.8629  0.8629  1.0140  1.1197  1.1197  1.2648  1.2648  1.7309  1.7309
  3.4459  3.3208  3.3208  2.3054  2.3054  1.6291  1.9032  1.9032  2.0892  2.0892
  3.0576  2.5866  2.5866  2.1778  2.8735  2.8735  2.7606  2.7606  2.3465  2.4468
  2.4468  2.5261  2.5261  2.6137  2.6137  2.5858  2.4641  2.4890

 Free energy of the ion-electron system (eV)
  ---------------------------------------------------
  alpha Z        PSCENC =         0.25285334
  Ewald energy   TEWEN  =       129.08977253
  -Hartree energ DENC   =      -284.67340389
  -exchange      EXHF   =         0.00000000
  -V(xc)+E(xc)   XCENC  =        24.84086531
  PAW double counting   =       471.40604894     -472.20436929
  entropy T*S    EENTRO =         0.02054191
  eigenvalues    EBANDS =       -89.80432445
  atomic energy  EATOM  =       197.04175453
  Solvation  Ediel_sol  =         0.00000000
  ---------------------------------------------------
  free energy    TOTEN  =       -24.03026107 eV

  energy without entropy =      -24.05080298  energy(sigma->0) =      -24.03710838


--------------------------------------------------------------------------------------------------------




--------------------------------------- Iteration     10(  12)  ---------------------------------------


    POTLOK:  cpu time    1.4593: real time    1.4628
    SETDIJ:  cpu time    0.0063: real time    0.0064
    EDDIAG:  cpu time    0.3723: real time    0.3732
  RMM-DIIS:  cpu time    1.1594: real time    1.1622
    ORTHCH:  cpu time    0.0112: real time    0.0112
       DOS:  cpu time    0.0002: real time    0.0002
    CHARGE:  cpu time    0.1510: real time    0.1514
    MIXING:  cpu time    0.1448: real time    0.1453
    --------------------------------------------
      LOOP:  cpu time    3.3047: real time    3.3127

 eigenvalue-minimisations  :    64
 total energy-change (2. order) :-0.9945476E-06  (-0.1450458E-05)
 number of electron       7.9999997 magnetization 
 augmentation part        0.1899044 magnetization 

 Broyden mixing:
  rms(total) = 0.44016E-03    rms(broyden)= 0.43478E-03
  rms(prec ) = 0.55210E-03
  weight for this iteration     100.00

 eigenvalues of (default mixing * dielectric matrix)
  average eigenvalue GAMMA=   2.4116
  5.8319  5.8319  5.2713  4.5625  0.8440  0.8440  3.6901  3.6901  3.7310  3.7310
  3.6159  0.7778  0.7778  1.0975  1.0975  0.8678  0.9899  0.9899  1.1305  1.1305
  1.3816  1.3816  2.2717  2.2717  1.7993  1.7993  1.6003  2.6773  2.6773  1.9709
  2.0458  2.0458  2.9665  2.6918  2.6918  2.8493  2.8493  2.3910  2.3910  2.7345
  2.3089  2.3089  2.4726  2.4726  2.3994  2.5678  2.5678  2.5935  2.4846

 Free energy of the ion-electron system (eV)
  ---------------------------------------------------
  alpha Z        PSCENC =         0.25285334
  Ewald energy   TEWEN  =       129.08977253
  -Hartree energ DENC   =      -284.67435880
  -exchange      EXHF   =         0.00000000
  -V(xc)+E(xc)   XCENC  =        24.84087914
  PAW double counting   =       471.41091868     -472.20925204
  entropy T*S    EENTRO =         0.02023735
  eigenvalues    EBANDS =       -89.80306680
  atomic energy  EATOM  =       197.04175453
  Solvation  Ediel_sol  =         0.00000000
  ---------------------------------------------------
  free energy    TOTEN  =       -24.03026207 eV

  energy without entropy =      -24.05049942  energy(sigma->0) =      -24.03700785


--------------------------------------------------------------------------------------------------------




--------------------------------------- Iteration     10(  13)  ---------------------------------------


    POTLOK:  cpu time    1.5045: real time    1.5081
    SETDIJ:  cpu time    0.0064: real time    0.0064
    EDDIAG:  cpu time    0.4132: real time    0.4142
  RMM-DIIS:  cpu time    1.2708: real time    1.2739
    ORTHCH:  cpu time    0.0112: real time    0.0112
       DOS:  cpu time    0.0002: real time    0.0002
    CHARGE:  cpu time    0.1305: real time    0.1308
    MIXING:  cpu time    0.1353: real time    0.1357
    --------------------------------------------
      LOOP:  cpu time    3.4721: real time    3.4805

 eigenvalue-minimisations  :    64
 total energy-change (2. order) :-0.1466958E-05  (-0.1023679E-05)
 number of electron       7.9999997 magnetization 
 augmentation part        0.1899033 magnetization 

 Broyden mixing:
  rms(total) = 0.33453E-03    rms(broyden)= 0.33014E-03
  rms(prec ) = 0.44482E-03
  weight for this iteration     100.00

 eigenvalues of (default mixing * dielectric matrix)
  average eigenvalue GAMMA=   2.4218
  5.7822  5.5154  5.5154  3.9068  3.9068  0.8833  0.8833  3.3396  3.3396  0.7869
  1.1443  1.1443  0.9965  0.9965  1.3602  1.3602  2.5604  2.5604  1.0741  1.1984
  3.3647  1.6188  1.6188  1.8403  1.8403  2.1047  2.1047  2.6667  2.6667  2.9454
  2.5689  2.5689  2.2562  2.3802  2.3802  2.6994  2.6994  2.6762  2.6306  2.6306
  2.5741  2.4427  2.4686  2.4686  2.5105

 Free energy of the ion-electron system (eV)
  ---------------------------------------------------
  alpha Z        PSCENC =         0.25285334
  Ewald energy   TEWEN  =       129.08977253
  -Hartree energ DENC   =      -284.67378389
  -exchange      EXHF   =         0.00000000
  -V(xc)+E(xc)   XCENC  =        24.84085099
  PAW double counting   =       471.42391470     -472.22224217
  entropy T*S    EENTRO =         0.01999060
  eigenvalues    EBANDS =       -89.80337419
  atomic energy  EATOM  =       197.04175453
  Solvation  Ediel_sol  =         0.00000000
  ---------------------------------------------------
  free energy    TOTEN  =       -24.03026353 eV

  energy without entropy =      -24.05025414  energy(sigma->0) =      -24.03692707


--------------------------------------------------------------------------------------------------------




--------------------------------------- Iteration     10(  14)  ---------------------------------------


    POTLOK:  cpu time    1.4331: real time    1.4365
    SETDIJ:  cpu time    0.0064: real time    0.0064
    EDDIAG:  cpu time    0.3992: real time    0.4001
  RMM-DIIS:  cpu time    0.9351: real time    0.9373
    ORTHCH:  cpu time    0.0110: real time    0.0110
       DOS:  cpu time    0.0002: real time    0.0002
    CHARGE:  cpu time    0.1258: real time    0.1261
    MIXING:  cpu time    0.1234: real time    0.1237
    --------------------------------------------
      LOOP:  cpu time    3.0342: real time    3.0414

 eigenvalue-minimisations  :    48
 total energy-change (2. order) :-0.1158496E-05  (-0.1031635E-06)
 number of electron       7.9999997 magnetization 
 augmentation part        0.1899037 magnetization 

 Broyden mixing:
  rms(total) = 0.16873E-03    rms(broyden)= 0.16757E-03
  rms(prec ) = 0.22612E-03
  weight for this iteration     100.00

 eigenvalues of (default mixing * dielectric matrix)
  average eigenvalue GAMMA=   2.4289
  6.0769  5.8146  5.8146  3.9822  3.9822  0.8368  0.8368  2.5934  2.5934  1.1379
  1.1379  0.8043  0.9513  0.9513  1.4542  1.4542  1.0145  1.0892  3.2758  3.2758
  3.4685  1.6039  1.6039  1.8215  1.8215  1.8467  2.0281  2.0281  2.6953  2.6953
  3.0006  2.4522  2.4522  2.7623  2.7623  2.2597  2.7443  2.4036  2.4036  2.6325
  2.6325  2.6083  2.4747  2.4747  2.4889  2.4889

 Free energy of the ion-electron system (eV)
  ---------------------------------------------------
  alpha Z        PSCENC =         0.25285334
  Ewald energy   TEWEN  =       129.08977253
  -Hartree energ DENC   =      -284.67218708
  -exchange      EXHF   =         0.00000000
  -V(xc)+E(xc)   XCENC  =        24.84079274
  PAW double counting   =       471.41780359     -472.21612228
  entropy T*S    EENTRO =         0.01993500
  eigenvalues    EBANDS =       -89.80486706
  atomic energy  EATOM  =       197.04175453
  Solvation  Ediel_sol  =         0.00000000
  ---------------------------------------------------
  free energy    TOTEN  =       -24.03026469 eV

  energy without entropy =      -24.05019969  energy(sigma->0) =      -24.03690969


--------------------------------------------------------------------------------------------------------




--------------------------------------- Iteration     10(  15)  ---------------------------------------


    POTLOK:  cpu time    1.4663: real time    1.4698
    SETDIJ:  cpu time    0.0064: real time    0.0065
    EDDIAG:  cpu time    0.4268: real time    0.4278
  RMM-DIIS:  cpu time    0.9730: real time    0.9753
    ORTHCH:  cpu time    0.0113: real time    0.0113
       DOS:  cpu time    0.0002: real time    0.0002
    --------------------------------------------
      LOOP:  cpu time    2.8839: real time    2.8908

 eigenvalue-minimisations  :    48
 total energy-change (2. order) :-0.7623041E-06  (-0.8464567E-07)
 number of electron       7.9999997 magnetization 
 augmentation part        0.1899037 magnetization 

 Free energy of the ion-electron system (eV)
  ---------------------------------------------------
  alpha Z        PSCENC =         0.25285334
  Ewald energy   TEWEN  =       129.08977253
  -Hartree energ DENC   =      -284.67158446
  -exchange      EXHF   =         0.00000000
  -V(xc)+E(xc)   XCENC  =        24.84076900
  PAW double counting   =       471.41812154     -472.21643720
  entropy T*S    EENTRO =         0.01988360
  eigenvalues    EBANDS =       -89.80539834
  atomic energy  EATOM  =       197.04175453
  Solvation  Ediel_sol  =         0.00000000
  ---------------------------------------------------
  free energy    TOTEN  =       -24.03026546 eV

  energy without entropy =      -24.05014905  energy(sigma->0) =      -24.03689332


--------------------------------------------------------------------------------------------------------




 average (electrostatic) potential at core
  the test charge radii are     0.5201  0.6991
  (the norm of the test charge is              1.0000)
       1 -41.5474       2 -41.4878       3 -41.4499       4 -41.7047       5 -57.8952



 E-fermi :  -8.9083     XC(G=0):  -0.7200     alpha+bet : -0.2199


 k-point     1 :       0.2500    0.2500    0.2500
  band No.  band energies     occupation 
      1     -16.9683      2.00000
      2      -9.6103      2.00001
      3      -9.2575      2.03317
      4      -9.0634      1.96691
      5      -0.3060      0.00000
      6       0.6075      0.00000
      7       0.7057      0.00000
      8       0.7450      0.00000

 k-point     2 :      -0.2500    0.2500    0.2500
  band No.  band energies     occupation 
      1     -16.9683      2.00000
      2      -9.6104      2.00001
      3      -9.2575      2.03319
      4      -9.0633      1.96681
      5      -0.2996      0.00000
      6       0.5872      0.00000
      7       0.6885      0.00000
      8       0.7345      0.00000

 k-point     3 :       0.2500   -0.2500    0.2500
  band No.  band energies     occupation 
      1     -16.9683      2.00000
      2      -9.6103      2.00001
      3      -9.2575      2.03317
      4      -9.0633      1.96675
      5      -0.2940      0.00000
      6       0.5632      0.00000
      7       0.6865      0.00000
      8       0.7244      0.00000

 k-point     4 :      -0.2500   -0.2500    0.2500
  band No.  band energies     occupation 
      1     -16.9683      2.00000
      2      -9.6104      2.00001
      3      -9.2574      2.03320
      4      -9.0633      1.96676
      5      -0.3001      0.00000
      6       0.5975      0.00000
      7       0.6957      0.00000
      8       0.7183      0.00000


--------------------------------------------------------------------------------------------------------


 soft charge-density along one line, spin component           1
         0         1         2         3         4         5         6         7         8         9
 total charge-density along one line

 pseudopotential strength for first ion, spin component:           1
 -2.340  -4.033  -0.001  -0.001   0.000
 -4.033  -6.864  -0.004  -0.004   0.001
 -0.001  -0.004  -0.336   0.002  -0.001
 -0.001  -0.004   0.002  -0.336  -0.001
  0.000   0.001  -0.001  -0.001  -0.338
 total augmentation occupancy for first ion, spin component:           1
  2.993  -0.422   0.309   0.339  -0.080
 -0.422   0.077  -0.044  -0.049   0.014
  0.309  -0.044   0.039   0.030  -0.006
  0.339  -0.049   0.030   0.045  -0.007
 -0.080   0.014  -0.006  -0.007   0.011


------------------------ aborting loop because EDIFF is reached ----------------------------------------


    CHARGE:  cpu time    0.1378: real time    0.1381
    FORLOC:  cpu time    0.0979: real time    0.0981
    FORNL :  cpu time    0.4581: real time    0.4592
    STRESS:  cpu time    1.4990: real time    1.5025
    FORCOR:  cpu time    1.6496: real time    1.6535
    FORHAR:  cpu time    0.5096: real time    0.5108
    MIXING:  cpu time    0.1237: real time    0.1240
    OFIELD:  cpu time    0.0000: real time    0.0000

  FORCE on cell =-STRESS in cart. coord.  units (eV):
  Direction    XX          YY          ZZ          XY          YZ          ZX
  --------------------------------------------------------------------------------------
  Alpha Z     0.25285     0.25285     0.25285
  Ewald      47.53074    40.41120    41.14781    -1.41514    -0.64839     5.97350
  Hartree    97.89721    92.64690    94.12858    -0.14430     0.29776     1.79265
  E(xc)     -27.29794   -27.31939   -27.33274    -0.01115    -0.00414     0.03349
  Local    -203.86150  -191.97073  -193.88710     1.18166     0.02151    -6.88241
  n-local   -15.46753   -16.26482   -15.77593    -0.35634     0.14835    -0.22974
  augment     0.12493     0.12499     0.12207     0.00115     0.00221    -0.00528
  Kinetic   100.39381   102.54444   102.26799     0.78019     0.37293    -1.33454
  Fock        0.00000     0.00000     0.00000     0.00000     0.00000     0.00000
  -------------------------------------------------------------------------------------
  Total      -0.42742     0.42545     0.92353     0.03607     0.19022    -0.65233
  in kB      -0.71477     0.71147     1.54442     0.06031     0.31811    -1.09089
  external pressure =        0.51 kB  Pullay stress =        0.00 kB

  kinetic pressure (ideal gas correction) =      0.11 kB
  total pressure  =      0.62 kB
  Total+kin.    -0.641       0.922       1.590      -0.033       0.354      -1.088

 VOLUME and BASIS-vectors are now :
 -----------------------------------------------------------------------------
  energy-cutoff  :      400.00
  volume of cell :      958.07
      direct lattice vectors                 reciprocal lattice vectors
     9.702526420  0.000000000  0.000000000     0.103065939 -0.002811235 -0.000278250
     0.273788176 10.037664411  0.000000000     0.000000000  0.099624769 -0.002861194
     0.034264475  0.282526404  9.837370016     0.000000000  0.000000000  0.101653186

  length of vectors
     9.702526420 10.041397652  9.841485867     0.103104647  0.099665847  0.101653186


 FORCES acting on ions
    electron-ion (+dipol)            ewald-force                    non-local-force                 convergence-correction
 -----------------------------------------------------------------------------------------------
   -.151E+02 0.335E+02 0.391E+02   0.168E+02 -.374E+02 -.437E+02   -.157E+01 0.332E+01 0.399E+01   0.335E-04 -.663E-04 0.201E-04
   0.494E+02 -.145E+02 0.905E+01   -.539E+02 0.158E+02 -.969E+01   0.595E+01 -.156E+01 0.186E+01   -.117E-03 0.129E-03 0.556E-04
   -.330E+02 -.424E+02 0.301E+00   0.366E+02 0.474E+02 -.369E+00   -.296E+01 -.348E+01 -.106E+00   0.542E-04 0.206E-03 0.119E-03
   -.879E+01 0.263E+02 -.463E+02   0.954E+01 -.295E+02 0.519E+02   -.107E+01 0.346E+01 -.488E+01   0.473E-04 0.104E-05 0.163E-03
   0.845E+01 -.310E+01 -.197E+01   -.908E+01 0.375E+01 0.183E+01   -.844E+00 0.622E-02 0.260E+00   0.195E-03 0.104E-02 0.825E-03
 -----------------------------------------------------------------------------------------------
   0.921E+00 -.192E+00 0.257E+00   -.888E-14 0.000E+00 0.000E+00   -.484E+00 0.174E+01 0.112E+01   0.213E-03 0.131E-02 0.118E-02


 POSITION                                       TOTAL-FORCE (eV/Angst)
 -----------------------------------------------------------------------------------
      5.32997      4.14211      3.59703         0.141052     -0.565805     -0.573658
      3.96952      5.12385      4.18519         1.415991     -0.262621      1.220222
      5.69116      5.66727      4.37599         0.669812      1.472886     -0.174730
      5.20467      4.29053      5.30223        -0.312085      0.252039      0.787237
      5.01889      4.81906      4.38337        -1.477363      0.652233      0.116507
 -----------------------------------------------------------------------------------
    total drift:                                0.437408      1.548732      1.375578


--------------------------------------------------------------------------------------------------------



  FREE ENERGIE OF THE ION-ELECTRON SYSTEM (eV)
  ---------------------------------------------------
  free  energy   TOTEN  =       -24.03026546 eV

  energy  without entropy=      -24.05014905  energy(sigma->0) =      -24.03689332

 d Force = 0.2273927E-01[-0.113E+00, 0.158E+00]  d Energy = 0.2569536E-01-0.296E-02
 d Force =-0.6499488E+00[-0.713E+00,-0.587E+00]  d Ewald  =-0.6472018E+00-0.275E-02


--------------------------------------------------------------------------------------------------------


    POTLOK:  cpu time    1.5692: real time    1.6516


--------------------------------------------------------------------------------------------------------


           RANDOM_SEED =         578495917               30                0
   IONSTEP:  cpu time    0.0001: real time    0.0001

  ENERGY OF THE ELECTRON-ION-THERMOSTAT SYSTEM (eV)
  ---------------------------------------------------
% ion-electron   TOTEN  =       -24.030265  see above
  kinetic energy EKIN   =         0.068221
  kin. lattice  EKIN_LAT=         0.000000  (temperature  131.94 K)
  nose potential ES     =         0.027809
  nose kinetic   EPS    =         0.047494
  ---------------------------------------------------
  total energy   ETOTAL =       -23.886742 eV

  maximum distance moved by ions :      0.69E-02


 mean value of Nose-termostat <S>:     2.007 mean value of <T> :   131.944
 mean temperature <T/S>/<1/S>  :   131.944

    WAVPRE:  cpu time    0.4251: real time    0.4347
    FEWALD:  cpu time    0.0004: real time    0.0004
    ORTHCH:  cpu time    0.1620: real time    0.1624
 Prediction of Wavefunctions ALPHA= 0.317 BETA= 0.015
    POTLOK:  cpu time    1.5086: real time    1.5121
    EDDIAG:  cpu time    0.3216: real time    0.3224
     LOOP+:  cpu time   61.4355: real time   61.7840
    4ORBIT:  cpu time    0.0000: real time    0.0000

 total amount of memory used by VASP MPI-rank0   277638. kBytes
=======================================================================

   base      :      30000. kBytes
   nonlr-proj:        146. kBytes
   fftplans  :      79272. kBytes
   grid      :     141424. kBytes
   one-center:         15. kBytes
   wavefun   :      26781. kBytes

  
  
 General timing and accounting informations for this job:
 ========================================================
  
                  Total CPU time used (sec):      741.049
                            User time (sec):      726.297
                          System time (sec):       14.753
                         Elapsed time (sec):      744.978
  
                   Maximum memory used (kb):      431612.
                   Average memory used (kb):           0.
  
                          Minor page faults:      2545347
                          Major page faults:            0
                 Voluntary context switches:          403
