 running on    1 total cores
 distrk:  each k-point on    1 cores,    1 groups
 distr:  one band on    1 cores,    1 groups
 using from now: INCAR     
 vasp.5.4.4.18Apr17-6-g9f103f2a35 (build Jul 12 2018 13:43:46) complex           
 POSCAR found type information on POSCAR  H  C 
 POSCAR found :  2 types and       5 ions
 scaLAPACK will be used

 ----------------------------------------------------------------------------- 
|                                                                             |
|  ADVICE TO THIS USER RUNNING 'VASP/VAMP'   (HEAR YOUR MASTER'S VOICE ...):  |
|                                                                             |
|      You have a (more or less) 'small supercell' and for smaller cells      |
|      it is recommended  to use the reciprocal-space projection scheme!      |
|      The real space optimization is not  efficient for small cells and it   |
|      is also less accurate ...                                              |
|      Therefore set LREAL=.FALSE. in the  INCAR file                         |
|                                                                             |
 ----------------------------------------------------------------------------- 


 ----------------------------------------------------------------------------- 
|                                                                             |
|           W    W    AA    RRRRR   N    N  II  N    N   GGGG   !!!           |
|           W    W   A  A   R    R  NN   N  II  NN   N  G    G  !!!           |
|           W    W  A    A  R    R  N N  N  II  N N  N  G       !!!           |
|           W WW W  AAAAAA  RRRRR   N  N N  II  N  N N  G  GGG   !            |
|           WW  WW  A    A  R   R   N   NN  II  N   NN  G    G                |
|           W    W  A    A  R    R  N    N  II  N    N   GGGG   !!!           |
|                                                                             |
|     The real-space-projection scheme for the treatment of the nonlocal      |
|     pseudopotentials has been switched on -- but on file POTCAR I have      |
|     not found any entries signalling me that you have ever performed a      |
|     real-space optimization of all nonlocal projectors! BE WARNED that      |
|     a calculation using the real-space-projection scheme together with      |
|     nonlocal projectors which were not real-space-optimized (according      |
|     to the plane-wave-cutoff used in this calculation) might give more      |
|     or less inaccurate results                                              |
|     I hope you know what you are doing                                      |
|                                                                             |
 ----------------------------------------------------------------------------- 

 LDA part: xc-table for Pade appr. of Perdew
 generate k-points for:    2    2    2
 POSCAR, INCAR and KPOINTS ok, starting setup
 FFT: planning ...
 WAVECAR not read
 prediction of wavefunctions initialized - no I/O
 entering main loop
       N       E                     dE             d eps       ncg     rms          rms(c)
DAV:   1     0.250478317139E+02    0.25048E+02   -0.18713E+03    88   0.404E+02
DAV:   2    -0.214760361356E+02   -0.46524E+02   -0.38530E+02    80   0.105E+02
DAV:   3    -0.274716755510E+02   -0.59956E+01   -0.60094E+01    64   0.492E+01
DAV:   4    -0.277246452916E+02   -0.25297E+00   -0.24800E+00   128   0.112E+01
DAV:   5    -0.277247163137E+02   -0.71022E-04   -0.71023E-04    96   0.210E-01    0.905E+00
RMM:   6    -0.246385708353E+02    0.30861E+01   -0.57795E+00    64   0.148E+01    0.449E+00
RMM:   7    -0.241145956745E+02    0.52398E+00   -0.13674E+00    64   0.680E+00    0.246E+00
RMM:   8    -0.239988078277E+02    0.11579E+00   -0.11402E-01    64   0.224E+00    0.106E+00
RMM:   9    -0.239599704810E+02    0.38837E-01   -0.40287E-02    64   0.150E+00    0.626E-01
RMM:  10    -0.239556896722E+02    0.42808E-02   -0.11200E-02    64   0.633E-01    0.418E-01
RMM:  11    -0.239601147479E+02   -0.44251E-02   -0.11320E-02    64   0.640E-01    0.758E-01
RMM:  12    -0.239489806306E+02    0.11134E-01   -0.71626E-03    64   0.518E-01    0.968E-02
RMM:  13    -0.239523586479E+02   -0.33780E-02   -0.11056E-03    64   0.221E-01    0.149E-01
RMM:  14    -0.239575787552E+02   -0.52201E-02   -0.14553E-03    64   0.237E-01    0.113E-01
RMM:  15    -0.239592482327E+02   -0.16695E-02   -0.65429E-04    64   0.149E-01    0.372E-02
RMM:  16    -0.239604918526E+02   -0.12436E-02   -0.14716E-04    64   0.748E-02    0.136E-02
RMM:  17    -0.239617802606E+02   -0.12884E-02   -0.21553E-04    64   0.809E-02    0.182E-02
RMM:  18    -0.239619266339E+02   -0.14637E-03   -0.27701E-05    64   0.315E-02    0.476E-03
RMM:  19    -0.239620931298E+02   -0.16650E-03   -0.89387E-06    60   0.185E-02    0.656E-03
RMM:  20    -0.239621141465E+02   -0.21017E-04   -0.14013E-06    48   0.691E-03    0.208E-03
RMM:  21    -0.239621243759E+02   -0.10229E-04   -0.10582E-06    48   0.617E-03    0.162E-03
RMM:  22    -0.239621257990E+02   -0.14231E-05   -0.15534E-07    48   0.326E-03    0.826E-04
RMM:  23    -0.239621266740E+02   -0.87501E-06   -0.17241E-07    48   0.257E-03
    1 T=    65. E= -.23928478E+02 F= -.23962127E+02 E0= -.23974463E+02  EK= 0.33641E-01 SP= 0.00E+00 SK= 0.73E-05
 bond charge predicted
       N       E                     dE             d eps       ncg     rms          rms(c)
DAV:   1    -0.239823106037E+02   -0.20185E-01   -0.27663E+00    64   0.153E+01    0.939E-01
RMM:   2    -0.239967220058E+02   -0.14411E-01   -0.11687E-01    64   0.271E+00    0.110E+00
RMM:   3    -0.239771396633E+02    0.19582E-01   -0.13269E-01    64   0.222E+00    0.564E-01
RMM:   4    -0.239742344618E+02    0.29052E-02   -0.22413E-02    64   0.892E-01    0.509E-01
RMM:   5    -0.239704556258E+02    0.37788E-02   -0.33875E-03    64   0.384E-01    0.184E-01
RMM:   6    -0.239702750465E+02    0.18058E-03   -0.45901E-04    64   0.155E-01    0.137E-01
RMM:   7    -0.239700139076E+02    0.26114E-03   -0.23568E-04    64   0.101E-01    0.101E-01
RMM:   8    -0.239698458802E+02    0.16803E-03   -0.18835E-04    64   0.892E-02    0.700E-02
RMM:   9    -0.239697354644E+02    0.11042E-03   -0.36442E-04    64   0.121E-01    0.334E-02
RMM:  10    -0.239697177380E+02    0.17726E-04   -0.13559E-04    64   0.734E-02    0.751E-03
RMM:  11    -0.239697417745E+02   -0.24036E-04   -0.22644E-05    64   0.317E-02    0.357E-03
RMM:  12    -0.239697528248E+02   -0.11050E-04   -0.47580E-06    60   0.145E-02    0.244E-03
RMM:  13    -0.239697608335E+02   -0.80087E-05   -0.10926E-06    48   0.652E-03    0.727E-04
RMM:  14    -0.239697628515E+02   -0.20180E-05   -0.52644E-07    48   0.456E-03    0.171E-03
RMM:  15    -0.239697644798E+02   -0.16282E-05   -0.20961E-07    48   0.290E-03    0.787E-04
RMM:  16    -0.239697647538E+02   -0.27401E-06   -0.75572E-09    34   0.156E-03
    2 T=    60. E= -.23938650E+02 F= -.23969765E+02 E0= -.23977792E+02  EK= 0.30873E-01 SP= 0.19E-03 SK= 0.51E-04
 bond charge predicted
 prediction of wavefunctions
       N       E                     dE             d eps       ncg     rms          rms(c)
DAV:   1    -0.239772437351E+02   -0.74793E-02   -0.21575E+00    64   0.146E+01    0.365E-01
RMM:   2    -0.239775037195E+02   -0.25998E-03   -0.19481E-02    64   0.117E+00    0.305E-01
RMM:   3    -0.239773799275E+02    0.12379E-03   -0.86912E-03    64   0.614E-01    0.144E-01
RMM:   4    -0.239770996239E+02    0.28030E-03   -0.12830E-03    64   0.251E-01    0.813E-02
RMM:   5    -0.239770365655E+02    0.63058E-04   -0.16326E-04    64   0.877E-02    0.440E-02
RMM:   6    -0.239770742319E+02   -0.37666E-04   -0.80674E-05    64   0.550E-02    0.180E-02
RMM:   7    -0.239770823200E+02   -0.80881E-05   -0.42242E-05    64   0.383E-02    0.590E-03
RMM:   8    -0.239771017984E+02   -0.19478E-04   -0.11003E-05    64   0.212E-02    0.420E-03
RMM:   9    -0.239771117462E+02   -0.99478E-05   -0.18038E-06    52   0.911E-03    0.316E-03
RMM:  10    -0.239771196754E+02   -0.79292E-05   -0.30252E-06    60   0.969E-03    0.186E-03
RMM:  11    -0.239771208035E+02   -0.11281E-05   -0.15755E-07    48   0.308E-03    0.109E-03
RMM:  12    -0.239771222195E+02   -0.14161E-05   -0.13035E-07    48   0.219E-03    0.958E-04
RMM:  13    -0.239771225968E+02   -0.37724E-06   -0.68482E-08    44   0.195E-03
    3 T=    91. E= -.23929521E+02 F= -.23977123E+02 E0= -.23985222E+02  EK= 0.46833E-01 SP= 0.51E-03 SK= 0.26E-03
 bond charge predicted
 prediction of wavefunctions
       N       E                     dE             d eps       ncg     rms          rms(c)
DAV:   1    -0.239662650860E+02    0.10857E-01   -0.12191E+00    64   0.105E+01    0.702E-01
RMM:   2    -0.239856956953E+02   -0.19431E-01   -0.13785E-01    64   0.250E+00    0.742E-01
RMM:   3    -0.240044519472E+02   -0.18756E-01   -0.34245E-02    64   0.123E+00    0.953E-01
RMM:   4    -0.239845370564E+02    0.19915E-01   -0.51103E-02    64   0.134E+00    0.643E-01
RMM:   5    -0.239772631969E+02    0.72739E-02   -0.48332E-03    64   0.449E-01    0.512E-01
RMM:   6    -0.239696750021E+02    0.75882E-02   -0.10396E-02    64   0.622E-01    0.382E-01
RMM:   7    -0.239681691973E+02    0.15058E-02   -0.94849E-04    64   0.208E-01    0.386E-01
RMM:   8    -0.239685712496E+02   -0.40205E-03   -0.59915E-05    64   0.607E-02    0.380E-01
RMM:   9    -0.239686689255E+02   -0.97676E-04   -0.43948E-06    64   0.174E-02    0.380E-01
RMM:  10    -0.239689116227E+02   -0.24270E-03   -0.11845E-05    64   0.211E-02    0.377E-01
RMM:  11    -0.239733623433E+02   -0.44507E-02   -0.47516E-03    64   0.417E-01    0.392E-01
RMM:  12    -0.239707242849E+02    0.26381E-02   -0.10478E-03    64   0.202E-01    0.359E-01
RMM:  13    -0.239691205842E+02    0.16037E-02   -0.52739E-04    64   0.140E-01    0.352E-01
RMM:  14    -0.239619671802E+02    0.71534E-02   -0.75066E-03    64   0.531E-01    0.381E-01
RMM:  15    -0.239623141138E+02   -0.34693E-03   -0.13244E-04    64   0.104E-01    0.385E-01
RMM:  16    -0.239608410798E+02    0.14730E-02   -0.37966E-04    64   0.122E-01    0.343E-01
RMM:  17    -0.239602296588E+02    0.61142E-03   -0.15415E-04    64   0.809E-02    0.312E-01
RMM:  18    -0.239605367944E+02   -0.30714E-03   -0.59530E-03    64   0.479E-01    0.402E-01
RMM:  19    -0.239623693847E+02   -0.18326E-02   -0.82565E-04    64   0.196E-01    0.576E-01
RMM:  20    -0.239620373297E+02    0.33205E-03   -0.43505E-05    64   0.587E-02    0.572E-01
RMM:  21    -0.239612284697E+02    0.80886E-03   -0.27309E-05    64   0.322E-02    0.521E-01
RMM:  22    -0.239586976053E+02    0.25309E-02   -0.53025E-03    64   0.442E-01    0.181E-01
RMM:  23    -0.239602370149E+02   -0.15394E-02   -0.10142E-03    64   0.216E-01    0.299E-01
RMM:  24    -0.239599464345E+02    0.29058E-03   -0.31713E-05    64   0.525E-02    0.291E-01
RMM:  25    -0.239592975859E+02    0.64885E-03   -0.89842E-05    64   0.553E-02    0.249E-01
RMM:  26    -0.239584346921E+02    0.86289E-03   -0.53213E-04    64   0.139E-01    0.102E-01
RMM:  27    -0.239585139265E+02   -0.79234E-04   -0.60933E-04    64   0.155E-01    0.114E-01
RMM:  28    -0.239583948394E+02    0.11909E-03   -0.31212E-05    64   0.452E-02    0.752E-02
RMM:  29    -0.239583401159E+02    0.54723E-04   -0.13426E-04    64   0.712E-02    0.311E-02
RMM:  30    -0.239583733177E+02   -0.33202E-04   -0.61696E-05    64   0.490E-02    0.536E-02
RMM:  31    -0.239583664762E+02    0.68415E-05   -0.99882E-06    64   0.215E-02    0.529E-02
RMM:  32    -0.239583494112E+02    0.17065E-04   -0.29526E-05    64   0.346E-02    0.122E-02
RMM:  33    -0.239583606001E+02   -0.11189E-04   -0.14731E-06    48   0.107E-02    0.102E-02
RMM:  34    -0.239583650423E+02   -0.44422E-05   -0.18967E-06    48   0.106E-02    0.361E-03
RMM:  35    -0.239583742116E+02   -0.91693E-05   -0.86596E-06    64   0.190E-02    0.253E-02
RMM:  36    -0.239583652160E+02    0.89956E-05   -0.13604E-06    48   0.794E-03    0.128E-02
RMM:  37    -0.239583653230E+02   -0.10697E-06   -0.12232E-06    48   0.774E-03
    4 T=   139. E= -.23883426E+02 F= -.23958365E+02 E0= -.23966849E+02  EK= 0.72031E-01 SP= 0.13E-02 SK= 0.16E-02
 bond charge predicted
 prediction of wavefunctions
       N       E                     dE             d eps       ncg     rms          rms(c)
DAV:   1    -0.239535002088E+02    0.48650E-02   -0.18145E+00    64   0.130E+01    0.544E-01
RMM:   2    -0.250468115075E+02   -0.10933E+01   -0.35934E+00    64   0.114E+01    0.469E+00
RMM:   3    -0.248981856134E+02    0.14863E+00   -0.84552E-02    64   0.226E+00    0.460E+00
RMM:   4    -0.240954451513E+02    0.80274E+00   -0.11699E+00    64   0.646E+00    0.200E+00
RMM:   5    -0.240491947451E+02    0.46250E-01   -0.74749E-02    64   0.183E+00    0.157E+00
RMM:   6    -0.239540834170E+02    0.95111E-01   -0.31172E-01    64   0.349E+00    0.299E-01
RMM:   7    -0.239584344640E+02   -0.43510E-02   -0.53068E-02    64   0.150E+00    0.346E-01
RMM:   8    -0.239736156341E+02   -0.15181E-01   -0.28679E-02    64   0.110E+00    0.697E-01
RMM:   9    -0.239778567452E+02   -0.42411E-02   -0.43986E-03    64   0.442E-01    0.722E-01
RMM:  10    -0.239726052937E+02    0.52515E-02   -0.80455E-04    64   0.193E-01    0.643E-01
RMM:  11    -0.239604169461E+02    0.12188E-01   -0.10278E-02    64   0.603E-01    0.398E-01
RMM:  12    -0.239553122623E+02    0.51047E-02   -0.74899E-03    64   0.527E-01    0.205E-01
RMM:  13    -0.239537441255E+02    0.15681E-02   -0.55676E-03    64   0.464E-01    0.438E-02
RMM:  14    -0.239539067514E+02   -0.16263E-03   -0.18359E-03    64   0.274E-01    0.592E-02
RMM:  15    -0.239540764156E+02   -0.16966E-03   -0.31916E-04    64   0.121E-01    0.856E-02
RMM:  16    -0.239538783066E+02    0.19811E-03   -0.13052E-04    64   0.716E-02    0.546E-02
RMM:  17    -0.239537575149E+02    0.12079E-03   -0.45170E-04    64   0.130E-01    0.139E-02
RMM:  18    -0.239537751763E+02   -0.17661E-04   -0.97947E-05    64   0.619E-02    0.231E-02
RMM:  19    -0.239537766758E+02   -0.14995E-05   -0.95341E-06    64   0.220E-02    0.217E-02
RMM:  20    -0.239537626290E+02    0.14047E-04   -0.39119E-05    64   0.387E-02    0.443E-03
RMM:  21    -0.239537638547E+02   -0.12257E-05   -0.15519E-05    64   0.247E-02    0.516E-03
RMM:  22    -0.239537642337E+02   -0.37898E-06   -0.51185E-07    48   0.599E-03
    5 T=    96. E= -.23896581E+02 F= -.23953764E+02 E0= -.23957636E+02  EK= 0.49822E-01 SP= 0.33E-02 SK= 0.41E-02
 bond charge predicted
 prediction of wavefunctions
       N       E                     dE             d eps       ncg     rms          rms(c)
DAV:   1    -0.239740710986E+02   -0.20307E-01   -0.13463E+00    64   0.109E+01    0.615E-01
RMM:   2    -0.243210945713E+02   -0.34702E+00   -0.13038E+00    64   0.689E+00    0.261E+00
RMM:   3    -0.243746169555E+02   -0.53522E-01   -0.44461E+00    64   0.121E+01    0.276E+00
RMM:   4    -0.240563256222E+02    0.31829E+00   -0.22506E-01    64   0.313E+00    0.132E+00
RMM:   5    -0.240119636228E+02    0.44362E-01   -0.17668E-01    64   0.237E+00    0.106E+00
RMM:   6    -0.239756643102E+02    0.36299E-01   -0.55048E-02    64   0.154E+00    0.401E-01
RMM:   7    -0.239700201231E+02    0.56442E-02   -0.48825E-02    64   0.139E+00    0.204E-01
RMM:   8    -0.239700682834E+02   -0.48160E-04   -0.14906E-03    67   0.303E-01    0.144E-01
RMM:   9    -0.239696376396E+02    0.43064E-03   -0.20755E-03    64   0.291E-01    0.316E-02
RMM:  10    -0.239696594609E+02   -0.21821E-04   -0.11322E-04    64   0.746E-02    0.121E-02
RMM:  11    -0.239696923491E+02   -0.32888E-04   -0.32834E-05    64   0.361E-02    0.975E-03
RMM:  12    -0.239697213567E+02   -0.29008E-04   -0.45227E-05    64   0.408E-02    0.171E-02
RMM:  13    -0.239697170689E+02    0.42878E-05   -0.21907E-05    64   0.279E-02    0.572E-03
RMM:  14    -0.239697216711E+02   -0.46021E-05   -0.16300E-06    48   0.916E-03    0.355E-03
RMM:  15    -0.239697236090E+02   -0.19379E-05   -0.79918E-06    64   0.173E-02    0.274E-03
RMM:  16    -0.239697245479E+02   -0.93896E-06   -0.32420E-07    48   0.470E-03
    6 T=   115. E= -.23897128E+02 F= -.23969725E+02 E0= -.23973590E+02  EK= 0.59688E-01 SP= 0.59E-02 SK= 0.70E-02
 bond charge predicted
 prediction of wavefunctions
       N       E                     dE             d eps       ncg     rms          rms(c)
DAV:   1    -0.240426833288E+02   -0.72960E-01   -0.23850E+00    64   0.154E+01    0.758E-01
RMM:   2    -0.240592300508E+02   -0.16547E-01   -0.88425E-02    64   0.237E+00    0.119E+00
RMM:   3    -0.241824354333E+02   -0.12321E+00   -0.74503E-01    64   0.554E+00    0.177E+00
RMM:   4    -0.240850154552E+02    0.97420E-01   -0.81930E-02    64   0.187E+00    0.968E-01
RMM:   5    -0.240441458314E+02    0.40870E-01   -0.81817E-02    64   0.171E+00    0.311E-01
RMM:   6    -0.240409279311E+02    0.32179E-02   -0.24538E-02    64   0.986E-01    0.524E-02
RMM:   7    -0.240432252159E+02   -0.22973E-02   -0.80918E-03    64   0.593E-01    0.237E-01
RMM:   8    -0.240422406641E+02    0.98455E-03   -0.10663E-03    64   0.235E-01    0.133E-01
RMM:   9    -0.240423066213E+02   -0.65957E-04   -0.73177E-05    64   0.640E-02    0.140E-01
RMM:  10    -0.240415553987E+02    0.75122E-03   -0.34476E-03    64   0.356E-01    0.406E-02
RMM:  11    -0.240415219207E+02    0.33478E-04   -0.79813E-05    64   0.696E-02    0.198E-02
RMM:  12    -0.240415243276E+02   -0.24069E-05   -0.28996E-05    64   0.378E-02    0.186E-02
RMM:  13    -0.240415543969E+02   -0.30069E-04   -0.97127E-06    64   0.201E-02    0.170E-02
RMM:  14    -0.240415536503E+02    0.74662E-06   -0.10651E-05    64   0.215E-02    0.615E-03
RMM:  15    -0.240415551185E+02   -0.14683E-05   -0.75020E-06    64   0.166E-02    0.829E-04
RMM:  16    -0.240415590640E+02   -0.39454E-05   -0.35511E-07    48   0.461E-03    0.843E-04
RMM:  17    -0.240415606633E+02   -0.15994E-05   -0.16380E-07    48   0.284E-03    0.405E-04
RMM:  18    -0.240415610197E+02   -0.35639E-06    0.00000E+00    32   0.151E-03
    7 T=   177. E= -.23926278E+02 F= -.24041561E+02 E0= -.24046955E+02  EK= 0.91742E-01 SP= 0.93E-02 SK= 0.14E-01
 bond charge predicted
 prediction of wavefunctions
       N       E                     dE             d eps       ncg     rms          rms(c)
DAV:   1    -0.240587273954E+02   -0.17167E-01   -0.16043E+00    64   0.126E+01    0.600E-01
RMM:   2    -0.240617212824E+02   -0.29939E-02   -0.70098E-02    64   0.195E+00    0.722E-01
RMM:   3    -0.240637105820E+02   -0.19893E-02   -0.45690E-02    64   0.146E+00    0.626E-01
RMM:   4    -0.240598929556E+02    0.38176E-02   -0.22196E-02    64   0.890E-01    0.333E-01
RMM:   5    -0.240578980050E+02    0.19950E-02   -0.38726E-03    64   0.437E-01    0.238E-01
RMM:   6    -0.240565323832E+02    0.13656E-02   -0.72685E-03    64   0.546E-01    0.260E-01
RMM:   7    -0.240563975930E+02    0.13479E-03   -0.34652E-03    64   0.358E-01    0.234E-01
RMM:   8    -0.240555102998E+02    0.88729E-03   -0.12697E-03    64   0.226E-01    0.334E-02
RMM:   9    -0.240556342517E+02   -0.12395E-03   -0.54107E-05    64   0.553E-02    0.505E-02
RMM:  10    -0.240556851123E+02   -0.50861E-04   -0.92216E-05    64   0.559E-02    0.234E-02
RMM:  11    -0.240556978627E+02   -0.12750E-04   -0.15614E-05    64   0.249E-02    0.106E-02
RMM:  12    -0.240557091113E+02   -0.11249E-04   -0.25054E-06    60   0.965E-03    0.996E-03
RMM:  13    -0.240557127589E+02   -0.36476E-05   -0.16582E-06    51   0.840E-03    0.173E-03
RMM:  14    -0.240557168340E+02   -0.40751E-05   -0.91093E-07    48   0.628E-03    0.605E-03
RMM:  15    -0.240557167569E+02    0.77051E-07   -0.42396E-07    48   0.437E-03
    8 T=   159. E= -.23932855E+02 F= -.24055717E+02 E0= -.24064112E+02  EK= 0.82285E-01 SP= 0.14E-01 SK= 0.26E-01
 bond charge predicted
 prediction of wavefunctions
       N       E                     dE             d eps       ncg     rms          rms(c)
DAV:   1    -0.240054875152E+02    0.50229E-01   -0.46532E-01    64   0.692E+00    0.480E-01
RMM:   2    -0.240201125185E+02   -0.14625E-01   -0.25398E-02    64   0.124E+00    0.806E-01
RMM:   3    -0.240109985754E+02    0.91139E-02   -0.25544E-02    64   0.986E-01    0.418E-01
RMM:   4    -0.240106597421E+02    0.33883E-03   -0.21461E-03    64   0.336E-01    0.373E-01
RMM:   5    -0.240059700342E+02    0.46897E-02   -0.58538E-03    64   0.467E-01    0.193E-01
RMM:   6    -0.240050713298E+02    0.89870E-03   -0.25298E-03    64   0.326E-01    0.124E-01
RMM:   7    -0.240049189180E+02    0.15241E-03   -0.83029E-04    64   0.194E-01    0.139E-01
RMM:   8    -0.240045127186E+02    0.40620E-03   -0.89264E-04    64   0.187E-01    0.276E-02
RMM:   9    -0.240045404481E+02   -0.27730E-04   -0.96335E-05    64   0.668E-02    0.314E-02
RMM:  10    -0.240045515489E+02   -0.11101E-04   -0.16039E-05    64   0.280E-02    0.298E-02
RMM:  11    -0.240045494133E+02    0.21355E-05   -0.21851E-05    64   0.300E-02    0.112E-02
RMM:  12    -0.240045623641E+02   -0.12951E-04   -0.32686E-06    56   0.129E-02    0.645E-03
RMM:  13    -0.240045666039E+02   -0.42398E-05   -0.21957E-06    48   0.111E-02    0.290E-03
RMM:  14    -0.240045681449E+02   -0.15411E-05   -0.36474E-07    48   0.478E-03    0.866E-04
RMM:  15    -0.240045696146E+02   -0.14696E-05   -0.13764E-07    48   0.274E-03    0.230E-03
RMM:  16    -0.240045700986E+02   -0.48407E-06   -0.69675E-08    44   0.200E-03
    9 T=   108. E= -.23891450E+02 F= -.24004570E+02 E0= -.24013166E+02  EK= 0.55752E-01 SP= 0.21E-01 SK= 0.37E-01
 bond charge predicted
 prediction of wavefunctions
       N       E                     dE             d eps       ncg     rms          rms(c)
DAV:   1    -0.240323262465E+02   -0.27757E-01   -0.21097E+00    64   0.139E+01    0.821E-01
RMM:   2    -0.240648500048E+02   -0.32524E-01   -0.17212E-01    64   0.290E+00    0.106E+00
RMM:   3    -0.240323239337E+02    0.32526E-01   -0.10569E-01    64   0.190E+00    0.615E-01
RMM:   4    -0.240301913212E+02    0.21326E-02   -0.16090E-02    64   0.794E-01    0.263E-01
RMM:   5    -0.240308014589E+02   -0.61014E-03   -0.82955E-03    64   0.637E-01    0.200E-01
RMM:   6    -0.240305941131E+02    0.20735E-03   -0.61783E-04    64   0.175E-01    0.135E-01
RMM:   7    -0.240304130067E+02    0.18111E-03   -0.40735E-04    64   0.132E-01    0.101E-01
RMM:   8    -0.240302400959E+02    0.17291E-03   -0.31350E-04    64   0.109E-01    0.391E-02
RMM:   9    -0.240302530710E+02   -0.12975E-04   -0.87685E-05    64   0.605E-02    0.195E-02
RMM:  10    -0.240302584415E+02   -0.53705E-05   -0.58718E-05    64   0.507E-02    0.116E-02
RMM:  11    -0.240302610732E+02   -0.26317E-05   -0.27718E-05    64   0.344E-02    0.729E-03
RMM:  12    -0.240302620677E+02   -0.99455E-06   -0.14505E-05    64   0.253E-02    0.440E-03
RMM:  13    -0.240302635347E+02   -0.14670E-05   -0.10237E-05    64   0.216E-02    0.335E-03
RMM:  14    -0.240302646932E+02   -0.11585E-05   -0.10316E-06    48   0.794E-03    0.169E-03
RMM:  15    -0.240302654555E+02   -0.76230E-06   -0.84646E-07    48   0.701E-03
   10 T=   132. E= -.23886742E+02 F= -.24030265E+02 E0= -.24036893E+02  EK= 0.68221E-01 SP= 0.28E-01 SK= 0.47E-01
 bond charge predicted
 prediction of wavefunctions
 wavefunctions rotated
