<?xml version="1.0" encoding="ISO-8859-1"?>
<modeling>
 <generator>
  <i name="program" type="string">vasp </i>
  <i name="version" type="string">5.4.4.18Apr17-6-g9f103f2a35  </i>
  <i name="subversion" type="string">(build Jul 12 2018 13:43:46) complex            parallel </i>
  <i name="platform" type="string">LinuxGNU </i>
  <i name="date" type="string">2019 06 22 </i>
  <i name="time" type="string">02:17:35 </i>
 </generator>
 <incar>
  <i type="int" name="ISTART">     0</i>
  <i type="string" name="PREC">a</i>
  <i type="string" name="ALGO">fast</i>
  <i type="int" name="MAXMIX">    50</i>
  <i type="int" name="ICHARG">     2</i>
  <i type="int" name="IBRION">     0</i>
  <i name="EDIFF">      0.00000100</i>
  <i type="int" name="NSW">    10</i>
  <i type="int" name="ISIF">     2</i>
  <i type="int" name="ISYM">     0</i>
  <i type="int" name="NBLOCK">     1</i>
  <i type="int" name="KBLOCK">   100</i>
  <i name="ENCUT">    400.00000000</i>
  <i name="POTIM">      2.00000000</i>
  <i name="TEBEG">     50.00000000</i>
  <i name="TEEND">     50.00000000</i>
  <i name="SMASS">      0.00000000</i>
  <i type="logical" name="LREAL"> T  </i>
  <i type="int" name="ISMEAR">     1</i>
  <i name="SIGMA">      0.20000000</i>
  <i name="KSPACING">      0.50000000</i>
  <i type="logical" name="KGAMMA"> F  </i>
  <i name="PSTRESS">      0.00000000</i>
  <i type="logical" name="LWAVE"> F  </i>
  <i type="logical" name="LCHARG"> F  </i>
  <v type="int" name="KPOINT_BSE">    -1     0     0     0</v>
 </incar>
 <structure name="primitive_cell" >
  <crystal>
   <varray name="basis" >
    <v>       9.70252642       0.00000000       0.00000000 </v>
    <v>       0.27378818      10.03766441       0.00000000 </v>
    <v>       0.03426448       0.28252640       9.83737002 </v>
   </varray>
   <i name="volume">    958.06839286 </i>
   <varray name="rec_basis" >
    <v>       0.10306594      -0.00281124      -0.00027825 </v>
    <v>       0.00000000       0.09962477      -0.00286119 </v>
    <v>       0.00000000       0.00000000       0.10165319 </v>
   </varray>
  </crystal>
  <varray name="positions" >
   <v>      -0.46203519       0.40660791       0.36044931 </v>
   <v>      -0.49672849       0.46732701       0.44510684 </v>
   <v>       0.39467980       0.48005301       0.43856926 </v>
   <v>      -0.47175131       0.41610105      -0.46083290 </v>
   <v>      -0.44749822      -0.43480881       0.44244753 </v>
  </varray>
 </structure>
 <varray name="primitive_index" >
  <v type="int" >        1 </v>
  <v type="int" >        5 </v>
  <v type="int" >        2 </v>
  <v type="int" >        4 </v>
  <v type="int" >        3 </v>
 </varray>
 <kpoints>
  <generation param="Monkhorst-Pack">
   <v type="int" name="divisions">       2        2        2 </v>
   <v name="usershift">      0.00000000       0.00000000       0.00000000 </v>
   <v name="genvec1">      0.50000000      -0.00000000       0.00000000 </v>
   <v name="genvec2">      0.00000000       0.50000000       0.00000000 </v>
   <v name="genvec3">      0.00000000       0.00000000       0.50000000 </v>
   <v name="shift">      0.50000000       0.50000000       0.50000000 </v>
  </generation>
  <varray name="kpointlist" >
   <v>       0.25000000       0.25000000       0.25000000 </v>
   <v>      -0.25000000       0.25000000       0.25000000 </v>
   <v>       0.25000000      -0.25000000       0.25000000 </v>
   <v>      -0.25000000      -0.25000000       0.25000000 </v>
  </varray>
  <varray name="weights" >
   <v>       0.25000000 </v>
   <v>       0.25000000 </v>
   <v>       0.25000000 </v>
   <v>       0.25000000 </v>
  </varray>
 </kpoints>
 <parameters>
  <separator name="general" >
   <i type="string" name="SYSTEM">unknown system</i>
   <i type="logical" name="LCOMPAT"> F  </i>
  </separator>
  <separator name="electronic" >
   <i type="string" name="PREC">a</i>
   <i name="ENMAX">    400.00000000</i>
   <i name="ENAUG">    644.87300000</i>
   <i name="EDIFF">      0.00000100</i>
   <i type="int" name="IALGO">    68</i>
   <i type="int" name="IWAVPR">    12</i>
   <i type="int" name="NBANDS">     8</i>
   <i name="NELECT">      8.00000000</i>
   <i type="int" name="TURBO">     0</i>
   <i type="int" name="IRESTART">     0</i>
   <i type="int" name="NREBOOT">     0</i>
   <i type="int" name="NMIN">     0</i>
   <i name="EREF">      0.00000000</i>
   <separator name="electronic smearing" >
    <i type="int" name="ISMEAR">     1</i>
    <i name="SIGMA">      0.20000000</i>
    <i name="KSPACING">      0.50000000</i>
    <i type="logical" name="KGAMMA"> F  </i>
   </separator>
   <separator name="electronic projectors" >
    <i type="logical" name="LREAL"> T  </i>
    <v name="ROPT">      0.00000000      0.00000000</v>
    <i type="int" name="LMAXPAW">  -100</i>
    <i type="int" name="LMAXMIX">     2</i>
    <i type="logical" name="NLSPLINE"> F  </i>
   </separator>
   <separator name="electronic startup" >
    <i type="int" name="ISTART">     0</i>
    <i type="int" name="ICHARG">     2</i>
    <i type="int" name="INIWAV">     1</i>
   </separator>
   <separator name="electronic spin" >
    <i type="int" name="ISPIN">     1</i>
    <i type="logical" name="LNONCOLLINEAR"> F  </i>
    <v name="MAGMOM">      1.00000000      1.00000000      1.00000000      1.00000000      1.00000000</v>
    <i name="NUPDOWN">     -1.00000000</i>
    <i type="logical" name="LSORBIT"> F  </i>
    <v name="SAXIS">      0.00000000      0.00000000      1.00000000</v>
    <i type="logical" name="LSPIRAL"> F  </i>
    <v name="QSPIRAL">      0.00000000      0.00000000      0.00000000</v>
    <i type="logical" name="LZEROZ"> F  </i>
   </separator>
   <separator name="electronic exchange-correlation" >
    <i type="logical" name="LASPH"> F  </i>
    <i type="logical" name="LMETAGGA"> F  </i>
   </separator>
   <separator name="electronic convergence" >
    <i type="int" name="NELM">    60</i>
    <i type="int" name="NELMDL">    -5</i>
    <i type="int" name="NELMIN">     2</i>
    <i name="ENINI">    400.00000000</i>
    <separator name="electronic convergence detail" >
     <i type="logical" name="LDIAG"> T  </i>
     <i type="logical" name="LSUBROT"> F  </i>
     <i name="WEIMIN">      0.00100000</i>
     <i name="EBREAK">      0.00000003</i>
     <i name="DEPER">      0.30000000</i>
     <i type="int" name="NRMM">     4</i>
     <i name="TIME">      0.40000000</i>
    </separator>
   </separator>
   <separator name="electronic mixer" >
    <i name="AMIX">      0.40000000</i>
    <i name="BMIX">      1.00000000</i>
    <i name="AMIN">      0.10000000</i>
    <i name="AMIX_MAG">      1.60000000</i>
    <i name="BMIX_MAG">      1.00000000</i>
    <separator name="electronic mixer details" >
     <i type="int" name="IMIX">     4</i>
     <i type="logical" name="MIXFIRST"> F  </i>
     <i type="int" name="MAXMIX">    50</i>
     <i name="WC">    100.00000000</i>
     <i type="int" name="INIMIX">     1</i>
     <i type="int" name="MIXPRE">     1</i>
     <i type="int" name="MREMOVE">     5</i>
    </separator>
   </separator>
   <separator name="electronic dipolcorrection" >
    <i type="logical" name="LDIPOL"> F  </i>
    <i type="logical" name="LMONO"> F  </i>
    <i type="int" name="IDIPOL">     0</i>
    <i name="EPSILON">      1.00000000</i>
    <v name="DIPOL">   -100.00000000   -100.00000000   -100.00000000</v>
    <i name="EFIELD">      0.00000000</i>
   </separator>
  </separator>
  <separator name="grids" >
   <i type="int" name="NGX">    64</i>
   <i type="int" name="NGY">    70</i>
   <i type="int" name="NGZ">    64</i>
   <i type="int" name="NGXF">   128</i>
   <i type="int" name="NGYF">   140</i>
   <i type="int" name="NGZF">   128</i>
   <i type="logical" name="ADDGRID"> F  </i>
  </separator>
  <separator name="ionic" >
   <i type="int" name="NSW">    10</i>
   <i type="int" name="IBRION">     0</i>
   <i type="int" name="MDALGO">     0</i>
   <i type="int" name="ISIF">     2</i>
   <i name="PSTRESS">      0.00000000</i>
   <i name="EDIFFG">      0.00001000</i>
   <i type="int" name="NFREE">     0</i>
   <i name="POTIM">      2.00000000</i>
   <i name="SMASS">      0.00171818</i>
   <i name="SCALEE">      1.00000000</i>
  </separator>
  <separator name="ionic md" >
   <i name="TEBEG">     50.00000000</i>
   <i name="TEEND">     50.00000000</i>
   <i type="int" name="NBLOCK">     1</i>
   <i type="int" name="KBLOCK">     1</i>
   <i type="int" name="NPACO">   256</i>
   <i name="APACO">     16.00000000</i>
  </separator>
  <separator name="symmetry" >
   <i type="int" name="ISYM">     0</i>
   <i name="SYMPREC">      0.00001000</i>
  </separator>
  <separator name="dos" >
   <i type="int" name="LORBIT">     0</i>
   <v name="RWIGS">     -1.00000000     -1.00000000</v>
   <i type="int" name="NEDOS">   301</i>
   <i name="EMIN">     10.00000000</i>
   <i name="EMAX">    -10.00000000</i>
   <i name="EFERMI">      0.00000000</i>
  </separator>
  <separator name="writing" >
   <i type="int" name="NWRITE">     2</i>
   <i type="logical" name="LWAVE"> F  </i>
   <i type="logical" name="LDOWNSAMPLE"> F  </i>
   <i type="logical" name="LCHARG"> F  </i>
   <i type="logical" name="LPARD"> F  </i>
   <i type="logical" name="LVTOT"> F  </i>
   <i type="logical" name="LVHAR"> F  </i>
   <i type="logical" name="LELF"> F  </i>
   <i type="logical" name="LOPTICS"> F  </i>
   <v name="STM">      0.00000000      0.00000000      0.00000000      0.00000000      0.00000000      0.00000000      0.00000000</v>
  </separator>
  <separator name="performance" >
   <i type="int" name="NPAR">     1</i>
   <i type="int" name="NSIM">     4</i>
   <i type="int" name="NBLK">    -1</i>
   <i type="logical" name="LPLANE"> T  </i>
   <i type="logical" name="LSCALAPACK"> T  </i>
   <i type="logical" name="LSCAAWARE"> F  </i>
   <i type="logical" name="LSCALU"> F  </i>
   <i type="logical" name="LASYNC"> F  </i>
   <i type="logical" name="LORBITALREAL"> F  </i>
  </separator>
  <separator name="miscellaneous" >
   <i type="int" name="IDIOT">     3</i>
   <i type="int" name="ISPECIAL">     0</i>
   <i type="logical" name="LMUSIC"> F  </i>
   <v name="POMASS">      1.00000000     12.01100000</v>
   <v name="DARWINR">      0.00000000      0.00000000</v>
   <v name="DARWINV">      1.00000000      1.00000000</v>
   <i type="logical" name="LCORR"> T  </i>
  </separator>
  <i type="logical" name="GGA_COMPAT"> T  </i>
  <i type="logical" name="LBERRY"> F  </i>
  <i type="int" name="ICORELEVEL">     0</i>
  <i type="logical" name="LDAU"> F  </i>
  <i type="int" name="I_CONSTRAINED_M">     0</i>
  <separator name="electronic exchange-correlation" >
   <i type="string" name="GGA">--</i>
   <i type="int" name="VOSKOWN">     0</i>
   <i type="logical" name="LHFCALC"> F  </i>
   <i type="string" name="PRECFOCK"></i>
   <i type="logical" name="LSYMGRAD"> F  </i>
   <i type="logical" name="LHFONE"> F  </i>
   <i type="logical" name="LRHFCALC"> F  </i>
   <i type="logical" name="LTHOMAS"> F  </i>
   <i type="logical" name="LMODELHF"> F  </i>
   <i name="ENCUT4O">     -1.00000000</i>
   <i type="int" name="EXXOEP">     0</i>
   <i type="int" name="FOURORBIT">     0</i>
   <i name="AEXX">      0.00000000</i>
   <i name="HFALPHA">      0.00000000</i>
   <i name="MCALPHA">      0.00000000</i>
   <i name="ALDAX">      1.00000000</i>
   <i name="AGGAX">      1.00000000</i>
   <i name="ALDAC">      1.00000000</i>
   <i name="AGGAC">      1.00000000</i>
   <i type="int" name="NKREDX">     1</i>
   <i type="int" name="NKREDY">     1</i>
   <i type="int" name="NKREDZ">     1</i>
   <i type="logical" name="SHIFTRED"> F  </i>
   <i type="logical" name="ODDONLY"> F  </i>
   <i type="logical" name="EVENONLY"> F  </i>
   <i type="int" name="LMAXFOCK">     0</i>
   <i type="int" name="NMAXFOCKAE">     0</i>
   <i type="logical" name="LFOCKAEDFT"> F  </i>
   <i name="HFSCREEN">      0.00000000</i>
   <i name="HFSCREENC">      0.00000000</i>
   <i type="int" name="NBANDSGWLOW">     0</i>
  </separator>
  <separator name="vdW DFT" >
   <i type="logical" name="LUSE_VDW"> F  </i>
   <i name="Zab_VDW">     -0.84910000</i>
   <i name="PARAM1">      0.12340000</i>
   <i name="PARAM2">      1.00000000</i>
   <i name="PARAM3">      0.00000000</i>
  </separator>
  <separator name="model GW" >
   <i type="int" name="MODEL_GW">     0</i>
   <i name="MODEL_EPS0">    114.96820714</i>
   <i name="MODEL_ALPHA">      1.00000000</i>
  </separator>
  <separator name="linear response parameters" >
   <i type="logical" name="LEPSILON"> F  </i>
   <i type="logical" name="LRPA"> F  </i>
   <i type="logical" name="LNABLA"> F  </i>
   <i type="logical" name="LVEL"> F  </i>
   <i type="int" name="KINTER">     0</i>
   <i name="CSHIFT">      0.10000000</i>
   <i name="OMEGAMAX">     -1.00000000</i>
   <i name="DEG_THRESHOLD">      0.00200000</i>
   <i name="RTIME">     -0.10000000</i>
   <i name="WPLASMAI">      0.00000000</i>
   <v name="DFIELD">      0.00000000      0.00000000      0.00000000</v>
   <v name="WPLASMA">      0.00000000      0.00000000      0.00000000      0.00000000      0.00000000      0.00000000      0.00000000      0.00000000      0.00000000</v>
  </separator>
  <separator name="orbital magnetization" >
   <i type="logical" name="NUCIND"> F  </i>
   <v name="MAGPOS">      0.00000000      0.00000000      0.00000000</v>
   <i type="logical" name="LNICSALL"> T  </i>
   <i type="logical" name="ORBITALMAG"> F  </i>
   <i type="logical" name="LMAGBLOCH"> F  </i>
   <i type="logical" name="LCHIMAG"> F  </i>
   <i type="logical" name="LGAUGE"> T  </i>
   <i type="int" name="MAGATOM">     0</i>
   <v name="MAGDIPOL">      0.00000000      0.00000000      0.00000000</v>
   <v name="AVECCONST">      0.00000000      0.00000000      0.00000000</v>
  </separator>
  <separator name="response functions" >
   <i type="logical" name="LADDER"> F  </i>
   <i type="logical" name="LRPAFORCE"> F  </i>
   <i type="logical" name="LFXC"> F  </i>
   <i type="logical" name="LHARTREE"> T  </i>
   <i type="int" name="IBSE">     0</i>
   <v type="int" name="KPOINT">    -1     0     0     0</v>
   <i type="logical" name="LTCTE"> F  </i>
   <i type="logical" name="LTETE"> F  </i>
   <i type="logical" name="LTRIPLET"> F  </i>
   <i type="logical" name="LFXCEPS"> F  </i>
   <i type="logical" name="LFXHEG"> F  </i>
   <i type="int" name="NATURALO">     2</i>
   <i type="logical" name="L2ORDER"> F  </i>
   <i type="logical" name="LMP2LT"> F  </i>
   <i type="logical" name="LUSEW"> F  </i>
   <i name="ENCUTGW">     -2.00000000</i>
   <i name="ENCUTGWSOFT">     -2.00000000</i>
   <i name="ENCUTLF">     -1.00000000</i>
   <i type="int" name="LMAXMP2">    -1</i>
   <i name="SCISSOR">      0.00000000</i>
   <i type="int" name="NOMEGA">     0</i>
   <i type="int" name="NOMEGAR">     0</i>
   <i type="int" name="NBANDSGW">    -1</i>
   <i type="int" name="NBANDSO">    -1</i>
   <i type="int" name="NBANDSV">    -1</i>
   <i type="int" name="NELM">     1</i>
   <i type="int" name="NELMHF">     1</i>
   <i type="int" name="DIM">     3</i>
   <i type="int" name="ANTIRES">     0</i>
   <i name="OMEGAMAX">    -30.00000000</i>
   <i name="OMEGAMIN">    -30.00000000</i>
   <i name="OMEGATL">   -200.00000000</i>
   <i type="int" name="OMEGAGRID">   140</i>
   <i name="CSHIFT">     -0.10000000</i>
   <i type="logical" name="SELFENERGY"> F  </i>
   <i type="logical" name="LSPECTRAL"> F  </i>
   <i type="logical" name="LSPECTRALGW"> F  </i>
   <i type="logical" name="LSINGLES"> F  </i>
   <i type="logical" name="LFERMIGW"> F  </i>
   <i type="logical" name="ODDONLYGW"> F  </i>
   <i type="logical" name="EVENONLYGW"> F  </i>
   <i type="int" name="NKREDLFX">     1</i>
   <i type="int" name="NKREDLFY">     1</i>
   <i type="int" name="NKREDLFZ">     1</i>
   <i type="int" name="MAXMEM">  2800</i>
   <i type="int" name="TELESCOPE">     0</i>
   <i type="int" name="TAUPAR">     1</i>
   <i type="int" name="OMEGAPAR">    -1</i>
   <i name="LAMBDA">      1.00000000</i>
  </separator>
  <separator name="External order field" >
   <i name="OFIELD_KAPPA">      0.00000000</i>
   <v name="OFIELD_K">      0.00000000      0.00000000      0.00000000</v>
   <i name="OFIELD_Q6_NEAR">      0.00000000</i>
   <i name="OFIELD_Q6_FAR">      0.00000000</i>
   <i name="OFIELD_A">      0.00000000</i>
  </separator>
 </parameters>
 <atominfo>
  <atoms>       5 </atoms>
  <types>       2 </types>
  <array name="atoms" >
   <dimension dim="1">ion</dimension>
   <field type="string">element</field>
   <field type="int">atomtype</field>
   <set>
    <rc><c>H </c><c>   1</c></rc>
    <rc><c>H </c><c>   1</c></rc>
    <rc><c>H </c><c>   1</c></rc>
    <rc><c>H </c><c>   1</c></rc>
    <rc><c>C </c><c>   2</c></rc>
   </set>
  </array>
  <array name="atomtypes" >
   <dimension dim="1">type</dimension>
   <field type="int">atomspertype</field>
   <field type="string">element</field>
   <field>mass</field>
   <field>valence</field>
   <field type="string">pseudopotential</field>
   <set>
    <rc><c>   4</c><c>H </c><c>      1.00000000</c><c>      1.00000000</c><c>  PAW_PBE H 15Jun2001                   </c></rc>
    <rc><c>   1</c><c>C </c><c>     12.01100000</c><c>      4.00000000</c><c>  PAW_PBE C 08Apr2002                   </c></rc>
   </set>
  </array>
 </atominfo>
 <structure name="initialpos" >
  <crystal>
   <varray name="basis" >
    <v>       9.70252642       0.00000000       0.00000000 </v>
    <v>       0.27378818      10.03766441       0.00000000 </v>
    <v>       0.03426448       0.28252640       9.83737002 </v>
   </varray>
   <i name="volume">    958.06839286 </i>
   <varray name="rec_basis" >
    <v>       0.10306594      -0.00281124      -0.00027825 </v>
    <v>       0.00000000       0.09962477      -0.00286119 </v>
    <v>       0.00000000       0.00000000       0.10165319 </v>
   </varray>
  </crystal>
  <varray name="positions" >
   <v>       0.53796481       0.40660791       0.36044931 </v>
   <v>       0.39467980       0.48005301       0.43856926 </v>
   <v>       0.55250178       0.56519119       0.44244753 </v>
   <v>       0.52824869       0.41610105       0.53916710 </v>
   <v>       0.50327151       0.46732701       0.44510684 </v>
  </varray>
  <varray name="velocities" >
   <v>      -0.00118650       0.00031760       0.00090606 </v>
   <v>      -0.00030322      -0.00019704       0.00018855 </v>
   <v>      -0.00188152       0.00090905      -0.00172226 </v>
   <v>      -0.00117199       0.00256299      -0.00055408 </v>
   <v>       0.00037826      -0.00029911       0.00009839 </v>
  </varray>
 </structure>
 <calculation>
  <scstep>
   <time name="dav">    2.28    2.28</time>
   <time name="total">    3.87    3.87</time>
   <energy>
    <i name="alphaZ">      0.25285334 </i>
    <i name="ewald">    130.47326200 </i>
    <i name="hartreedc">   -244.04435045 </i>
    <i name="XCdc">     22.09379886 </i>
    <i name="pawpsdc">    117.05815612 </i>
    <i name="pawaedc">   -117.66307307 </i>
    <i name="eentropy">     -0.03199891 </i>
    <i name="bandstr">    -80.13257071 </i>
    <i name="atom">    197.04175453 </i>
    <i name="e_fr_energy">     25.04783171 </i>
    <i name="e_wo_entrp">     25.07983062 </i>
    <i name="e_0_energy">     25.05849802 </i>
   </energy>
  </scstep>
  <scstep>
   <time name="dav">    2.10    2.11</time>
   <time name="total">    2.10    2.11</time>
   <energy>
    <i name="e_fr_energy">    -21.47603614 </i>
    <i name="e_wo_entrp">    -21.47893509 </i>
    <i name="e_0_energy">    -21.47700245 </i>
   </energy>
  </scstep>
  <scstep>
   <time name="dav">    1.76    1.76</time>
   <time name="total">    1.76    1.76</time>
   <energy>
    <i name="e_fr_energy">    -27.47167555 </i>
    <i name="e_wo_entrp">    -27.50533968 </i>
    <i name="e_0_energy">    -27.48289693 </i>
   </energy>
  </scstep>
  <scstep>
   <time name="dav">    3.17    3.18</time>
   <time name="total">    3.17    3.18</time>
   <energy>
    <i name="e_fr_energy">    -27.72464529 </i>
    <i name="e_wo_entrp">    -27.75349137 </i>
    <i name="e_0_energy">    -27.73426065 </i>
   </energy>
  </scstep>
  <scstep>
   <time name="dav">    2.42    2.43</time>
   <time name="total">    2.63    2.63</time>
   <energy>
    <i name="e_fr_energy">    -27.72471631 </i>
    <i name="e_wo_entrp">    -27.75356235 </i>
    <i name="e_0_energy">    -27.73433166 </i>
   </energy>
  </scstep>
  <scstep>
   <time name="diag">    0.36    0.36</time>
   <time name="diis">    1.23    1.23</time>
   <time name="orth">    0.01    0.01</time>
   <time name="total">    3.38    3.39</time>
   <energy>
    <i name="e_fr_energy">    -24.63857084 </i>
    <i name="e_wo_entrp">    -24.67387039 </i>
    <i name="e_0_energy">    -24.65033735 </i>
   </energy>
  </scstep>
  <scstep>
   <time name="diag">    0.35    0.35</time>
   <time name="diis">    1.27    1.27</time>
   <time name="orth">    0.01    0.01</time>
   <time name="total">    3.42    3.43</time>
   <energy>
    <i name="e_fr_energy">    -24.11459567 </i>
    <i name="e_wo_entrp">    -24.15364021 </i>
    <i name="e_0_energy">    -24.12761052 </i>
   </energy>
  </scstep>
  <scstep>
   <time name="diag">    0.36    0.37</time>
   <time name="diis">    1.26    1.26</time>
   <time name="orth">    0.01    0.01</time>
   <time name="total">    3.40    3.41</time>
   <energy>
    <i name="e_fr_energy">    -23.99880783 </i>
    <i name="e_wo_entrp">    -24.03389508 </i>
    <i name="e_0_energy">    -24.01050358 </i>
   </energy>
  </scstep>
  <scstep>
   <time name="diag">    0.36    0.36</time>
   <time name="diis">    1.31    1.31</time>
   <time name="orth">    0.01    0.01</time>
   <time name="total">    3.45    3.46</time>
   <energy>
    <i name="e_fr_energy">    -23.95997048 </i>
    <i name="e_wo_entrp">    -23.99921839 </i>
    <i name="e_0_energy">    -23.97305312 </i>
   </energy>
  </scstep>
  <scstep>
   <time name="diag">    0.33    0.33</time>
   <time name="diis">    1.31    1.31</time>
   <time name="orth">    0.01    0.01</time>
   <time name="total">    3.43    3.44</time>
   <energy>
    <i name="e_fr_energy">    -23.95568967 </i>
    <i name="e_wo_entrp">    -23.99392063 </i>
    <i name="e_0_energy">    -23.96843332 </i>
   </energy>
  </scstep>
  <scstep>
   <time name="diag">    0.34    0.34</time>
   <time name="diis">    1.25    1.25</time>
   <time name="orth">    0.01    0.01</time>
   <time name="total">    3.40    3.41</time>
   <energy>
    <i name="e_fr_energy">    -23.96011475 </i>
    <i name="e_wo_entrp">    -24.00083257 </i>
    <i name="e_0_energy">    -23.97368736 </i>
   </energy>
  </scstep>
  <scstep>
   <time name="diag">    0.36    0.36</time>
   <time name="diis">    1.21    1.21</time>
   <time name="orth">    0.01    0.01</time>
   <time name="total">    3.33    3.34</time>
   <energy>
    <i name="e_fr_energy">    -23.94898063 </i>
    <i name="e_wo_entrp">    -23.98600658 </i>
    <i name="e_0_energy">    -23.96132262 </i>
   </energy>
  </scstep>
  <scstep>
   <time name="diag">    0.37    0.37</time>
   <time name="diis">    1.21    1.21</time>
   <time name="orth">    0.01    0.01</time>
   <time name="total">    3.34    3.34</time>
   <energy>
    <i name="e_fr_energy">    -23.95235865 </i>
    <i name="e_wo_entrp">    -23.98955203 </i>
    <i name="e_0_energy">    -23.96475644 </i>
   </energy>
  </scstep>
  <scstep>
   <time name="diag">    0.38    0.38</time>
   <time name="diis">    1.26    1.26</time>
   <time name="orth">    0.01    0.01</time>
   <time name="total">    3.30    3.31</time>
   <energy>
    <i name="e_fr_energy">    -23.95757876 </i>
    <i name="e_wo_entrp">    -23.99462008 </i>
    <i name="e_0_energy">    -23.96992587 </i>
   </energy>
  </scstep>
  <scstep>
   <time name="diag">    0.38    0.38</time>
   <time name="diis">    1.25    1.25</time>
   <time name="orth">    0.01    0.01</time>
   <time name="total">    3.28    3.29</time>
   <energy>
    <i name="e_fr_energy">    -23.95924823 </i>
    <i name="e_wo_entrp">    -23.99625649 </i>
    <i name="e_0_energy">    -23.97158432 </i>
   </energy>
  </scstep>
  <scstep>
   <time name="diag">    0.38    0.38</time>
   <time name="diis">    1.26    1.27</time>
   <time name="orth">    0.01    0.01</time>
   <time name="total">    3.28    3.29</time>
   <energy>
    <i name="e_fr_energy">    -23.96049185 </i>
    <i name="e_wo_entrp">    -23.99750239 </i>
    <i name="e_0_energy">    -23.97282870 </i>
   </energy>
  </scstep>
  <scstep>
   <time name="diag">    0.37    0.37</time>
   <time name="diis">    1.26    1.26</time>
   <time name="orth">    0.01    0.01</time>
   <time name="total">    3.27    3.28</time>
   <energy>
    <i name="e_fr_energy">    -23.96178026 </i>
    <i name="e_wo_entrp">    -23.99879150 </i>
    <i name="e_0_energy">    -23.97411734 </i>
   </energy>
  </scstep>
  <scstep>
   <time name="diag">    0.38    0.38</time>
   <time name="diis">    1.27    1.28</time>
   <time name="orth">    0.01    0.01</time>
   <time name="total">    3.28    3.28</time>
   <energy>
    <i name="e_fr_energy">    -23.96192663 </i>
    <i name="e_wo_entrp">    -23.99893495 </i>
    <i name="e_0_energy">    -23.97426274 </i>
   </energy>
  </scstep>
  <scstep>
   <time name="diag">    0.39    0.39</time>
   <time name="diis">    1.27    1.27</time>
   <time name="orth">    0.01    0.01</time>
   <time name="total">    3.28    3.29</time>
   <energy>
    <i name="e_fr_energy">    -23.96209313 </i>
    <i name="e_wo_entrp">    -23.99910227 </i>
    <i name="e_0_energy">    -23.97442951 </i>
   </energy>
  </scstep>
  <scstep>
   <time name="diag">    0.38    0.38</time>
   <time name="diis">    1.05    1.05</time>
   <time name="orth">    0.01    0.01</time>
   <time name="total">    3.09    3.10</time>
   <energy>
    <i name="e_fr_energy">    -23.96211415 </i>
    <i name="e_wo_entrp">    -23.99912199 </i>
    <i name="e_0_energy">    -23.97445010 </i>
   </energy>
  </scstep>
  <scstep>
   <time name="diag">    0.34    0.34</time>
   <time name="diis">    0.97    0.98</time>
   <time name="orth">    0.01    0.01</time>
   <time name="total">    3.03    3.04</time>
   <energy>
    <i name="e_fr_energy">    -23.96212438 </i>
    <i name="e_wo_entrp">    -23.99913236 </i>
    <i name="e_0_energy">    -23.97446037 </i>
   </energy>
  </scstep>
  <scstep>
   <time name="diag">    0.32    0.33</time>
   <time name="diis">    0.94    0.94</time>
   <time name="orth">    0.01    0.01</time>
   <time name="total">    3.04    3.05</time>
   <energy>
    <i name="e_fr_energy">    -23.96212580 </i>
    <i name="e_wo_entrp">    -23.99913386 </i>
    <i name="e_0_energy">    -23.97446182 </i>
   </energy>
  </scstep>
  <scstep>
   <time name="diag">    0.35    0.36</time>
   <time name="diis">    0.95    0.95</time>
   <time name="orth">    0.01    0.01</time>
   <time name="total">    2.89    2.89</time>
   <energy>
    <i name="alphaZ">      0.25285334 </i>
    <i name="ewald">    130.47326200 </i>
    <i name="hartreedc">   -285.87303794 </i>
    <i name="XCdc">     24.90811577 </i>
    <i name="pawpsdc">    503.25604876 </i>
    <i name="pawaedc">   -504.05833166 </i>
    <i name="eentropy">      0.03700807 </i>
    <i name="bandstr">    -89.99979955 </i>
    <i name="atom">    197.04175453 </i>
    <i name="e_fr_energy">    -23.96212667 </i>
    <i name="e_wo_entrp">    -23.99913475 </i>
    <i name="e_0_energy">    -23.97446270 </i>
   </energy>
  </scstep>
  <structure>
   <crystal>
    <varray name="basis" >
     <v>       9.70252642       0.00000000       0.00000000 </v>
     <v>       0.27378818      10.03766441       0.00000000 </v>
     <v>       0.03426448       0.28252640       9.83737002 </v>
    </varray>
    <i name="volume">    958.06839286 </i>
    <varray name="rec_basis" >
     <v>       0.10306594      -0.00281124      -0.00027825 </v>
     <v>       0.00000000       0.09962477      -0.00286119 </v>
     <v>       0.00000000       0.00000000       0.10165319 </v>
    </varray>
   </crystal>
   <varray name="positions" >
    <v>       0.53796481       0.40660791       0.36044931 </v>
    <v>       0.39467980       0.48005301       0.43856926 </v>
    <v>       0.55250178       0.56519119       0.44244753 </v>
    <v>       0.52824869       0.41610105       0.53916710 </v>
    <v>       0.50327151       0.46732701       0.44510684 </v>
   </varray>
  </structure>
  <varray name="forces" >
   <v>       0.09406210       0.38984482       0.57717899 </v>
   <v>      -1.14217618      -0.01072454      -0.09706310 </v>
   <v>       0.46417695       0.49886306       0.32054409 </v>
   <v>      -0.04491795      -0.30788050       1.17661970 </v>
   <v>      -0.48109028       0.44636659       0.31971105 </v>
  </varray>
  <varray name="stress" >
   <v>       1.92827781      -1.08679205       0.56246179 </v>
   <v>      -1.08679205      -0.64307951      -0.42322493 </v>
   <v>       0.56246179      -0.42322493       0.35817039 </v>
  </varray>
  <energy>
   <i name="e_fr_energy">    -23.96212667 </i>
   <i name="e_wo_entrp">    -23.97446270 </i>
   <i name="e_0_energy">      0.03700807 </i>
   <i name="kinetic">      0.03364121 </i>
   <i name="lattice kinetic">      0.00000000 </i>
   <i name="nosepot">      0.00000000 </i>
   <i name="nosekinetic">      0.00000725 </i>
   <i name="total">    -23.92847821 </i>
  </energy>
  <dos>
   <i name="efermi">     -9.15274423 </i>
   <total>
    <array>
     <dimension dim="1">gridpoints</dimension>
     <dimension dim="2">spin</dimension>
     <field>energy</field>
     <field>total</field>
     <field>integrated</field>
     <set>
      <set comment="spin 1">
       <r>   -18.9899     0.0000     0.0000 </r>
       <r>   -18.9175     0.0000     0.0000 </r>
       <r>   -18.8451     0.0000     0.0000 </r>
       <r>   -18.7727     0.0000     0.0000 </r>
       <r>   -18.7003     0.0000     0.0000 </r>
       <r>   -18.6279    -0.0000    -0.0000 </r>
       <r>   -18.5555    -0.0000    -0.0000 </r>
       <r>   -18.4831    -0.0000    -0.0000 </r>
       <r>   -18.4107    -0.0000    -0.0000 </r>
       <r>   -18.3383    -0.0000    -0.0000 </r>
       <r>   -18.2659    -0.0000    -0.0000 </r>
       <r>   -18.1935    -0.0000    -0.0000 </r>
       <r>   -18.1210    -0.0000    -0.0000 </r>
       <r>   -18.0486    -0.0000    -0.0000 </r>
       <r>   -17.9762    -0.0000    -0.0000 </r>
       <r>   -17.9038    -0.0000    -0.0000 </r>
       <r>   -17.8314    -0.0000    -0.0000 </r>
       <r>   -17.7590    -0.0000    -0.0000 </r>
       <r>   -17.6866    -0.0001    -0.0000 </r>
       <r>   -17.6142    -0.0012    -0.0001 </r>
       <r>   -17.5418    -0.0080    -0.0007 </r>
       <r>   -17.4694    -0.0406    -0.0036 </r>
       <r>   -17.3970    -0.1466    -0.0142 </r>
       <r>   -17.3246    -0.3480    -0.0394 </r>
       <r>   -17.2522    -0.4065    -0.0689 </r>
       <r>   -17.1798     0.4245    -0.0381 </r>
       <r>   -17.1074     2.8934     0.1714 </r>
       <r>   -17.0350     6.3199     0.6290 </r>
       <r>   -16.9626     8.2843     1.2288 </r>
       <r>   -16.8902     7.0419     1.7387 </r>
       <r>   -16.8178     3.7192     2.0079 </r>
       <r>   -16.7454     0.8697     2.0709 </r>
       <r>   -16.6730    -0.3227     2.0476 </r>
       <r>   -16.6006    -0.3954     2.0189 </r>
       <r>   -16.5281    -0.1893     2.0052 </r>
       <r>   -16.4557    -0.0576     2.0010 </r>
       <r>   -16.3833    -0.0123     2.0002 </r>
       <r>   -16.3109    -0.0019     2.0000 </r>
       <r>   -16.2385    -0.0002     2.0000 </r>
       <r>   -16.1661    -0.0000     2.0000 </r>
       <r>   -16.0937    -0.0000     2.0000 </r>
       <r>   -16.0213    -0.0000     2.0000 </r>
       <r>   -15.9489    -0.0000     2.0000 </r>
       <r>   -15.8765    -0.0000     2.0000 </r>
       <r>   -15.8041    -0.0000     2.0000 </r>
       <r>   -15.7317    -0.0000     2.0000 </r>
       <r>   -15.6593     0.0000     2.0000 </r>
       <r>   -15.5869     0.0000     2.0000 </r>
       <r>   -15.5145     0.0000     2.0000 </r>
       <r>   -15.4421     0.0000     2.0000 </r>
       <r>   -15.3697     0.0000     2.0000 </r>
       <r>   -15.2973     0.0000     2.0000 </r>
       <r>   -15.2249     0.0000     2.0000 </r>
       <r>   -15.1525     0.0000     2.0000 </r>
       <r>   -15.0801     0.0000     2.0000 </r>
       <r>   -15.0077     0.0000     2.0000 </r>
       <r>   -14.9353     0.0000     2.0000 </r>
       <r>   -14.8628     0.0000     2.0000 </r>
       <r>   -14.7904     0.0000     2.0000 </r>
       <r>   -14.7180     0.0000     2.0000 </r>
       <r>   -14.6456     0.0000     2.0000 </r>
       <r>   -14.5732     0.0000     2.0000 </r>
       <r>   -14.5008     0.0000     2.0000 </r>
       <r>   -14.4284     0.0000     2.0000 </r>
       <r>   -14.3560     0.0000     2.0000 </r>
       <r>   -14.2836     0.0000     2.0000 </r>
       <r>   -14.2112     0.0000     2.0000 </r>
       <r>   -14.1388     0.0000     2.0000 </r>
       <r>   -14.0664     0.0000     2.0000 </r>
       <r>   -13.9940     0.0000     2.0000 </r>
       <r>   -13.9216     0.0000     2.0000 </r>
       <r>   -13.8492     0.0000     2.0000 </r>
       <r>   -13.7768     0.0000     2.0000 </r>
       <r>   -13.7044     0.0000     2.0000 </r>
       <r>   -13.6320     0.0000     2.0000 </r>
       <r>   -13.5596     0.0000     2.0000 </r>
       <r>   -13.4872     0.0000     2.0000 </r>
       <r>   -13.4148     0.0000     2.0000 </r>
       <r>   -13.3424     0.0000     2.0000 </r>
       <r>   -13.2699     0.0000     2.0000 </r>
       <r>   -13.1975     0.0000     2.0000 </r>
       <r>   -13.1251     0.0000     2.0000 </r>
       <r>   -13.0527     0.0000     2.0000 </r>
       <r>   -12.9803     0.0000     2.0000 </r>
       <r>   -12.9079     0.0000     2.0000 </r>
       <r>   -12.8355     0.0000     2.0000 </r>
       <r>   -12.7631     0.0000     2.0000 </r>
       <r>   -12.6907     0.0000     2.0000 </r>
       <r>   -12.6183     0.0000     2.0000 </r>
       <r>   -12.5459     0.0000     2.0000 </r>
       <r>   -12.4735     0.0000     2.0000 </r>
       <r>   -12.4011     0.0000     2.0000 </r>
       <r>   -12.3287     0.0000     2.0000 </r>
       <r>   -12.2563     0.0000     2.0000 </r>
       <r>   -12.1839     0.0000     2.0000 </r>
       <r>   -12.1115     0.0000     2.0000 </r>
       <r>   -12.0391     0.0000     2.0000 </r>
       <r>   -11.9667     0.0000     2.0000 </r>
       <r>   -11.8943     0.0000     2.0000 </r>
       <r>   -11.8219     0.0000     2.0000 </r>
       <r>   -11.7495     0.0000     2.0000 </r>
       <r>   -11.6770     0.0000     2.0000 </r>
       <r>   -11.6046     0.0000     2.0000 </r>
       <r>   -11.5322     0.0000     2.0000 </r>
       <r>   -11.4598     0.0000     2.0000 </r>
       <r>   -11.3874     0.0000     2.0000 </r>
       <r>   -11.3150     0.0000     2.0000 </r>
       <r>   -11.2426     0.0000     2.0000 </r>
       <r>   -11.1702     0.0000     2.0000 </r>
       <r>   -11.0978     0.0000     2.0000 </r>
       <r>   -11.0254    -0.0000     2.0000 </r>
       <r>   -10.9530    -0.0000     2.0000 </r>
       <r>   -10.8806    -0.0000     2.0000 </r>
       <r>   -10.8082    -0.0000     2.0000 </r>
       <r>   -10.7358    -0.0000     2.0000 </r>
       <r>   -10.6634    -0.0000     2.0000 </r>
       <r>   -10.5910    -0.0000     2.0000 </r>
       <r>   -10.5186    -0.0000     2.0000 </r>
       <r>   -10.4462    -0.0000     2.0000 </r>
       <r>   -10.3738    -0.0000     2.0000 </r>
       <r>   -10.3014    -0.0000     2.0000 </r>
       <r>   -10.2290    -0.0000     2.0000 </r>
       <r>   -10.1566    -0.0000     2.0000 </r>
       <r>   -10.0841    -0.0002     2.0000 </r>
       <r>   -10.0117    -0.0015     1.9999 </r>
       <r>    -9.9393    -0.0109     1.9991 </r>
       <r>    -9.8669    -0.0583     1.9949 </r>
       <r>    -9.7945    -0.2278     1.9784 </r>
       <r>    -9.7221    -0.6231     1.9333 </r>
       <r>    -9.6497    -1.0385     1.8581 </r>
       <r>    -9.5773    -0.3070     1.8358 </r>
       <r>    -9.5049     3.6582     2.1007 </r>
       <r>    -9.4325    11.6460     2.9439 </r>
       <r>    -9.3601    20.2431     4.4096 </r>
       <r>    -9.2877    23.2653     6.0941 </r>
       <r>    -9.2153    18.1036     7.4049 </r>
       <r>    -9.1429     8.9244     8.0511 </r>
       <r>    -9.0705     1.8556     8.1855 </r>
       <r>    -8.9981    -0.9071     8.1198 </r>
       <r>    -8.9257    -0.9997     8.0474 </r>
       <r>    -8.8533    -0.4729     8.0131 </r>
       <r>    -8.7809    -0.1447     8.0027 </r>
       <r>    -8.7085    -0.0313     8.0004 </r>
       <r>    -8.6361    -0.0050     8.0000 </r>
       <r>    -8.5637    -0.0006     8.0000 </r>
       <r>    -8.4912    -0.0001     8.0000 </r>
       <r>    -8.4188    -0.0000     8.0000 </r>
       <r>    -8.3464    -0.0000     8.0000 </r>
       <r>    -8.2740    -0.0000     8.0000 </r>
       <r>    -8.2016    -0.0000     8.0000 </r>
       <r>    -8.1292    -0.0000     8.0000 </r>
       <r>    -8.0568    -0.0000     8.0000 </r>
       <r>    -7.9844     0.0000     8.0000 </r>
       <r>    -7.9120     0.0000     8.0000 </r>
       <r>    -7.8396     0.0000     8.0000 </r>
       <r>    -7.7672     0.0000     8.0000 </r>
       <r>    -7.6948     0.0000     8.0000 </r>
       <r>    -7.6224     0.0000     8.0000 </r>
       <r>    -7.5500     0.0000     8.0000 </r>
       <r>    -7.4776     0.0000     8.0000 </r>
       <r>    -7.4052     0.0000     8.0000 </r>
       <r>    -7.3328     0.0000     8.0000 </r>
       <r>    -7.2604     0.0000     8.0000 </r>
       <r>    -7.1880     0.0000     8.0000 </r>
       <r>    -7.1156     0.0000     8.0000 </r>
       <r>    -7.0432     0.0000     8.0000 </r>
       <r>    -6.9708     0.0000     8.0000 </r>
       <r>    -6.8984     0.0000     8.0000 </r>
       <r>    -6.8259     0.0000     8.0000 </r>
       <r>    -6.7535     0.0000     8.0000 </r>
       <r>    -6.6811     0.0000     8.0000 </r>
       <r>    -6.6087     0.0000     8.0000 </r>
       <r>    -6.5363     0.0000     8.0000 </r>
       <r>    -6.4639     0.0000     8.0000 </r>
       <r>    -6.3915     0.0000     8.0000 </r>
       <r>    -6.3191     0.0000     8.0000 </r>
       <r>    -6.2467     0.0000     8.0000 </r>
       <r>    -6.1743     0.0000     8.0000 </r>
       <r>    -6.1019     0.0000     8.0000 </r>
       <r>    -6.0295     0.0000     8.0000 </r>
       <r>    -5.9571     0.0000     8.0000 </r>
       <r>    -5.8847     0.0000     8.0000 </r>
       <r>    -5.8123     0.0000     8.0000 </r>
       <r>    -5.7399     0.0000     8.0000 </r>
       <r>    -5.6675     0.0000     8.0000 </r>
       <r>    -5.5951     0.0000     8.0000 </r>
       <r>    -5.5227     0.0000     8.0000 </r>
       <r>    -5.4503     0.0000     8.0000 </r>
       <r>    -5.3779     0.0000     8.0000 </r>
       <r>    -5.3055     0.0000     8.0000 </r>
       <r>    -5.2330     0.0000     8.0000 </r>
       <r>    -5.1606     0.0000     8.0000 </r>
       <r>    -5.0882     0.0000     8.0000 </r>
       <r>    -5.0158     0.0000     8.0000 </r>
       <r>    -4.9434     0.0000     8.0000 </r>
       <r>    -4.8710     0.0000     8.0000 </r>
       <r>    -4.7986     0.0000     8.0000 </r>
       <r>    -4.7262     0.0000     8.0000 </r>
       <r>    -4.6538     0.0000     8.0000 </r>
       <r>    -4.5814     0.0000     8.0000 </r>
       <r>    -4.5090     0.0000     8.0000 </r>
       <r>    -4.4366     0.0000     8.0000 </r>
       <r>    -4.3642     0.0000     8.0000 </r>
       <r>    -4.2918     0.0000     8.0000 </r>
       <r>    -4.2194     0.0000     8.0000 </r>
       <r>    -4.1470     0.0000     8.0000 </r>
       <r>    -4.0746     0.0000     8.0000 </r>
       <r>    -4.0022     0.0000     8.0000 </r>
       <r>    -3.9298     0.0000     8.0000 </r>
       <r>    -3.8574     0.0000     8.0000 </r>
       <r>    -3.7850     0.0000     8.0000 </r>
       <r>    -3.7126     0.0000     8.0000 </r>
       <r>    -3.6401     0.0000     8.0000 </r>
       <r>    -3.5677     0.0000     8.0000 </r>
       <r>    -3.4953     0.0000     8.0000 </r>
       <r>    -3.4229     0.0000     8.0000 </r>
       <r>    -3.3505     0.0000     8.0000 </r>
       <r>    -3.2781     0.0000     8.0000 </r>
       <r>    -3.2057     0.0000     8.0000 </r>
       <r>    -3.1333     0.0000     8.0000 </r>
       <r>    -3.0609     0.0000     8.0000 </r>
       <r>    -2.9885     0.0000     8.0000 </r>
       <r>    -2.9161     0.0000     8.0000 </r>
       <r>    -2.8437     0.0000     8.0000 </r>
       <r>    -2.7713     0.0000     8.0000 </r>
       <r>    -2.6989     0.0000     8.0000 </r>
       <r>    -2.6265     0.0000     8.0000 </r>
       <r>    -2.5541     0.0000     8.0000 </r>
       <r>    -2.4817     0.0000     8.0000 </r>
       <r>    -2.4093     0.0000     8.0000 </r>
       <r>    -2.3369     0.0000     8.0000 </r>
       <r>    -2.2645     0.0000     8.0000 </r>
       <r>    -2.1921     0.0000     8.0000 </r>
       <r>    -2.1197     0.0000     8.0000 </r>
       <r>    -2.0472     0.0000     8.0000 </r>
       <r>    -1.9748     0.0000     8.0000 </r>
       <r>    -1.9024    -0.0000     8.0000 </r>
       <r>    -1.8300    -0.0000     8.0000 </r>
       <r>    -1.7576    -0.0000     8.0000 </r>
       <r>    -1.6852    -0.0000     8.0000 </r>
       <r>    -1.6128    -0.0000     8.0000 </r>
       <r>    -1.5404    -0.0000     8.0000 </r>
       <r>    -1.4680    -0.0000     8.0000 </r>
       <r>    -1.3956    -0.0000     8.0000 </r>
       <r>    -1.3232    -0.0000     8.0000 </r>
       <r>    -1.2508    -0.0000     8.0000 </r>
       <r>    -1.1784    -0.0000     8.0000 </r>
       <r>    -1.1060    -0.0000     8.0000 </r>
       <r>    -1.0336    -0.0000     8.0000 </r>
       <r>    -0.9612    -0.0003     8.0000 </r>
       <r>    -0.8888    -0.0025     7.9998 </r>
       <r>    -0.8164    -0.0156     7.9987 </r>
       <r>    -0.7440    -0.0697     7.9936 </r>
       <r>    -0.6716    -0.2165     7.9779 </r>
       <r>    -0.5992    -0.4163     7.9478 </r>
       <r>    -0.5268    -0.2438     7.9301 </r>
       <r>    -0.4544     1.1741     8.0152 </r>
       <r>    -0.3819     4.2079     8.3198 </r>
       <r>    -0.3095     7.3917     8.8550 </r>
       <r>    -0.2371     8.1852     9.4477 </r>
       <r>    -0.1647     5.8644     9.8723 </r>
       <r>    -0.0923     2.4546    10.0500 </r>
       <r>    -0.0199     0.2199    10.0659 </r>
       <r>     0.0525    -0.4409    10.0340 </r>
       <r>     0.1249    -0.3795    10.0065 </r>
       <r>     0.1973    -0.3476     9.9814 </r>
       <r>     0.2697    -0.5923     9.9385 </r>
       <r>     0.3421    -0.8456     9.8772 </r>
       <r>     0.4145    -0.0758     9.8718 </r>
       <r>     0.4869     3.3383    10.1135 </r>
       <r>     0.5593    10.0616    10.8420 </r>
       <r>     0.6317    17.8095    12.1315 </r>
       <r>     0.7041    21.8266    13.7118 </r>
       <r>     0.7765    18.9464    15.0836 </r>
       <r>     0.8489    11.1477    15.8908 </r>
       <r>     0.9213     3.6530    16.1553 </r>
       <r>     0.9937    -0.2357    16.1382 </r>
       <r>     1.0661    -1.0072    16.0653 </r>
       <r>     1.1385    -0.6120    16.0209 </r>
       <r>     1.2110    -0.2221    16.0049 </r>
       <r>     1.2834    -0.0556    16.0008 </r>
       <r>     1.3558    -0.0101    16.0001 </r>
       <r>     1.4282    -0.0014    16.0000 </r>
       <r>     1.5006    -0.0001    16.0000 </r>
       <r>     1.5730    -0.0000    16.0000 </r>
       <r>     1.6454    -0.0000    16.0000 </r>
       <r>     1.7178    -0.0000    16.0000 </r>
       <r>     1.7902    -0.0000    16.0000 </r>
       <r>     1.8626    -0.0000    16.0000 </r>
       <r>     1.9350    -0.0000    16.0000 </r>
       <r>     2.0074    -0.0000    16.0000 </r>
       <r>     2.0798     0.0000    16.0000 </r>
       <r>     2.1522     0.0000    16.0000 </r>
       <r>     2.2246     0.0000    16.0000 </r>
       <r>     2.2970     0.0000    16.0000 </r>
       <r>     2.3694     0.0000    16.0000 </r>
       <r>     2.4418     0.0000    16.0000 </r>
       <r>     2.5142     0.0000    16.0000 </r>
       <r>     2.5866     0.0000    16.0000 </r>
       <r>     2.6590     0.0000    16.0000 </r>
       <r>     2.7314     0.0000    16.0000 </r>
      </set>
     </set>
    </array>
   </total>
  </dos>
  <time name="totalsc">   79.09   79.28</time>
 </calculation>
 <calculation>
  <scstep>
   <time name="dav">    1.67    1.67</time>
   <time name="total">    3.41    3.42</time>
   <energy>
    <i name="alphaZ">      0.25285334 </i>
    <i name="ewald">    126.94973888 </i>
    <i name="hartreedc">   -283.80069351 </i>
    <i name="XCdc">     24.80278958 </i>
    <i name="pawpsdc">    503.24999212 </i>
    <i name="pawaedc">   -504.05227162 </i>
    <i name="eentropy">      0.02565035 </i>
    <i name="bandstr">    -88.45212427 </i>
    <i name="atom">    197.04175453 </i>
    <i name="e_fr_energy">    -23.98231060 </i>
    <i name="e_wo_entrp">    -24.00796096 </i>
    <i name="e_0_energy">    -23.99086072 </i>
   </energy>
  </scstep>
  <scstep>
   <time name="diag">    0.34    0.34</time>
   <time name="diis">    1.22    1.22</time>
   <time name="orth">    0.01    0.01</time>
   <time name="total">    3.20    3.21</time>
   <energy>
    <i name="e_fr_energy">    -23.99672201 </i>
    <i name="e_wo_entrp">    -24.02213660 </i>
    <i name="e_0_energy">    -24.00519354 </i>
   </energy>
  </scstep>
  <scstep>
   <time name="diag">    0.35    0.35</time>
   <time name="diis">    1.20    1.21</time>
   <time name="orth">    0.01    0.01</time>
   <time name="total">    3.14    3.15</time>
   <energy>
    <i name="e_fr_energy">    -23.97713966 </i>
    <i name="e_wo_entrp">    -24.00135559 </i>
    <i name="e_0_energy">    -23.98521164 </i>
   </energy>
  </scstep>
  <scstep>
   <time name="diag">    0.37    0.37</time>
   <time name="diis">    1.24    1.24</time>
   <time name="orth">    0.01    0.01</time>
   <time name="total">    3.22    3.23</time>
   <energy>
    <i name="e_fr_energy">    -23.97423446 </i>
    <i name="e_wo_entrp">    -23.99876992 </i>
    <i name="e_0_energy">    -23.98241295 </i>
   </energy>
  </scstep>
  <scstep>
   <time name="diag">    0.35    0.35</time>
   <time name="diis">    1.24    1.25</time>
   <time name="orth">    0.01    0.01</time>
   <time name="total">    3.22    3.23</time>
   <energy>
    <i name="e_fr_energy">    -23.97045563 </i>
    <i name="e_wo_entrp">    -23.99405031 </i>
    <i name="e_0_energy">    -23.97832052 </i>
   </energy>
  </scstep>
  <scstep>
   <time name="diag">    0.36    0.37</time>
   <time name="diis">    1.24    1.24</time>
   <time name="orth">    0.01    0.01</time>
   <time name="total">    3.27    3.28</time>
   <energy>
    <i name="e_fr_energy">    -23.97027505 </i>
    <i name="e_wo_entrp">    -23.99390817 </i>
    <i name="e_0_energy">    -23.97815276 </i>
   </energy>
  </scstep>
  <scstep>
   <time name="diag">    0.38    0.38</time>
   <time name="diis">    1.27    1.27</time>
   <time name="orth">    0.01    0.01</time>
   <time name="total">    3.32    3.33</time>
   <energy>
    <i name="e_fr_energy">    -23.97001391 </i>
    <i name="e_wo_entrp">    -23.99371140 </i>
    <i name="e_0_energy">    -23.97791307 </i>
   </energy>
  </scstep>
  <scstep>
   <time name="diag">    0.39    0.39</time>
   <time name="diis">    1.30    1.30</time>
   <time name="orth">    0.01    0.01</time>
   <time name="total">    3.38    3.39</time>
   <energy>
    <i name="e_fr_energy">    -23.96984588 </i>
    <i name="e_wo_entrp">    -23.99364812 </i>
    <i name="e_0_energy">    -23.97777996 </i>
   </energy>
  </scstep>
  <scstep>
   <time name="diag">    0.39    0.39</time>
   <time name="diis">    1.31    1.31</time>
   <time name="orth">    0.01    0.01</time>
   <time name="total">    3.40    3.41</time>
   <energy>
    <i name="e_fr_energy">    -23.96973546 </i>
    <i name="e_wo_entrp">    -23.99369412 </i>
    <i name="e_0_energy">    -23.97772168 </i>
   </energy>
  </scstep>
  <scstep>
   <time name="diag">    0.39    0.39</time>
   <time name="diis">    1.29    1.29</time>
   <time name="orth">    0.01    0.01</time>
   <time name="total">    3.37    3.38</time>
   <energy>
    <i name="e_fr_energy">    -23.96971774 </i>
    <i name="e_wo_entrp">    -23.99377970 </i>
    <i name="e_0_energy">    -23.97773839 </i>
   </energy>
  </scstep>
  <scstep>
   <time name="diag">    0.38    0.38</time>
   <time name="diis">    1.31    1.31</time>
   <time name="orth">    0.01    0.01</time>
   <time name="total">    3.39    3.39</time>
   <energy>
    <i name="e_fr_energy">    -23.96974177 </i>
    <i name="e_wo_entrp">    -23.99382431 </i>
    <i name="e_0_energy">    -23.97776929 </i>
   </energy>
  </scstep>
  <scstep>
   <time name="diag">    0.38    0.38</time>
   <time name="diis">    1.17    1.18</time>
   <time name="orth">    0.01    0.01</time>
   <time name="total">    3.28    3.29</time>
   <energy>
    <i name="e_fr_energy">    -23.96975282 </i>
    <i name="e_wo_entrp">    -23.99385430 </i>
    <i name="e_0_energy">    -23.97778665 </i>
   </energy>
  </scstep>
  <scstep>
   <time name="diag">    0.37    0.38</time>
   <time name="diis">    0.98    0.99</time>
   <time name="orth">    0.01    0.01</time>
   <time name="total">    3.13    3.14</time>
   <energy>
    <i name="e_fr_energy">    -23.96976083 </i>
    <i name="e_wo_entrp">    -23.99384747 </i>
    <i name="e_0_energy">    -23.97778971 </i>
   </energy>
  </scstep>
  <scstep>
   <time name="diag">    0.38    0.38</time>
   <time name="diis">    1.02    1.02</time>
   <time name="orth">    0.01    0.01</time>
   <time name="total">    3.14    3.15</time>
   <energy>
    <i name="e_fr_energy">    -23.96976285 </i>
    <i name="e_wo_entrp">    -23.99384190 </i>
    <i name="e_0_energy">    -23.97778920 </i>
   </energy>
  </scstep>
  <scstep>
   <time name="diag">    0.37    0.37</time>
   <time name="diis">    1.05    1.05</time>
   <time name="orth">    0.01    0.01</time>
   <time name="total">    3.19    3.19</time>
   <energy>
    <i name="e_fr_energy">    -23.96976448 </i>
    <i name="e_wo_entrp">    -23.99384819 </i>
    <i name="e_0_energy">    -23.97779238 </i>
   </energy>
  </scstep>
  <scstep>
   <time name="diag">    0.36    0.36</time>
   <time name="diis">    0.88    0.88</time>
   <time name="orth">    0.01    0.01</time>
   <time name="total">    2.76    2.77</time>
   <energy>
    <i name="alphaZ">      0.25285334 </i>
    <i name="ewald">    126.94973888 </i>
    <i name="hartreedc">   -282.74687569 </i>
    <i name="XCdc">     24.74318995 </i>
    <i name="pawpsdc">    486.33228925 </i>
    <i name="pawaedc">   -487.12296356 </i>
    <i name="eentropy">      0.02408316 </i>
    <i name="bandstr">    -89.44383461 </i>
    <i name="atom">    197.04175453 </i>
    <i name="e_fr_energy">    -23.96976475 </i>
    <i name="e_wo_entrp">    -23.99384792 </i>
    <i name="e_0_energy">    -23.97779247 </i>
   </energy>
  </scstep>
  <structure>
   <crystal>
    <varray name="basis" >
     <v>       9.70252642       0.00000000       0.00000000 </v>
     <v>       0.27378818      10.03766441       0.00000000 </v>
     <v>       0.03426448       0.28252640       9.83737002 </v>
    </varray>
    <i name="volume">    958.06839286 </i>
    <varray name="rec_basis" >
     <v>       0.10306594      -0.00281124      -0.00027825 </v>
     <v>       0.00000000       0.09962477      -0.00286119 </v>
     <v>       0.00000000       0.00000000       0.10165319 </v>
    </varray>
   </crystal>
   <varray name="positions" >
    <v>       0.53738979       0.40813073       0.36305367 </v>
    <v>       0.39012421       0.47959780       0.43781469 </v>
    <v>       0.55269481       0.56775145       0.44142254 </v>
    <v>       0.52720504       0.41711875       0.54266357 </v>
    <v>       0.50376949       0.46694023       0.44474706 </v>
   </varray>
  </structure>
  <varray name="forces" >
   <v>       0.75988644      -0.86761264      -0.34700805 </v>
   <v>       0.98885634       0.03474952       0.27066311 </v>
   <v>       0.11997179      -0.36946969       0.68344210 </v>
   <v>      -0.34675468      -0.14371345      -0.57139723 </v>
   <v>      -1.24386189       1.72197481       1.78399601 </v>
  </varray>
  <varray name="stress" >
   <v>      -1.56472430      -1.97713210      -0.93214736 </v>
   <v>      -1.97713209      -1.65763692       1.42405709 </v>
   <v>      -0.93214735       1.42405709      -0.61769274 </v>
  </varray>
  <energy>
   <i name="e_fr_energy">    -23.96976475 </i>
   <i name="e_wo_entrp">    -23.97779247 </i>
   <i name="e_0_energy">      0.02408316 </i>
   <i name="kinetic">      0.03087251 </i>
   <i name="lattice kinetic">      0.00000000 </i>
   <i name="nosepot">      0.00019201 </i>
   <i name="nosekinetic">      0.00005066 </i>
   <i name="total">    -23.93864957 </i>
  </energy>
  <dos>
   <i name="efermi">     -8.99830001 </i>
   <total>
    <array>
     <dimension dim="1">gridpoints</dimension>
     <dimension dim="2">spin</dimension>
     <field>energy</field>
     <field>total</field>
     <field>integrated</field>
     <set>
      <set comment="spin 1">
       <r>   -18.8804     0.0000     0.0000 </r>
       <r>   -18.8083     0.0000     0.0000 </r>
       <r>   -18.7363     0.0000     0.0000 </r>
       <r>   -18.6643     0.0000     0.0000 </r>
       <r>   -18.5922     0.0000     0.0000 </r>
       <r>   -18.5202    -0.0000    -0.0000 </r>
       <r>   -18.4482    -0.0000    -0.0000 </r>
       <r>   -18.3762    -0.0000    -0.0000 </r>
       <r>   -18.3041    -0.0000    -0.0000 </r>
       <r>   -18.2321    -0.0000    -0.0000 </r>
       <r>   -18.1601    -0.0000    -0.0000 </r>
       <r>   -18.0881    -0.0000    -0.0000 </r>
       <r>   -18.0160    -0.0000    -0.0000 </r>
       <r>   -17.9440    -0.0000    -0.0000 </r>
       <r>   -17.8720    -0.0000    -0.0000 </r>
       <r>   -17.7999    -0.0000    -0.0000 </r>
       <r>   -17.7279    -0.0000    -0.0000 </r>
       <r>   -17.6559    -0.0000    -0.0000 </r>
       <r>   -17.5839    -0.0001    -0.0000 </r>
       <r>   -17.5118    -0.0009    -0.0001 </r>
       <r>   -17.4398    -0.0067    -0.0006 </r>
       <r>   -17.3678    -0.0347    -0.0031 </r>
       <r>   -17.2958    -0.1293    -0.0124 </r>
       <r>   -17.2237    -0.3230    -0.0356 </r>
       <r>   -17.1517    -0.4279    -0.0665 </r>
       <r>   -17.0797     0.2346    -0.0496 </r>
       <r>   -17.0077     2.4725     0.1285 </r>
       <r>   -16.9356     5.8712     0.5514 </r>
       <r>   -16.8636     8.1882     1.1412 </r>
       <r>   -16.7916     7.4178     1.6755 </r>
       <r>   -16.7195     4.2576     1.9821 </r>
       <r>   -16.6475     1.2155     2.0697 </r>
       <r>   -16.5755    -0.2301     2.0531 </r>
       <r>   -16.5035    -0.4207     2.0228 </r>
       <r>   -16.4314    -0.2235     2.0067 </r>
       <r>   -16.3594    -0.0733     2.0014 </r>
       <r>   -16.2874    -0.0167     2.0002 </r>
       <r>   -16.2154    -0.0028     2.0000 </r>
       <r>   -16.1433    -0.0003     2.0000 </r>
       <r>   -16.0713    -0.0000     2.0000 </r>
       <r>   -15.9993    -0.0000     2.0000 </r>
       <r>   -15.9272    -0.0000     2.0000 </r>
       <r>   -15.8552    -0.0000     2.0000 </r>
       <r>   -15.7832    -0.0000     2.0000 </r>
       <r>   -15.7112    -0.0000     2.0000 </r>
       <r>   -15.6391    -0.0000     2.0000 </r>
       <r>   -15.5671     0.0000     2.0000 </r>
       <r>   -15.4951     0.0000     2.0000 </r>
       <r>   -15.4231     0.0000     2.0000 </r>
       <r>   -15.3510     0.0000     2.0000 </r>
       <r>   -15.2790     0.0000     2.0000 </r>
       <r>   -15.2070     0.0000     2.0000 </r>
       <r>   -15.1349     0.0000     2.0000 </r>
       <r>   -15.0629     0.0000     2.0000 </r>
       <r>   -14.9909     0.0000     2.0000 </r>
       <r>   -14.9189     0.0000     2.0000 </r>
       <r>   -14.8468     0.0000     2.0000 </r>
       <r>   -14.7748     0.0000     2.0000 </r>
       <r>   -14.7028     0.0000     2.0000 </r>
       <r>   -14.6308     0.0000     2.0000 </r>
       <r>   -14.5587     0.0000     2.0000 </r>
       <r>   -14.4867     0.0000     2.0000 </r>
       <r>   -14.4147     0.0000     2.0000 </r>
       <r>   -14.3426     0.0000     2.0000 </r>
       <r>   -14.2706     0.0000     2.0000 </r>
       <r>   -14.1986     0.0000     2.0000 </r>
       <r>   -14.1266     0.0000     2.0000 </r>
       <r>   -14.0545     0.0000     2.0000 </r>
       <r>   -13.9825     0.0000     2.0000 </r>
       <r>   -13.9105     0.0000     2.0000 </r>
       <r>   -13.8385     0.0000     2.0000 </r>
       <r>   -13.7664     0.0000     2.0000 </r>
       <r>   -13.6944     0.0000     2.0000 </r>
       <r>   -13.6224     0.0000     2.0000 </r>
       <r>   -13.5503     0.0000     2.0000 </r>
       <r>   -13.4783     0.0000     2.0000 </r>
       <r>   -13.4063     0.0000     2.0000 </r>
       <r>   -13.3343     0.0000     2.0000 </r>
       <r>   -13.2622     0.0000     2.0000 </r>
       <r>   -13.1902     0.0000     2.0000 </r>
       <r>   -13.1182     0.0000     2.0000 </r>
       <r>   -13.0462     0.0000     2.0000 </r>
       <r>   -12.9741     0.0000     2.0000 </r>
       <r>   -12.9021     0.0000     2.0000 </r>
       <r>   -12.8301     0.0000     2.0000 </r>
       <r>   -12.7580     0.0000     2.0000 </r>
       <r>   -12.6860     0.0000     2.0000 </r>
       <r>   -12.6140     0.0000     2.0000 </r>
       <r>   -12.5420     0.0000     2.0000 </r>
       <r>   -12.4699     0.0000     2.0000 </r>
       <r>   -12.3979     0.0000     2.0000 </r>
       <r>   -12.3259     0.0000     2.0000 </r>
       <r>   -12.2539     0.0000     2.0000 </r>
       <r>   -12.1818     0.0000     2.0000 </r>
       <r>   -12.1098     0.0000     2.0000 </r>
       <r>   -12.0378     0.0000     2.0000 </r>
       <r>   -11.9657     0.0000     2.0000 </r>
       <r>   -11.8937     0.0000     2.0000 </r>
       <r>   -11.8217     0.0000     2.0000 </r>
       <r>   -11.7497     0.0000     2.0000 </r>
       <r>   -11.6776     0.0000     2.0000 </r>
       <r>   -11.6056     0.0000     2.0000 </r>
       <r>   -11.5336     0.0000     2.0000 </r>
       <r>   -11.4616     0.0000     2.0000 </r>
       <r>   -11.3895     0.0000     2.0000 </r>
       <r>   -11.3175     0.0000     2.0000 </r>
       <r>   -11.2455     0.0000     2.0000 </r>
       <r>   -11.1734    -0.0000     2.0000 </r>
       <r>   -11.1014    -0.0000     2.0000 </r>
       <r>   -11.0294    -0.0000     2.0000 </r>
       <r>   -10.9574    -0.0000     2.0000 </r>
       <r>   -10.8853    -0.0000     2.0000 </r>
       <r>   -10.8133    -0.0000     2.0000 </r>
       <r>   -10.7413    -0.0000     2.0000 </r>
       <r>   -10.6693    -0.0000     2.0000 </r>
       <r>   -10.5972    -0.0000     2.0000 </r>
       <r>   -10.5252    -0.0000     2.0000 </r>
       <r>   -10.4532    -0.0000     2.0000 </r>
       <r>   -10.3811    -0.0000     2.0000 </r>
       <r>   -10.3091    -0.0000     2.0000 </r>
       <r>   -10.2371    -0.0000     2.0000 </r>
       <r>   -10.1651    -0.0004     2.0000 </r>
       <r>   -10.0930    -0.0034     1.9997 </r>
       <r>   -10.0210    -0.0196     1.9983 </r>
       <r>    -9.9490    -0.0831     1.9923 </r>
       <r>    -9.8770    -0.2438     1.9748 </r>
       <r>    -9.8049    -0.4326     1.9436 </r>
       <r>    -9.7329    -0.1703     1.9313 </r>
       <r>    -9.6609     1.3884     2.0313 </r>
       <r>    -9.5888     4.3666     2.3458 </r>
       <r>    -9.5168     7.0257     2.8519 </r>
       <r>    -9.4448     7.2196     3.3719 </r>
       <r>    -9.3728     5.8044     3.7900 </r>
       <r>    -9.3007     6.6102     4.2661 </r>
       <r>    -9.2287    11.2362     5.0754 </r>
       <r>    -9.1567    15.6988     6.2061 </r>
       <r>    -9.0847    14.8882     7.2785 </r>
       <r>    -9.0126     9.0303     7.9289 </r>
       <r>    -8.9406     2.8555     8.1346 </r>
       <r>    -8.8686    -0.3154     8.1119 </r>
       <r>    -8.7966    -0.8553     8.0503 </r>
       <r>    -8.7245    -0.4849     8.0154 </r>
       <r>    -8.6525    -0.1661     8.0034 </r>
       <r>    -8.5805    -0.0394     8.0006 </r>
       <r>    -8.5084    -0.0068     8.0001 </r>
       <r>    -8.4364    -0.0009     8.0000 </r>
       <r>    -8.3644    -0.0001     8.0000 </r>
       <r>    -8.2924    -0.0000     8.0000 </r>
       <r>    -8.2203    -0.0000     8.0000 </r>
       <r>    -8.1483    -0.0000     8.0000 </r>
       <r>    -8.0763    -0.0000     8.0000 </r>
       <r>    -8.0043    -0.0000     8.0000 </r>
       <r>    -7.9322    -0.0000     8.0000 </r>
       <r>    -7.8602     0.0000     8.0000 </r>
       <r>    -7.7882     0.0000     8.0000 </r>
       <r>    -7.7161     0.0000     8.0000 </r>
       <r>    -7.6441     0.0000     8.0000 </r>
       <r>    -7.5721     0.0000     8.0000 </r>
       <r>    -7.5001     0.0000     8.0000 </r>
       <r>    -7.4280     0.0000     8.0000 </r>
       <r>    -7.3560     0.0000     8.0000 </r>
       <r>    -7.2840     0.0000     8.0000 </r>
       <r>    -7.2120     0.0000     8.0000 </r>
       <r>    -7.1399     0.0000     8.0000 </r>
       <r>    -7.0679     0.0000     8.0000 </r>
       <r>    -6.9959     0.0000     8.0000 </r>
       <r>    -6.9238     0.0000     8.0000 </r>
       <r>    -6.8518     0.0000     8.0000 </r>
       <r>    -6.7798     0.0000     8.0000 </r>
       <r>    -6.7078     0.0000     8.0000 </r>
       <r>    -6.6357     0.0000     8.0000 </r>
       <r>    -6.5637     0.0000     8.0000 </r>
       <r>    -6.4917     0.0000     8.0000 </r>
       <r>    -6.4197     0.0000     8.0000 </r>
       <r>    -6.3476     0.0000     8.0000 </r>
       <r>    -6.2756     0.0000     8.0000 </r>
       <r>    -6.2036     0.0000     8.0000 </r>
       <r>    -6.1315     0.0000     8.0000 </r>
       <r>    -6.0595     0.0000     8.0000 </r>
       <r>    -5.9875     0.0000     8.0000 </r>
       <r>    -5.9155     0.0000     8.0000 </r>
       <r>    -5.8434     0.0000     8.0000 </r>
       <r>    -5.7714     0.0000     8.0000 </r>
       <r>    -5.6994     0.0000     8.0000 </r>
       <r>    -5.6274     0.0000     8.0000 </r>
       <r>    -5.5553     0.0000     8.0000 </r>
       <r>    -5.4833     0.0000     8.0000 </r>
       <r>    -5.4113     0.0000     8.0000 </r>
       <r>    -5.3392     0.0000     8.0000 </r>
       <r>    -5.2672     0.0000     8.0000 </r>
       <r>    -5.1952     0.0000     8.0000 </r>
       <r>    -5.1232     0.0000     8.0000 </r>
       <r>    -5.0511     0.0000     8.0000 </r>
       <r>    -4.9791     0.0000     8.0000 </r>
       <r>    -4.9071     0.0000     8.0000 </r>
       <r>    -4.8351     0.0000     8.0000 </r>
       <r>    -4.7630     0.0000     8.0000 </r>
       <r>    -4.6910     0.0000     8.0000 </r>
       <r>    -4.6190     0.0000     8.0000 </r>
       <r>    -4.5469     0.0000     8.0000 </r>
       <r>    -4.4749     0.0000     8.0000 </r>
       <r>    -4.4029     0.0000     8.0000 </r>
       <r>    -4.3309     0.0000     8.0000 </r>
       <r>    -4.2588     0.0000     8.0000 </r>
       <r>    -4.1868     0.0000     8.0000 </r>
       <r>    -4.1148     0.0000     8.0000 </r>
       <r>    -4.0428     0.0000     8.0000 </r>
       <r>    -3.9707     0.0000     8.0000 </r>
       <r>    -3.8987     0.0000     8.0000 </r>
       <r>    -3.8267     0.0000     8.0000 </r>
       <r>    -3.7546     0.0000     8.0000 </r>
       <r>    -3.6826     0.0000     8.0000 </r>
       <r>    -3.6106     0.0000     8.0000 </r>
       <r>    -3.5386     0.0000     8.0000 </r>
       <r>    -3.4665     0.0000     8.0000 </r>
       <r>    -3.3945     0.0000     8.0000 </r>
       <r>    -3.3225     0.0000     8.0000 </r>
       <r>    -3.2505     0.0000     8.0000 </r>
       <r>    -3.1784     0.0000     8.0000 </r>
       <r>    -3.1064     0.0000     8.0000 </r>
       <r>    -3.0344     0.0000     8.0000 </r>
       <r>    -2.9623     0.0000     8.0000 </r>
       <r>    -2.8903     0.0000     8.0000 </r>
       <r>    -2.8183     0.0000     8.0000 </r>
       <r>    -2.7463     0.0000     8.0000 </r>
       <r>    -2.6742     0.0000     8.0000 </r>
       <r>    -2.6022     0.0000     8.0000 </r>
       <r>    -2.5302     0.0000     8.0000 </r>
       <r>    -2.4582     0.0000     8.0000 </r>
       <r>    -2.3861     0.0000     8.0000 </r>
       <r>    -2.3141     0.0000     8.0000 </r>
       <r>    -2.2421     0.0000     8.0000 </r>
       <r>    -2.1700     0.0000     8.0000 </r>
       <r>    -2.0980     0.0000     8.0000 </r>
       <r>    -2.0260     0.0000     8.0000 </r>
       <r>    -1.9540    -0.0000     8.0000 </r>
       <r>    -1.8819    -0.0000     8.0000 </r>
       <r>    -1.8099    -0.0000     8.0000 </r>
       <r>    -1.7379    -0.0000     8.0000 </r>
       <r>    -1.6659    -0.0000     8.0000 </r>
       <r>    -1.5938    -0.0000     8.0000 </r>
       <r>    -1.5218    -0.0000     8.0000 </r>
       <r>    -1.4498    -0.0000     8.0000 </r>
       <r>    -1.3777    -0.0000     8.0000 </r>
       <r>    -1.3057    -0.0000     8.0000 </r>
       <r>    -1.2337    -0.0000     8.0000 </r>
       <r>    -1.1617    -0.0000     8.0000 </r>
       <r>    -1.0896    -0.0000     8.0000 </r>
       <r>    -1.0176    -0.0001     8.0000 </r>
       <r>    -0.9456    -0.0009     7.9999 </r>
       <r>    -0.8736    -0.0062     7.9995 </r>
       <r>    -0.8015    -0.0328     7.9971 </r>
       <r>    -0.7295    -0.1239     7.9882 </r>
       <r>    -0.6575    -0.3146     7.9655 </r>
       <r>    -0.5855    -0.4311     7.9345 </r>
       <r>    -0.5134     0.1857     7.9479 </r>
       <r>    -0.4414     2.3576     8.1177 </r>
       <r>    -0.3694     5.7409     8.5312 </r>
       <r>    -0.2973     8.1452     9.1178 </r>
       <r>    -0.2253     7.5017     9.6582 </r>
       <r>    -0.1533     4.3934     9.9746 </r>
       <r>    -0.0813     1.3083    10.0688 </r>
       <r>    -0.0092    -0.2045    10.0541 </r>
       <r>     0.0628    -0.4428    10.0222 </r>
       <r>     0.1348    -0.3149     9.9995 </r>
       <r>     0.2068    -0.3570     9.9738 </r>
       <r>     0.2789    -0.6608     9.9262 </r>
       <r>     0.3509    -0.8232     9.8669 </r>
       <r>     0.4229     0.3417     9.8916 </r>
       <r>     0.4950     4.4091    10.2091 </r>
       <r>     0.5670    11.5760    11.0429 </r>
       <r>     0.6390    18.9579    12.4084 </r>
       <r>     0.7110    21.8054    13.9790 </r>
       <r>     0.7831    17.7990    15.2610 </r>
       <r>     0.8551     9.7443    15.9628 </r>
       <r>     0.9271     2.7748    16.1627 </r>
       <r>     0.9991    -0.4979    16.1268 </r>
       <r>     1.0712    -0.9755    16.0566 </r>
       <r>     1.1432    -0.5431    16.0175 </r>
       <r>     1.2152    -0.1878    16.0039 </r>
       <r>     1.2873    -0.0455    16.0007 </r>
       <r>     1.3593    -0.0080    16.0001 </r>
       <r>     1.4313    -0.0011    16.0000 </r>
       <r>     1.5033    -0.0001    16.0000 </r>
       <r>     1.5754    -0.0000    16.0000 </r>
       <r>     1.6474    -0.0000    16.0000 </r>
       <r>     1.7194    -0.0000    16.0000 </r>
       <r>     1.7914    -0.0000    16.0000 </r>
       <r>     1.8635    -0.0000    16.0000 </r>
       <r>     1.9355    -0.0000    16.0000 </r>
       <r>     2.0075    -0.0000    16.0000 </r>
       <r>     2.0796     0.0000    16.0000 </r>
       <r>     2.1516     0.0000    16.0000 </r>
       <r>     2.2236     0.0000    16.0000 </r>
       <r>     2.2956     0.0000    16.0000 </r>
       <r>     2.3677     0.0000    16.0000 </r>
       <r>     2.4397     0.0000    16.0000 </r>
       <r>     2.5117     0.0000    16.0000 </r>
       <r>     2.5837     0.0000    16.0000 </r>
       <r>     2.6558     0.0000    16.0000 </r>
       <r>     2.7278     0.0000    16.0000 </r>
      </set>
     </set>
    </array>
   </total>
  </dos>
  <time name="totalsc">   58.67   58.82</time>
 </calculation>
 <calculation>
  <scstep>
   <time name="dav">    1.67    1.68</time>
   <time name="total">    3.44    3.44</time>
   <energy>
    <i name="alphaZ">      0.25285334 </i>
    <i name="ewald">    125.18741095 </i>
    <i name="hartreedc">   -281.56095923 </i>
    <i name="XCdc">     24.68237821 </i>
    <i name="pawpsdc">    483.71639390 </i>
    <i name="pawaedc">   -484.50530481 </i>
    <i name="eentropy">      0.02549955 </i>
    <i name="bandstr">    -88.81727018 </i>
    <i name="atom">    197.04175453 </i>
    <i name="e_fr_energy">    -23.97724374 </i>
    <i name="e_wo_entrp">    -24.00274329 </i>
    <i name="e_0_energy">    -23.98574359 </i>
   </energy>
  </scstep>
  <scstep>
   <time name="diag">    0.39    0.39</time>
   <time name="diis">    1.19    1.19</time>
   <time name="orth">    0.01    0.01</time>
   <time name="total">    3.27    3.28</time>
   <energy>
    <i name="e_fr_energy">    -23.97750372 </i>
    <i name="e_wo_entrp">    -24.00215048 </i>
    <i name="e_0_energy">    -23.98571931 </i>
   </energy>
  </scstep>
  <scstep>
   <time name="diag">    0.37    0.38</time>
   <time name="diis">    1.23    1.23</time>
   <time name="orth">    0.01    0.01</time>
   <time name="total">    3.26    3.27</time>
   <energy>
    <i name="e_fr_energy">    -23.97737993 </i>
    <i name="e_wo_entrp">    -24.00197479 </i>
    <i name="e_0_energy">    -23.98557821 </i>
   </energy>
  </scstep>
  <scstep>
   <time name="diag">    0.39    0.39</time>
   <time name="diis">    1.24    1.24</time>
   <time name="orth">    0.01    0.01</time>
   <time name="total">    3.32    3.33</time>
   <energy>
    <i name="e_fr_energy">    -23.97709962 </i>
    <i name="e_wo_entrp">    -24.00163344 </i>
    <i name="e_0_energy">    -23.98527756 </i>
   </energy>
  </scstep>
  <scstep>
   <time name="diag">    0.39    0.39</time>
   <time name="diis">    1.26    1.27</time>
   <time name="orth">    0.01    0.01</time>
   <time name="total">    3.39    3.40</time>
   <energy>
    <i name="e_fr_energy">    -23.97703657 </i>
    <i name="e_wo_entrp">    -24.00144040 </i>
    <i name="e_0_energy">    -23.98517118 </i>
   </energy>
  </scstep>
  <scstep>
   <time name="diag">    0.39    0.39</time>
   <time name="diis">    1.25    1.26</time>
   <time name="orth">    0.01    0.01</time>
   <time name="total">    3.33    3.34</time>
   <energy>
    <i name="e_fr_energy">    -23.97707423 </i>
    <i name="e_wo_entrp">    -24.00135895 </i>
    <i name="e_0_energy">    -23.98516914 </i>
   </energy>
  </scstep>
  <scstep>
   <time name="diag">    0.38    0.38</time>
   <time name="diis">    1.25    1.25</time>
   <time name="orth">    0.01    0.01</time>
   <time name="total">    3.34    3.35</time>
   <energy>
    <i name="e_fr_energy">    -23.97708232 </i>
    <i name="e_wo_entrp">    -24.00139521 </i>
    <i name="e_0_energy">    -23.98518662 </i>
   </energy>
  </scstep>
  <scstep>
   <time name="diag">    0.36    0.36</time>
   <time name="diis">    1.25    1.25</time>
   <time name="orth">    0.01    0.01</time>
   <time name="total">    3.37    3.38</time>
   <energy>
    <i name="e_fr_energy">    -23.97710180 </i>
    <i name="e_wo_entrp">    -24.00141074 </i>
    <i name="e_0_energy">    -23.98520478 </i>
   </energy>
  </scstep>
  <scstep>
   <time name="diag">    0.35    0.35</time>
   <time name="diis">    1.01    1.01</time>
   <time name="orth">    0.01    0.01</time>
   <time name="total">    3.16    3.17</time>
   <energy>
    <i name="e_fr_energy">    -23.97711175 </i>
    <i name="e_wo_entrp">    -24.00140818 </i>
    <i name="e_0_energy">    -23.98521056 </i>
   </energy>
  </scstep>
  <scstep>
   <time name="diag">    0.35    0.35</time>
   <time name="diis">    1.13    1.14</time>
   <time name="orth">    0.01    0.01</time>
   <time name="total">    3.33    3.34</time>
   <energy>
    <i name="e_fr_energy">    -23.97711968 </i>
    <i name="e_wo_entrp">    -24.00141943 </i>
    <i name="e_0_energy">    -23.98521959 </i>
   </energy>
  </scstep>
  <scstep>
   <time name="diag">    0.37    0.37</time>
   <time name="diis">    1.01    1.01</time>
   <time name="orth">    0.01    0.01</time>
   <time name="total">    3.21    3.22</time>
   <energy>
    <i name="e_fr_energy">    -23.97712080 </i>
    <i name="e_wo_entrp">    -24.00142021 </i>
    <i name="e_0_energy">    -23.98522061 </i>
   </energy>
  </scstep>
  <scstep>
   <time name="diag">    0.36    0.36</time>
   <time name="diis">    1.04    1.04</time>
   <time name="orth">    0.01    0.01</time>
   <time name="total">    3.27    3.28</time>
   <energy>
    <i name="e_fr_energy">    -23.97712222 </i>
    <i name="e_wo_entrp">    -24.00142179 </i>
    <i name="e_0_energy">    -23.98522207 </i>
   </energy>
  </scstep>
  <scstep>
   <time name="diag">    0.36    0.36</time>
   <time name="diis">    1.00    1.00</time>
   <time name="orth">    0.01    0.01</time>
   <time name="total">    2.91    2.91</time>
   <energy>
    <i name="alphaZ">      0.25285334 </i>
    <i name="ewald">    125.18741095 </i>
    <i name="hartreedc">   -281.19669356 </i>
    <i name="XCdc">     24.66095713 </i>
    <i name="pawpsdc">    477.15331704 </i>
    <i name="pawaedc">   -477.93821296 </i>
    <i name="eentropy">      0.02429732 </i>
    <i name="bandstr">    -89.16280639 </i>
    <i name="atom">    197.04175453 </i>
    <i name="e_fr_energy">    -23.97712260 </i>
    <i name="e_wo_entrp">    -24.00141992 </i>
    <i name="e_0_energy">    -23.98522170 </i>
   </energy>
  </scstep>
  <structure>
   <crystal>
    <varray name="basis" >
     <v>       9.70252642       0.00000000       0.00000000 </v>
     <v>       0.27378818      10.03766441       0.00000000 </v>
     <v>       0.03426448       0.28252640       9.83737002 </v>
    </varray>
    <i name="volume">    958.06839286 </i>
    <varray name="rec_basis" >
     <v>       0.10306594      -0.00281124      -0.00027825 </v>
     <v>       0.00000000       0.09962477      -0.00286119 </v>
     <v>       0.00000000       0.00000000       0.10165319 </v>
    </varray>
   </crystal>
   <varray name="positions" >
    <v>       0.53986526       0.40627905       0.36384241 </v>
    <v>       0.38944290       0.47917076       0.43767830 </v>
    <v>       0.55333045       0.56872924       0.44263251 </v>
    <v>       0.52474710       0.41756566       0.54346189 </v>
    <v>       0.50377183       0.46701134       0.44452555 </v>
   </varray>
  </structure>
  <varray name="forces" >
   <v>       0.48085617      -0.49679850      -0.45985856 </v>
   <v>       0.96912233      -0.21027530       0.12439622 </v>
   <v>      -0.49483959      -1.74869553      -0.22838822 </v>
   <v>      -0.13074668      -0.25520634      -0.87939208 </v>
   <v>      -1.29087705       1.86593434       1.46000057 </v>
  </varray>
  <varray name="stress" >
   <v>      -2.05744569      -2.26070912      -0.44400743 </v>
   <v>      -2.26070912      -3.52002393       0.20940979 </v>
   <v>      -0.44400743       0.20940980      -0.06783504 </v>
  </varray>
  <energy>
   <i name="e_fr_energy">    -23.97712260 </i>
   <i name="e_wo_entrp">    -23.98522170 </i>
   <i name="e_0_energy">      0.02429732 </i>
   <i name="kinetic">      0.04683295 </i>
   <i name="lattice kinetic">      0.00000000 </i>
   <i name="nosepot">      0.00050782 </i>
   <i name="nosekinetic">      0.00026088 </i>
   <i name="total">    -23.92952094 </i>
  </energy>
  <dos>
   <i name="efermi">     -8.96014675 </i>
   <total>
    <array>
     <dimension dim="1">gridpoints</dimension>
     <dimension dim="2">spin</dimension>
     <field>energy</field>
     <field>total</field>
     <field>integrated</field>
     <set>
      <set comment="spin 1">
       <r>   -18.8269     0.0000     0.0000 </r>
       <r>   -18.7551     0.0000     0.0000 </r>
       <r>   -18.6833     0.0000     0.0000 </r>
       <r>   -18.6114     0.0000     0.0000 </r>
       <r>   -18.5396     0.0000     0.0000 </r>
       <r>   -18.4677    -0.0000    -0.0000 </r>
       <r>   -18.3959    -0.0000    -0.0000 </r>
       <r>   -18.3240    -0.0000    -0.0000 </r>
       <r>   -18.2522    -0.0000    -0.0000 </r>
       <r>   -18.1804    -0.0000    -0.0000 </r>
       <r>   -18.1085    -0.0000    -0.0000 </r>
       <r>   -18.0367    -0.0000    -0.0000 </r>
       <r>   -17.9648    -0.0000    -0.0000 </r>
       <r>   -17.8930    -0.0000    -0.0000 </r>
       <r>   -17.8211    -0.0000    -0.0000 </r>
       <r>   -17.7493    -0.0000    -0.0000 </r>
       <r>   -17.6775    -0.0000    -0.0000 </r>
       <r>   -17.6056    -0.0000    -0.0000 </r>
       <r>   -17.5338    -0.0001    -0.0000 </r>
       <r>   -17.4619    -0.0008    -0.0001 </r>
       <r>   -17.3901    -0.0061    -0.0005 </r>
       <r>   -17.3182    -0.0320    -0.0028 </r>
       <r>   -17.2464    -0.1214    -0.0115 </r>
       <r>   -17.1746    -0.3105    -0.0338 </r>
       <r>   -17.1027    -0.4342    -0.0650 </r>
       <r>   -17.0309     0.1520    -0.0541 </r>
       <r>   -16.9590     2.2754     0.1094 </r>
       <r>   -16.8872     5.6436     0.5148 </r>
       <r>   -16.8153     8.1156     1.0979 </r>
       <r>   -16.7435     7.5812     1.6425 </r>
       <r>   -16.6717     4.5235     1.9675 </r>
       <r>   -16.5998     1.4011     2.0682 </r>
       <r>   -16.5280    -0.1724     2.0558 </r>
       <r>   -16.4561    -0.4298     2.0249 </r>
       <r>   -16.3843    -0.2411     2.0076 </r>
       <r>   -16.3124    -0.0821     2.0017 </r>
       <r>   -16.2406    -0.0194     2.0003 </r>
       <r>   -16.1688    -0.0033     2.0000 </r>
       <r>   -16.0969    -0.0004     2.0000 </r>
       <r>   -16.0251    -0.0000     2.0000 </r>
       <r>   -15.9532    -0.0000     2.0000 </r>
       <r>   -15.8814    -0.0000     2.0000 </r>
       <r>   -15.8095    -0.0000     2.0000 </r>
       <r>   -15.7377    -0.0000     2.0000 </r>
       <r>   -15.6659    -0.0000     2.0000 </r>
       <r>   -15.5940    -0.0000     2.0000 </r>
       <r>   -15.5222     0.0000     2.0000 </r>
       <r>   -15.4503     0.0000     2.0000 </r>
       <r>   -15.3785     0.0000     2.0000 </r>
       <r>   -15.3066     0.0000     2.0000 </r>
       <r>   -15.2348     0.0000     2.0000 </r>
       <r>   -15.1630     0.0000     2.0000 </r>
       <r>   -15.0911     0.0000     2.0000 </r>
       <r>   -15.0193     0.0000     2.0000 </r>
       <r>   -14.9474     0.0000     2.0000 </r>
       <r>   -14.8756     0.0000     2.0000 </r>
       <r>   -14.8037     0.0000     2.0000 </r>
       <r>   -14.7319     0.0000     2.0000 </r>
       <r>   -14.6601     0.0000     2.0000 </r>
       <r>   -14.5882     0.0000     2.0000 </r>
       <r>   -14.5164     0.0000     2.0000 </r>
       <r>   -14.4445     0.0000     2.0000 </r>
       <r>   -14.3727     0.0000     2.0000 </r>
       <r>   -14.3008     0.0000     2.0000 </r>
       <r>   -14.2290     0.0000     2.0000 </r>
       <r>   -14.1572     0.0000     2.0000 </r>
       <r>   -14.0853     0.0000     2.0000 </r>
       <r>   -14.0135     0.0000     2.0000 </r>
       <r>   -13.9416     0.0000     2.0000 </r>
       <r>   -13.8698     0.0000     2.0000 </r>
       <r>   -13.7980     0.0000     2.0000 </r>
       <r>   -13.7261     0.0000     2.0000 </r>
       <r>   -13.6543     0.0000     2.0000 </r>
       <r>   -13.5824     0.0000     2.0000 </r>
       <r>   -13.5106     0.0000     2.0000 </r>
       <r>   -13.4387     0.0000     2.0000 </r>
       <r>   -13.3669     0.0000     2.0000 </r>
       <r>   -13.2951     0.0000     2.0000 </r>
       <r>   -13.2232     0.0000     2.0000 </r>
       <r>   -13.1514     0.0000     2.0000 </r>
       <r>   -13.0795     0.0000     2.0000 </r>
       <r>   -13.0077     0.0000     2.0000 </r>
       <r>   -12.9358     0.0000     2.0000 </r>
[...]
       <r>     0.2841    -0.6500     9.9266 </r>
       <r>     0.3565    -0.7666     9.8711 </r>
       <r>     0.4289     0.4508     9.9037 </r>
       <r>     0.5013     4.4976    10.2293 </r>
       <r>     0.5736    11.5165    11.0628 </r>
       <r>     0.6460    18.7194    12.4177 </r>
       <r>     0.7184    21.5246    13.9756 </r>
       <r>     0.7908    17.6328    15.2518 </r>
       <r>     0.8632     9.7161    15.9550 </r>
       <r>     0.9355     2.8106    16.1584 </r>
       <r>     1.0079    -0.4608    16.1251 </r>
       <r>     1.0803    -0.9548    16.0560 </r>
       <r>     1.1527    -0.5346    16.0173 </r>
       <r>     1.2250    -0.1851    16.0039 </r>
       <r>     1.2974    -0.0447    16.0007 </r>
       <r>     1.3698    -0.0079    16.0001 </r>
       <r>     1.4422    -0.0010    16.0000 </r>
       <r>     1.5146    -0.0001    16.0000 </r>
       <r>     1.5869    -0.0000    16.0000 </r>
       <r>     1.6593    -0.0000    16.0000 </r>
       <r>     1.7317    -0.0000    16.0000 </r>
       <r>     1.8041    -0.0000    16.0000 </r>
       <r>     1.8764    -0.0000    16.0000 </r>
       <r>     1.9488    -0.0000    16.0000 </r>
       <r>     2.0212    -0.0000    16.0000 </r>
       <r>     2.0936     0.0000    16.0000 </r>
       <r>     2.1660     0.0000    16.0000 </r>
       <r>     2.2383     0.0000    16.0000 </r>
       <r>     2.3107     0.0000    16.0000 </r>
       <r>     2.3831     0.0000    16.0000 </r>
       <r>     2.4555     0.0000    16.0000 </r>
       <r>     2.5278     0.0000    16.0000 </r>
       <r>     2.6002     0.0000    16.0000 </r>
       <r>     2.6726     0.0000    16.0000 </r>
       <r>     2.7450     0.0000    16.0000 </r>
      </set>
     </set>
    </array>
   </total>
  </dos>
  <time name="totalsc">   61.44   61.78</time>
  <eigenvalues>
   <array>
    <dimension dim="1">band</dimension>
    <dimension dim="2">kpoint</dimension>
    <dimension dim="3">spin</dimension>
    <field>eigene</field>
    <field>occ</field>
    <set>
     <set comment="spin 1">
      <set comment="kpoint 1">
       <r>  -16.7541    1.0000 </r>
       <r>   -9.5080    1.0000 </r>
       <r>   -9.0292    1.0350 </r>
       <r>   -8.9154    0.9649 </r>
       <r>   -0.3068    0.0000 </r>
       <r>    0.6080    0.0000 </r>
       <r>    0.7120    0.0000 </r>
       <r>    0.7391    0.0000 </r>
      </set>
      <set comment="kpoint 2">
       <r>  -16.7541    1.0000 </r>
       <r>   -9.5080    1.0000 </r>
       <r>   -9.0291    1.0350 </r>
       <r>   -8.9155    0.9650 </r>
       <r>   -0.3001    0.0000 </r>
       <r>    0.5737    0.0000 </r>
       <r>    0.6965    0.0000 </r>
       <r>    0.7432    0.0000 </r>
      </set>
      <set comment="kpoint 3">
       <r>  -16.7541    1.0000 </r>
       <r>   -9.5079    1.0000 </r>
       <r>   -9.0291    1.0350 </r>
       <r>   -8.9157    0.9653 </r>
       <r>   -0.2965    0.0000 </r>
       <r>    0.5753    0.0000 </r>
       <r>    0.6786    0.0000 </r>
       <r>    0.7289    0.0000 </r>
      </set>
      <set comment="kpoint 4">
       <r>  -16.7541    1.0000 </r>
       <r>   -9.5081    1.0000 </r>
       <r>   -9.0291    1.0350 </r>
       <r>   -8.9155    0.9649 </r>
       <r>   -0.3007    0.0000 </r>
       <r>    0.5855    0.0000 </r>
       <r>    0.6827    0.0000 </r>
       <r>    0.7466    0.0000 </r>
      </set>
     </set>
    </set>
   </array>
  </eigenvalues>
  <separator name="orbital magnetization" >
   <v name="MAGDIPOLOUT">      0.00000000      0.00000000      0.00000000</v>
  </separator>
  <dos>
   <i name="efermi">     -8.77251890 </i>
   <total>
    <array>
     <dimension dim="1">gridpoints</dimension>
     <dimension dim="2">spin</dimension>
     <field>energy</field>
     <field>total</field>
     <field>integrated</field>
     <set>
      <set comment="spin 1">
       <r>   -18.7541     0.0000     0.0000 </r>
       <r>   -18.6825     0.0000     0.0000 </r>
       <r>   -18.6108     0.0000     0.0000 </r>
       <r>   -18.5391     0.0000     0.0000 </r>
       <r>   -18.4675     0.0000     0.0000 </r>
       <r>   -18.3958    -0.0000    -0.0000 </r>
       <r>   -18.3241    -0.0000    -0.0000 </r>
       <r>   -18.2525    -0.0000    -0.0000 </r>
       <r>   -18.1808    -0.0000    -0.0000 </r>
       <r>   -18.1091    -0.0000    -0.0000 </r>
       <r>   -18.0374    -0.0000    -0.0000 </r>
       <r>   -17.9658    -0.0000    -0.0000 </r>
       <r>   -17.8941    -0.0000    -0.0000 </r>
       <r>   -17.8224    -0.0000    -0.0000 </r>
       <r>   -17.7508    -0.0000    -0.0000 </r>
       <r>   -17.6791    -0.0000    -0.0000 </r>
       <r>   -17.6074    -0.0000    -0.0000 </r>
       <r>   -17.5358    -0.0000    -0.0000 </r>
       <r>   -17.4641    -0.0001    -0.0000 </r>
       <r>   -17.3924    -0.0008    -0.0001 </r>
       <r>   -17.3208    -0.0056    -0.0005 </r>
       <r>   -17.2491    -0.0297    -0.0026 </r>
       <r>   -17.1774    -0.1143    -0.0108 </r>
       <r>   -17.1057    -0.2986    -0.0322 </r>
       <r>   -17.0341    -0.4378    -0.0636 </r>
       <r>   -16.9624     0.0799    -0.0578 </r>
       <r>   -16.8907     2.0948     0.0923 </r>
       <r>   -16.8191     5.4249     0.4811 </r>
       <r>   -16.7474     8.0321     1.0568 </r>
       <r>   -16.6757     7.7222     1.6102 </r>
       <r>   -16.6041     4.7746     1.9524 </r>
       <r>   -16.5324     1.5860     2.0661 </r>
       <r>   -16.4607    -0.1099     2.0582 </r>
       <r>   -16.3891    -0.4359     2.0270 </r>
       <r>   -16.3174    -0.2582     2.0085 </r>
       <r>   -16.2457    -0.0912     2.0019 </r>
       <r>   -16.1740    -0.0222     2.0003 </r>
       <r>   -16.1024    -0.0039     2.0000 </r>
       <r>   -16.0307    -0.0005     2.0000 </r>
       <r>   -15.9590    -0.0001     2.0000 </r>
       <r>   -15.8874    -0.0000     2.0000 </r>
       <r>   -15.8157    -0.0000     2.0000 </r>
       <r>   -15.7440    -0.0000     2.0000 </r>
       <r>   -15.6724    -0.0000     2.0000 </r>
       <r>   -15.6007    -0.0000     2.0000 </r>
       <r>   -15.5290    -0.0000     2.0000 </r>
       <r>   -15.4574     0.0000     2.0000 </r>
       <r>   -15.3857     0.0000     2.0000 </r>
       <r>   -15.3140     0.0000     2.0000 </r>
       <r>   -15.2423     0.0000     2.0000 </r>
       <r>   -15.1707     0.0000     2.0000 </r>
       <r>   -15.0990     0.0000     2.0000 </r>
       <r>   -15.0273     0.0000     2.0000 </r>
       <r>   -14.9557     0.0000     2.0000 </r>
       <r>   -14.8840     0.0000     2.0000 </r>
       <r>   -14.8123     0.0000     2.0000 </r>
       <r>   -14.7407     0.0000     2.0000 </r>
       <r>   -14.6690     0.0000     2.0000 </r>
       <r>   -14.5973     0.0000     2.0000 </r>
       <r>   -14.5257     0.0000     2.0000 </r>
       <r>   -14.4540     0.0000     2.0000 </r>
       <r>   -14.3823     0.0000     2.0000 </r>
       <r>   -14.3106     0.0000     2.0000 </r>
       <r>   -14.2390     0.0000     2.0000 </r>
       <r>   -14.1673     0.0000     2.0000 </r>
       <r>   -14.0956     0.0000     2.0000 </r>
       <r>   -14.0240     0.0000     2.0000 </r>
       <r>   -13.9523     0.0000     2.0000 </r>
       <r>   -13.8806     0.0000     2.0000 </r>
       <r>   -13.8090     0.0000     2.0000 </r>
       <r>   -13.7373     0.0000     2.0000 </r>
       <r>   -13.6656     0.0000     2.0000 </r>
       <r>   -13.5940     0.0000     2.0000 </r>
       <r>   -13.5223     0.0000     2.0000 </r>
       <r>   -13.4506     0.0000     2.0000 </r>
       <r>   -13.3789     0.0000     2.0000 </r>
       <r>   -13.3073     0.0000     2.0000 </r>
       <r>   -13.2356     0.0000     2.0000 </r>
       <r>   -13.1639     0.0000     2.0000 </r>
       <r>   -13.0923     0.0000     2.0000 </r>
       <r>   -13.0206     0.0000     2.0000 </r>
       <r>   -12.9489     0.0000     2.0000 </r>
       <r>   -12.8773     0.0000     2.0000 </r>
       <r>   -12.8056     0.0000     2.0000 </r>
       <r>   -12.7339     0.0000     2.0000 </r>
       <r>   -12.6623     0.0000     2.0000 </r>
       <r>   -12.5906     0.0000     2.0000 </r>
       <r>   -12.5189     0.0000     2.0000 </r>
       <r>   -12.4472     0.0000     2.0000 </r>
       <r>   -12.3756     0.0000     2.0000 </r>
       <r>   -12.3039     0.0000     2.0000 </r>
       <r>   -12.2322     0.0000     2.0000 </r>
       <r>   -12.1606     0.0000     2.0000 </r>
       <r>   -12.0889     0.0000     2.0000 </r>
       <r>   -12.0172     0.0000     2.0000 </r>
       <r>   -11.9456     0.0000     2.0000 </r>
       <r>   -11.8739     0.0000     2.0000 </r>
       <r>   -11.8022     0.0000     2.0000 </r>
       <r>   -11.7306     0.0000     2.0000 </r>
       <r>   -11.6589     0.0000     2.0000 </r>
       <r>   -11.5872     0.0000     2.0000 </r>
       <r>   -11.5155     0.0000     2.0000 </r>
       <r>   -11.4439     0.0000     2.0000 </r>
       <r>   -11.3722     0.0000     2.0000 </r>
       <r>   -11.3005     0.0000     2.0000 </r>
       <r>   -11.2289     0.0000     2.0000 </r>
       <r>   -11.1572    -0.0000     2.0000 </r>
       <r>   -11.0855    -0.0000     2.0000 </r>
       <r>   -11.0139    -0.0000     2.0000 </r>
       <r>   -10.9422    -0.0000     2.0000 </r>
       <r>   -10.8705    -0.0000     2.0000 </r>
       <r>   -10.7989    -0.0000     2.0000 </r>
       <r>   -10.7272    -0.0000     2.0000 </r>
       <r>   -10.6555    -0.0000     2.0000 </r>
       <r>   -10.5838    -0.0000     2.0000 </r>
       <r>   -10.5122    -0.0000     2.0000 </r>
       <r>   -10.4405    -0.0000     2.0000 </r>
       <r>   -10.3688    -0.0000     2.0000 </r>
       <r>   -10.2972    -0.0000     2.0000 </r>
       <r>   -10.2255    -0.0001     2.0000 </r>
       <r>   -10.1538    -0.0006     2.0000 </r>
       <r>   -10.0822    -0.0046     1.9996 </r>
       <r>   -10.0105    -0.0253     1.9978 </r>
       <r>    -9.9388    -0.1008     1.9906 </r>
       <r>    -9.8672    -0.2758     1.9708 </r>
       <r>    -9.7955    -0.4390     1.9393 </r>
       <r>    -9.7238    -0.0332     1.9370 </r>
       <r>    -9.6521     1.8012     2.0661 </r>
       <r>    -9.5805     5.0534     2.4282 </r>
       <r>    -9.5088     7.8278     2.9892 </r>
       <r>    -9.4371     7.7473     3.5445 </r>
       <r>    -9.3655     4.7248     3.8831 </r>
       <r>    -9.2938     1.2314     3.9714 </r>
       <r>    -9.2221    -0.0644     3.9668 </r>
       <r>    -9.1505     2.0501     4.1137 </r>
       <r>    -9.0788     6.9961     4.6151 </r>
       <r>    -9.0071    12.2749     5.4948 </r>
       <r>    -8.9355    14.5428     6.5371 </r>
       <r>    -8.8638    12.2529     7.4153 </r>
       <r>    -8.7921     7.1192     7.9255 </r>
       <r>    -8.7204     2.3813     8.0961 </r>
       <r>    -8.6488    -0.0934     8.0895 </r>
       <r>    -8.5771    -0.6327     8.0441 </r>
       <r>    -8.5054    -0.4078     8.0149 </r>
       <r>    -8.4338    -0.1566     8.0037 </r>
       <r>    -8.3621    -0.0417     8.0007 </r>
       <r>    -8.2904    -0.0081     8.0001 </r>
       <r>    -8.2188    -0.0012     8.0000 </r>
       <r>    -8.1471    -0.0001     8.0000 </r>
       <r>    -8.0754    -0.0000     8.0000 </r>
       <r>    -8.0038    -0.0000     8.0000 </r>
       <r>    -7.9321    -0.0000     8.0000 </r>
       <r>    -7.8604    -0.0000     8.0000 </r>
       <r>    -7.7887    -0.0000     8.0000 </r>
       <r>    -7.7171    -0.0000     8.0000 </r>
       <r>    -7.6454    -0.0000     8.0000 </r>
       <r>    -7.5737     0.0000     8.0000 </r>
       <r>    -7.5021     0.0000     8.0000 </r>
       <r>    -7.4304     0.0000     8.0000 </r>
       <r>    -7.3587     0.0000     8.0000 </r>
       <r>    -7.2871     0.0000     8.0000 </r>
       <r>    -7.2154     0.0000     8.0000 </r>
       <r>    -7.1437     0.0000     8.0000 </r>
       <r>    -7.0721     0.0000     8.0000 </r>
       <r>    -7.0004     0.0000     8.0000 </r>
       <r>    -6.9287     0.0000     8.0000 </r>
       <r>    -6.8570     0.0000     8.0000 </r>
       <r>    -6.7854     0.0000     8.0000 </r>
       <r>    -6.7137     0.0000     8.0000 </r>
       <r>    -6.6420     0.0000     8.0000 </r>
       <r>    -6.5704     0.0000     8.0000 </r>
       <r>    -6.4987     0.0000     8.0000 </r>
       <r>    -6.4270     0.0000     8.0000 </r>
       <r>    -6.3554     0.0000     8.0000 </r>
       <r>    -6.2837     0.0000     8.0000 </r>
       <r>    -6.2120     0.0000     8.0000 </r>
       <r>    -6.1404     0.0000     8.0000 </r>
       <r>    -6.0687     0.0000     8.0000 </r>
       <r>    -5.9970     0.0000     8.0000 </r>
       <r>    -5.9253     0.0000     8.0000 </r>
       <r>    -5.8537     0.0000     8.0000 </r>
       <r>    -5.7820     0.0000     8.0000 </r>
       <r>    -5.7103     0.0000     8.0000 </r>
       <r>    -5.6387     0.0000     8.0000 </r>
       <r>    -5.5670     0.0000     8.0000 </r>
       <r>    -5.4953     0.0000     8.0000 </r>
       <r>    -5.4237     0.0000     8.0000 </r>
       <r>    -5.3520     0.0000     8.0000 </r>
       <r>    -5.2803     0.0000     8.0000 </r>
       <r>    -5.2087     0.0000     8.0000 </r>
       <r>    -5.1370     0.0000     8.0000 </r>
       <r>    -5.0653     0.0000     8.0000 </r>
       <r>    -4.9936     0.0000     8.0000 </r>
       <r>    -4.9220     0.0000     8.0000 </r>
       <r>    -4.8503     0.0000     8.0000 </r>
       <r>    -4.7786     0.0000     8.0000 </r>
       <r>    -4.7070     0.0000     8.0000 </r>
       <r>    -4.6353     0.0000     8.0000 </r>
       <r>    -4.5636     0.0000     8.0000 </r>
       <r>    -4.4920     0.0000     8.0000 </r>
       <r>    -4.4203     0.0000     8.0000 </r>
       <r>    -4.3486     0.0000     8.0000 </r>
       <r>    -4.2769     0.0000     8.0000 </r>
       <r>    -4.2053     0.0000     8.0000 </r>
       <r>    -4.1336     0.0000     8.0000 </r>
       <r>    -4.0619     0.0000     8.0000 </r>
       <r>    -3.9903     0.0000     8.0000 </r>
       <r>    -3.9186     0.0000     8.0000 </r>
       <r>    -3.8469     0.0000     8.0000 </r>
       <r>    -3.7753     0.0000     8.0000 </r>
       <r>    -3.7036     0.0000     8.0000 </r>
       <r>    -3.6319     0.0000     8.0000 </r>
       <r>    -3.5603     0.0000     8.0000 </r>
       <r>    -3.4886     0.0000     8.0000 </r>
       <r>    -3.4169     0.0000     8.0000 </r>
       <r>    -3.3452     0.0000     8.0000 </r>
       <r>    -3.2736     0.0000     8.0000 </r>
       <r>    -3.2019     0.0000     8.0000 </r>
       <r>    -3.1302     0.0000     8.0000 </r>
       <r>    -3.0586     0.0000     8.0000 </r>
       <r>    -2.9869     0.0000     8.0000 </r>
       <r>    -2.9152     0.0000     8.0000 </r>
       <r>    -2.8436     0.0000     8.0000 </r>
       <r>    -2.7719     0.0000     8.0000 </r>
       <r>    -2.7002     0.0000     8.0000 </r>
       <r>    -2.6286     0.0000     8.0000 </r>
       <r>    -2.5569     0.0000     8.0000 </r>
       <r>    -2.4852     0.0000     8.0000 </r>
       <r>    -2.4135     0.0000     8.0000 </r>
       <r>    -2.3419     0.0000     8.0000 </r>
       <r>    -2.2702     0.0000     8.0000 </r>
       <r>    -2.1985     0.0000     8.0000 </r>
       <r>    -2.1269     0.0000     8.0000 </r>
       <r>    -2.0552     0.0000     8.0000 </r>
       <r>    -1.9835     0.0000     8.0000 </r>
       <r>    -1.9119    -0.0000     8.0000 </r>
       <r>    -1.8402    -0.0000     8.0000 </r>
       <r>    -1.7685    -0.0000     8.0000 </r>
       <r>    -1.6969    -0.0000     8.0000 </r>
       <r>    -1.6252    -0.0000     8.0000 </r>
       <r>    -1.5535    -0.0000     8.0000 </r>
       <r>    -1.4818    -0.0000     8.0000 </r>
       <r>    -1.4102    -0.0000     8.0000 </r>
       <r>    -1.3385    -0.0000     8.0000 </r>
       <r>    -1.2668    -0.0000     8.0000 </r>
       <r>    -1.1952    -0.0000     8.0000 </r>
       <r>    -1.1235    -0.0000     8.0000 </r>
       <r>    -1.0518    -0.0000     8.0000 </r>
       <r>    -0.9802    -0.0002     8.0000 </r>
       <r>    -0.9085    -0.0019     7.9998 </r>
       <r>    -0.8368    -0.0119     7.9990 </r>
       <r>    -0.7652    -0.0554     7.9950 </r>
       <r>    -0.6935    -0.1823     7.9820 </r>
       <r>    -0.6218    -0.3868     7.9542 </r>
       <r>    -0.5501    -0.3477     7.9293 </r>
       <r>    -0.4785     0.7350     7.9820 </r>
       <r>    -0.4068     3.4487     8.2292 </r>
       <r>    -0.3351     6.7926     8.7160 </r>
       <r>    -0.2635     8.3083     9.3114 </r>
       <r>    -0.1918     6.6543     9.7883 </r>
       <r>    -0.1201     3.2887    10.0240 </r>
       <r>    -0.0485     0.6458    10.0703 </r>
       <r>     0.0232    -0.3726    10.0436 </r>
       <r>     0.0949    -0.4148    10.0139 </r>
       <r>     0.1665    -0.3185     9.9911 </r>
       <r>     0.2382    -0.4576     9.9583 </r>
       <r>     0.3099    -0.7469     9.9047 </r>
       <r>     0.3816    -0.5070     9.8684 </r>
       <r>     0.4532     1.5921     9.9825 </r>
       <r>     0.5249     6.6440    10.4587 </r>
       <r>     0.5966    13.8351    11.4502 </r>
       <r>     0.6682    19.8054    12.8697 </r>
       <r>     0.7399    20.6642    14.3507 </r>
       <r>     0.8116    15.5453    15.4648 </r>
       <r>     0.8832     7.8010    16.0239 </r>
       <r>     0.9549     1.8415    16.1558 </r>
       <r>     1.0266    -0.6596    16.1086 </r>
       <r>     1.0982    -0.8726    16.0460 </r>
       <r>     1.1699    -0.4504    16.0137 </r>
       <r>     1.2416    -0.1496    16.0030 </r>
       <r>     1.3133    -0.0353    16.0005 </r>
       <r>     1.3849    -0.0061    16.0001 </r>
       <r>     1.4566    -0.0008    16.0000 </r>
       <r>     1.5283    -0.0001    16.0000 </r>
       <r>     1.5999    -0.0000    16.0000 </r>
       <r>     1.6716    -0.0000    16.0000 </r>
       <r>     1.7433    -0.0000    16.0000 </r>
       <r>     1.8149    -0.0000    16.0000 </r>
       <r>     1.8866    -0.0000    16.0000 </r>
       <r>     1.9583    -0.0000    16.0000 </r>
       <r>     2.0299    -0.0000    16.0000 </r>
       <r>     2.1016     0.0000    16.0000 </r>
       <r>     2.1733     0.0000    16.0000 </r>
       <r>     2.2450     0.0000    16.0000 </r>
       <r>     2.3166     0.0000    16.0000 </r>
       <r>     2.3883     0.0000    16.0000 </r>
       <r>     2.4600     0.0000    16.0000 </r>
       <r>     2.5316     0.0000    16.0000 </r>
       <r>     2.6033     0.0000    16.0000 </r>
       <r>     2.6750     0.0000    16.0000 </r>
       <r>     2.7466     0.0000    16.0000 </r>
      </set>
     </set>
    </array>
   </total>
  </dos>
 </calculation>
 <structure name="finalpos" >
  <crystal>
   <varray name="basis" >
    <v>       9.70252642       0.00000000       0.00000000 </v>
    <v>       0.27378818      10.03766441       0.00000000 </v>
    <v>       0.03426448       0.28252640       9.83737002 </v>
   </varray>
   <i name="volume">    958.06839286 </i>
   <varray name="rec_basis" >
    <v>       0.10306594      -0.00281124      -0.00027825 </v>
    <v>       0.00000000       0.09962477      -0.00286119 </v>
    <v>       0.00000000       0.00000000       0.10165319 </v>
   </varray>
  </crystal>
  <varray name="positions" >
   <v>       0.53679589       0.39947306       0.36444918 </v>
   <v>       0.39575523       0.50242081       0.43069877 </v>
   <v>       0.57199700       0.55455408       0.44358103 </v>
   <v>       0.51979118       0.41276109       0.53925216 </v>
   <v>       0.50236033       0.46722245       0.44532764 </v>
  </varray>
  <varray name="velocities" >
   <v>       0.00010314      -0.00289201      -0.00120086 </v>
   <v>       0.00220198       0.00393357       0.00526070 </v>
   <v>       0.00258217       0.00247436      -0.00125225 </v>
   <v>      -0.00309591       0.00048862       0.00026408 </v>
   <v>      -0.00014915      -0.00033341      -0.00025574 </v>
  </varray>
 </structure>
</modeling>
