unknown system                          
           1
     9.702526    0.000000    0.000000
     0.273788   10.037664    0.000000
     0.034264    0.282526    9.837370
   H    C 
   4   1
Direct configuration=     1
   0.53796481  0.40660791  0.36044931
   0.39467980  0.48005301  0.43856926
   0.55250178  0.56519119  0.44244753
   0.52824869  0.41610105  0.53916710
   0.50327151  0.46732701  0.44510684
Direct configuration=     2
   0.53738979  0.40813073  0.36305367
   0.39012421  0.47959780  0.43781469
   0.55269481  0.56775145  0.44142254
   0.52720504  0.41711875  0.54266357
   0.50376949  0.46694023  0.44474706
Direct configuration=     3
   0.53986526  0.40627905  0.36384241
   0.38944290  0.47917076  0.43767830
   0.55333045  0.56872924  0.44263251
   0.52474710  0.41756566  0.54346189
   0.50377183  0.46701134  0.44452555
Direct configuration=     4
   0.54438346  0.40280077  0.36282421
   0.39273360  0.47813270  0.43802467
   0.55230229  0.56323687  0.44293392
   0.52194573  0.41733028  0.54081637
   0.50344052  0.46786423  0.44477665
Direct configuration=     5
   0.54556596  0.40088569  0.36703412
   0.39546371  0.48020763  0.43715194
   0.55275211  0.56016189  0.44300215
   0.52257038  0.41467839  0.54129250
   0.50302531  0.46832772  0.44445348
Direct configuration=     6
   0.54478146  0.40086067  0.36928531
   0.39182379  0.48267422  0.43539955
   0.55697038  0.55856303  0.44299308
   0.52436788  0.41269001  0.54318471
   0.50289282  0.46842311  0.44425517
Direct configuration=     7
   0.54271426  0.40008022  0.36746904
   0.39126102  0.48451013  0.43119081
   0.56279461  0.55852261  0.44441170
   0.52487882  0.41510981  0.54095766
   0.50258434  0.46813713  0.44482410
Direct configuration=     8
   0.53992955  0.40172664  0.36444999
   0.39450149  0.48809222  0.42640021
   0.56661610  0.55703114  0.44551349
   0.52528039  0.41446259  0.54131231
   0.50219479  0.46787988  0.44535305
Direct configuration=     9
   0.53714743  0.40305191  0.36424812
   0.39699519  0.49228367  0.42413329
   0.56901756  0.55495559  0.44518360
   0.52500069  0.41226630  0.54165640
   0.50204216  0.46777624  0.44555741
Direct configuration=    10
   0.53669274  0.40236507  0.36565004
   0.39355325  0.49848724  0.42543807
   0.56941484  0.55207972  0.44483329
   0.52288709  0.41227246  0.53898807
   0.50250947  0.46755585  0.44558338
