   5   5   0   0
  0.2027919E+03  0.9905758E-09  0.1009321E-08  0.1014355E-08  0.2000000E-14
   50.000000000000000     
  CAR 
 unknown system                          
      2.69402034    -18.82606608  301     -9.08172560      1.00000000
    -18.826  0.0000E+00  0.0000E+00
    -18.754  0.0000E+00  0.0000E+00
    -18.683  0.0000E+00  0.0000E+00
    -18.611  0.0000E+00  0.0000E+00
    -18.539  0.0000E+00  0.0000E+00
    -18.467 -0.3630E-27 -0.2604E-28
    -18.396 -0.1096E-24 -0.7888E-26
    -18.324 -0.2560E-22 -0.1844E-23
    -18.252 -0.4609E-20 -0.3325E-21
    -18.180 -0.6399E-18 -0.4624E-19
    -18.109 -0.6846E-16 -0.4957E-17
    -18.037 -0.5641E-14 -0.4096E-15
    -17.965 -0.3470E-12 -0.2530E-13
    -17.894 -0.1685E-10 -0.1234E-11
    -17.822 -0.6286E-09 -0.4633E-10
    -17.750 -0.1797E-07 -0.1336E-08
    -17.678 -0.3932E-06 -0.2954E-07
    -17.607 -0.6565E-05 -0.5004E-06
    -17.535 -0.8331E-04 -0.6477E-05
    -17.463 -0.7993E-03 -0.6381E-04
    -17.391 -0.5749E-02 -0.4762E-03
    -17.320 -0.3056E-01 -0.2668E-02
    -17.248 -0.1169E+00 -0.1105E-01
    -17.176 -0.3030E+00 -0.3279E-01
    -17.104 -0.4367E+00 -0.6412E-01
    -17.033  0.1061E+00 -0.5651E-01
    -16.961  0.2161E+01  0.9853E-01
    -16.889  0.5507E+01  0.4935E+00
    -16.818  0.8065E+01  0.1072E+01
    -16.746  0.7671E+01  0.1622E+01
    -16.674  0.4681E+01  0.1958E+01
    -16.602  0.1516E+01  0.2067E+01
    -16.531 -0.1341E+00  0.2057E+01
    -16.459 -0.4339E+00  0.2026E+01
    -16.387 -0.2518E+00  0.2008E+01
    -16.315 -0.8774E-01  0.2002E+01
    -16.244 -0.2114E-01  0.2000E+01
    -16.172 -0.3694E-02  0.2000E+01
    -16.100 -0.4792E-03  0.2000E+01
    -16.028 -0.4670E-04  0.2000E+01
    -15.957 -0.3446E-05  0.2000E+01
    -15.885 -0.1935E-06  0.2000E+01
    -15.813 -0.8299E-08  0.2000E+01
    -15.742 -0.2724E-09  0.2000E+01
    -15.670 -0.6864E-11  0.2000E+01
    -15.598 -0.1300E-12  0.2000E+01
    -15.526  0.0000E+00  0.2000E+01
    -15.455  0.0000E+00  0.2000E+01
    -15.383  0.0000E+00  0.2000E+01
    -15.311  0.0000E+00  0.2000E+01
    -15.239  0.0000E+00  0.2000E+01
    -15.168  0.0000E+00  0.2000E+01
    -15.096  0.0000E+00  0.2000E+01
    -15.024  0.0000E+00  0.2000E+01
    -14.952  0.0000E+00  0.2000E+01
    -14.881  0.0000E+00  0.2000E+01
    -14.809  0.0000E+00  0.2000E+01
    -14.737  0.0000E+00  0.2000E+01
    -14.666  0.0000E+00  0.2000E+01
    -14.594  0.0000E+00  0.2000E+01
    -14.522  0.0000E+00  0.2000E+01
    -14.450  0.0000E+00  0.2000E+01
    -14.379  0.0000E+00  0.2000E+01
    -14.307  0.0000E+00  0.2000E+01
    -14.235  0.0000E+00  0.2000E+01
    -14.163  0.0000E+00  0.2000E+01
    -14.092  0.0000E+00  0.2000E+01
    -14.020  0.0000E+00  0.2000E+01
    -13.948  0.0000E+00  0.2000E+01
    -13.876  0.0000E+00  0.2000E+01
    -13.805  0.0000E+00  0.2000E+01
    -13.733  0.0000E+00  0.2000E+01
    -13.661  0.0000E+00  0.2000E+01
    -13.590  0.0000E+00  0.2000E+01
    -13.518  0.0000E+00  0.2000E+01
    -13.446  0.0000E+00  0.2000E+01
    -13.374  0.0000E+00  0.2000E+01
    -13.303  0.0000E+00  0.2000E+01
    -13.231  0.0000E+00  0.2000E+01
    -13.159  0.0000E+00  0.2000E+01
    -13.087  0.0000E+00  0.2000E+01
    -13.016  0.0000E+00  0.2000E+01
    -12.944  0.0000E+00  0.2000E+01
    -12.872  0.0000E+00  0.2000E+01
    -12.800  0.0000E+00  0.2000E+01
    -12.729  0.0000E+00  0.2000E+01
    -12.657  0.0000E+00  0.2000E+01
    -12.585  0.0000E+00  0.2000E+01
    -12.514  0.0000E+00  0.2000E+01
    -12.442  0.0000E+00  0.2000E+01
    -12.370  0.0000E+00  0.2000E+01
    -12.298  0.0000E+00  0.2000E+01
    -12.227  0.0000E+00  0.2000E+01
    -12.155  0.0000E+00  0.2000E+01
    -12.083  0.0000E+00  0.2000E+01
    -12.011  0.0000E+00  0.2000E+01
    -11.940  0.0000E+00  0.2000E+01
    -11.868  0.0000E+00  0.2000E+01
    -11.796  0.0000E+00  0.2000E+01
    -11.724  0.0000E+00  0.2000E+01
    -11.653  0.0000E+00  0.2000E+01
    -11.581  0.0000E+00  0.2000E+01
    -11.509  0.0000E+00  0.2000E+01
    -11.438  0.0000E+00  0.2000E+01
    -11.366  0.0000E+00  0.2000E+01
    -11.294  0.0000E+00  0.2000E+01
    -11.222  0.0000E+00  0.2000E+01
    -11.151  0.0000E+00  0.2000E+01
    -11.079  0.0000E+00  0.2000E+01
    -11.007  0.0000E+00  0.2000E+01
    -10.935  0.0000E+00  0.2000E+01
    -10.864 -0.1846E-25  0.2000E+01
    -10.792 -0.4852E-23  0.2000E+01
    -10.720 -0.9868E-21  0.2000E+01
    -10.648 -0.1548E-18  0.2000E+01
    -10.577 -0.1874E-16  0.2000E+01
    -10.505 -0.1748E-14  0.2000E+01
    -10.433 -0.1226E-12  0.2000E+01
    -10.361 -0.6732E-11  0.2000E+01
    -10.290 -0.2856E-09  0.2000E+01
    -10.218 -0.9304E-08  0.2000E+01
    -10.146 -0.2324E-06  0.2000E+01
    -10.075 -0.4443E-05  0.2000E+01
    -10.003 -0.6480E-04  0.2000E+01
     -9.931 -0.7178E-03  0.2000E+01
     -9.859 -0.6000E-02  0.2000E+01
     -9.788 -0.3746E-01  0.1997E+01
     -9.716 -0.1715E+00  0.1985E+01
     -9.644 -0.5547E+00  0.1945E+01
     -9.572 -0.1154E+01  0.1862E+01
     -9.501 -0.9825E+00  0.1791E+01
     -9.429  0.2338E+01  0.1959E+01
     -9.357  0.1047E+02  0.2710E+01
     -9.285  0.2035E+02  0.4170E+01
     -9.214  0.2474E+02  0.5945E+01
     -9.142  0.1977E+02  0.7363E+01
     -9.070  0.9797E+01  0.8066E+01
     -8.999  0.1970E+01  0.8207E+01
     -8.927 -0.1056E+01  0.8131E+01
     -8.855 -0.1116E+01  0.8051E+01
     -8.783 -0.5190E+00  0.8014E+01
     -8.712 -0.1568E+00  0.8003E+01
     -8.640 -0.3366E-01  0.8000E+01
     -8.568 -0.5310E-02  0.8000E+01
     -8.496 -0.6270E-03  0.8000E+01
     -8.425 -0.5596E-04  0.8000E+01
     -8.353 -0.3801E-05  0.8000E+01
     -8.281 -0.1972E-06  0.8000E+01
     -8.209 -0.7844E-08  0.8000E+01
     -8.138 -0.2396E-09  0.8000E+01
     -8.066 -0.5627E-11  0.8000E+01
     -7.994 -0.1052E-12  0.8000E+01
     -7.923  0.0000E+00  0.8000E+01
     -7.851  0.0000E+00  0.8000E+01
     -7.779  0.0000E+00  0.8000E+01
     -7.707  0.0000E+00  0.8000E+01
     -7.636  0.0000E+00  0.8000E+01
     -7.564  0.0000E+00  0.8000E+01
     -7.492  0.0000E+00  0.8000E+01
     -7.420  0.0000E+00  0.8000E+01
     -7.349  0.0000E+00  0.8000E+01
     -7.277  0.0000E+00  0.8000E+01
     -7.205  0.0000E+00  0.8000E+01
     -7.133  0.0000E+00  0.8000E+01
     -7.062  0.0000E+00  0.8000E+01
     -6.990  0.0000E+00  0.8000E+01
     -6.918  0.0000E+00  0.8000E+01
     -6.847  0.0000E+00  0.8000E+01
     -6.775  0.0000E+00  0.8000E+01
     -6.703  0.0000E+00  0.8000E+01
     -6.631  0.0000E+00  0.8000E+01
     -6.560  0.0000E+00  0.8000E+01
     -6.488  0.0000E+00  0.8000E+01
     -6.416  0.0000E+00  0.8000E+01
     -6.344  0.0000E+00  0.8000E+01
     -6.273  0.0000E+00  0.8000E+01
     -6.201  0.0000E+00  0.8000E+01
     -6.129  0.0000E+00  0.8000E+01
     -6.057  0.0000E+00  0.8000E+01
     -5.986  0.0000E+00  0.8000E+01
     -5.914  0.0000E+00  0.8000E+01
     -5.842  0.0000E+00  0.8000E+01
     -5.771  0.0000E+00  0.8000E+01
     -5.699  0.0000E+00  0.8000E+01
     -5.627  0.0000E+00  0.8000E+01
     -5.555  0.0000E+00  0.8000E+01
     -5.484  0.0000E+00  0.8000E+01
     -5.412  0.0000E+00  0.8000E+01
     -5.340  0.0000E+00  0.8000E+01
     -5.268  0.0000E+00  0.8000E+01
     -5.197  0.0000E+00  0.8000E+01
     -5.125  0.0000E+00  0.8000E+01
     -5.053  0.0000E+00  0.8000E+01
     -4.981  0.0000E+00  0.8000E+01
     -4.910  0.0000E+00  0.8000E+01
     -4.838  0.0000E+00  0.8000E+01
     -4.766  0.0000E+00  0.8000E+01
     -4.695  0.0000E+00  0.8000E+01
     -4.623  0.0000E+00  0.8000E+01
     -4.551  0.0000E+00  0.8000E+01
     -4.479  0.0000E+00  0.8000E+01
     -4.408  0.0000E+00  0.8000E+01
     -4.336  0.0000E+00  0.8000E+01
     -4.264  0.0000E+00  0.8000E+01
     -4.192  0.0000E+00  0.8000E+01
     -4.121  0.0000E+00  0.8000E+01
     -4.049  0.0000E+00  0.8000E+01
     -3.977  0.0000E+00  0.8000E+01
     -3.905  0.0000E+00  0.8000E+01
     -3.834  0.0000E+00  0.8000E+01
     -3.762  0.0000E+00  0.8000E+01
     -3.690  0.0000E+00  0.8000E+01
     -3.619  0.0000E+00  0.8000E+01
     -3.547  0.0000E+00  0.8000E+01
     -3.475  0.0000E+00  0.8000E+01
     -3.403  0.0000E+00  0.8000E+01
     -3.332  0.0000E+00  0.8000E+01
     -3.260  0.0000E+00  0.8000E+01
     -3.188  0.0000E+00  0.8000E+01
     -3.116  0.0000E+00  0.8000E+01
     -3.045  0.0000E+00  0.8000E+01
     -2.973  0.0000E+00  0.8000E+01
     -2.901  0.0000E+00  0.8000E+01
     -2.829  0.0000E+00  0.8000E+01
     -2.758  0.0000E+00  0.8000E+01
     -2.686  0.0000E+00  0.8000E+01
     -2.614  0.0000E+00  0.8000E+01
     -2.543  0.0000E+00  0.8000E+01
     -2.471  0.0000E+00  0.8000E+01
     -2.399  0.0000E+00  0.8000E+01
     -2.327  0.0000E+00  0.8000E+01
     -2.256  0.0000E+00  0.8000E+01
     -2.184  0.0000E+00  0.8000E+01
     -2.112  0.0000E+00  0.8000E+01
     -2.040  0.0000E+00  0.8000E+01
     -1.969 -0.3710E-27  0.8000E+01
     -1.897 -0.1119E-24  0.8000E+01
     -1.825 -0.2609E-22  0.8000E+01
     -1.753 -0.4692E-20  0.8000E+01
     -1.682 -0.6505E-18  0.8000E+01
     -1.610 -0.6951E-16  0.8000E+01
     -1.538 -0.5720E-14  0.8000E+01
     -1.467 -0.3512E-12  0.8000E+01
     -1.395 -0.1705E-10  0.8000E+01
     -1.323 -0.6352E-09  0.8000E+01
     -1.251 -0.1814E-07  0.8000E+01
     -1.180 -0.3966E-06  0.8000E+01
     -1.108 -0.6613E-05  0.8000E+01
     -1.036 -0.8385E-04  0.8000E+01
     -0.964 -0.8037E-03  0.8000E+01
     -0.893 -0.5775E-02  0.8000E+01
     -0.821 -0.3067E-01  0.7997E+01
     -0.749 -0.1172E+00  0.7989E+01
     -0.677 -0.3035E+00  0.7967E+01
     -0.606 -0.4364E+00  0.7936E+01
     -0.534  0.1090E+00  0.7944E+01
     -0.462  0.2168E+01  0.8099E+01
     -0.391  0.5513E+01  0.8495E+01
     -0.319  0.8066E+01  0.9073E+01
     -0.247  0.7666E+01  0.9623E+01
     -0.175  0.4674E+01  0.9959E+01
     -0.104  0.1511E+01  0.1007E+02
     -0.032 -0.1394E+00  0.1006E+02
      0.040 -0.4572E+00  0.1002E+02
      0.112 -0.3535E+00  0.9999E+01
      0.183 -0.4065E+00  0.9970E+01
      0.255 -0.6922E+00  0.9920E+01
      0.327 -0.7220E+00  0.9868E+01
      0.399  0.7196E+00  0.9920E+01
      0.470  0.5011E+01  0.1028E+02
      0.542  0.1205E+02  0.1114E+02
      0.614  0.1897E+02  0.1250E+02
      0.685  0.2142E+02  0.1404E+02
      0.757  0.1736E+02  0.1529E+02
      0.829  0.9490E+01  0.1597E+02
      0.901  0.2697E+01  0.1616E+02
      0.972 -0.4993E+00  0.1613E+02
      1.044 -0.9655E+00  0.1606E+02
      1.116 -0.5383E+00  0.1602E+02
      1.188 -0.1867E+00  0.1600E+02
      1.259 -0.4537E-01  0.1600E+02
      1.331 -0.8055E-02  0.1600E+02
      1.403 -0.1066E-02  0.1600E+02
      1.475 -0.1064E-03  0.1600E+02
      1.546 -0.8058E-05  0.1600E+02
      1.618 -0.4655E-06  0.1600E+02
      1.690 -0.2057E-07  0.1600E+02
      1.761 -0.6973E-09  0.1600E+02
      1.833 -0.1815E-10  0.1600E+02
      1.905 -0.3653E-12  0.1600E+02
      1.977 -0.6191E-14  0.1600E+02
      2.048  0.0000E+00  0.1600E+02
      2.120  0.0000E+00  0.1600E+02
      2.192  0.0000E+00  0.1600E+02
      2.264  0.0000E+00  0.1600E+02
      2.335  0.0000E+00  0.1600E+02
      2.407  0.0000E+00  0.1600E+02
      2.479  0.0000E+00  0.1600E+02
      2.551  0.0000E+00  0.1600E+02
      2.622  0.0000E+00  0.1600E+02
      2.694  0.0000E+00  0.1600E+02
      2.70163209    -18.85764706  301     -8.98208773      1.00000000
    -18.858  0.0000E+00  0.0000E+00
    -18.786  0.0000E+00  0.0000E+00
    -18.714  0.0000E+00  0.0000E+00
    -18.642  0.0000E+00  0.0000E+00
    -18.570  0.0000E+00  0.0000E+00
    -18.498 -0.3822E-27 -0.2746E-28
    -18.426 -0.1163E-24 -0.8386E-26
    -18.355 -0.2735E-22 -0.1974E-23
    -18.283 -0.4954E-20 -0.3580E-21
    -18.211 -0.6912E-18 -0.5003E-19
    -18.139 -0.7424E-16 -0.5385E-17
    -18.067 -0.6136E-14 -0.4464E-15
    -17.995 -0.3777E-12 -0.2759E-13
    -17.923 -0.1839E-10 -0.1349E-11
    -17.852 -0.6859E-09 -0.5064E-10
    -17.780 -0.1960E-07 -0.1459E-08
    -17.708 -0.4279E-06 -0.3221E-07
    -17.636 -0.7121E-05 -0.5440E-06
    -17.564 -0.9000E-04 -0.7012E-05
    -17.492 -0.8589E-03 -0.6874E-04
    -17.420 -0.6136E-02 -0.5097E-03
    -17.348 -0.3233E-01 -0.2833E-02
    -17.277 -0.1223E+00 -0.1162E-01
    -17.205 -0.3120E+00 -0.3404E-01
    -17.133 -0.4336E+00 -0.6520E-01
    -17.061  0.1613E+00 -0.5361E-01
    -16.989  0.2298E+01  0.1115E+00
    -16.917  0.5670E+01  0.5190E+00
    -16.845  0.8125E+01  0.1103E+01
    -16.774  0.7563E+01  0.1646E+01
    -16.702  0.4493E+01  0.1969E+01
    -16.630  0.1379E+01  0.2068E+01
    -16.558 -0.1796E+00  0.2055E+01
    -16.486 -0.4289E+00  0.2025E+01
    -16.414 -0.2390E+00  0.2007E+01
    -16.342 -0.8106E-01  0.2002E+01
    -16.271 -0.1907E-01  0.2000E+01
    -16.199 -0.3256E-02  0.2000E+01
    -16.127 -0.4127E-03  0.2000E+01
    -16.055 -0.3928E-04  0.2000E+01
    -15.983 -0.2830E-05  0.2000E+01
    -15.911 -0.1550E-06  0.2000E+01
    -15.839 -0.6479E-08  0.2000E+01
    -15.767 -0.2071E-09  0.2000E+01
    -15.696 -0.5070E-11  0.2000E+01
    -15.624 -0.9887E-13  0.2000E+01
    -15.552  0.0000E+00  0.2000E+01
    -15.480  0.0000E+00  0.2000E+01
    -15.408  0.0000E+00  0.2000E+01
    -15.336  0.0000E+00  0.2000E+01
    -15.264  0.0000E+00  0.2000E+01
    -15.193  0.0000E+00  0.2000E+01
    -15.121  0.0000E+00  0.2000E+01
    -15.049  0.0000E+00  0.2000E+01
    -14.977  0.0000E+00  0.2000E+01
    -14.905  0.0000E+00  0.2000E+01
    -14.833  0.0000E+00  0.2000E+01
    -14.761  0.0000E+00  0.2000E+01
    -14.690  0.0000E+00  0.2000E+01
    -14.618  0.0000E+00  0.2000E+01
    -14.546  0.0000E+00  0.2000E+01
    -14.474  0.0000E+00  0.2000E+01
    -14.402  0.0000E+00  0.2000E+01
    -14.330  0.0000E+00  0.2000E+01
    -14.258  0.0000E+00  0.2000E+01
    -14.186  0.0000E+00  0.2000E+01
    -14.115  0.0000E+00  0.2000E+01
    -14.043  0.0000E+00  0.2000E+01
    -13.971  0.0000E+00  0.2000E+01
    -13.899  0.0000E+00  0.2000E+01
    -13.827  0.0000E+00  0.2000E+01
    -13.755  0.0000E+00  0.2000E+01
    -13.683  0.0000E+00  0.2000E+01
    -13.612  0.0000E+00  0.2000E+01
    -13.540  0.0000E+00  0.2000E+01
    -13.468  0.0000E+00  0.2000E+01
    -13.396  0.0000E+00  0.2000E+01
    -13.324  0.0000E+00  0.2000E+01
    -13.252  0.0000E+00  0.2000E+01
    -13.180  0.0000E+00  0.2000E+01
    -13.109  0.0000E+00  0.2000E+01
    -13.037  0.0000E+00  0.2000E+01
    -12.965  0.0000E+00  0.2000E+01
    -12.893  0.0000E+00  0.2000E+01
    -12.821  0.0000E+00  0.2000E+01
    -12.749  0.0000E+00  0.2000E+01
    -12.677  0.0000E+00  0.2000E+01
    -12.605  0.0000E+00  0.2000E+01
    -12.534  0.0000E+00  0.2000E+01
    -12.462  0.0000E+00  0.2000E+01
    -12.390  0.0000E+00  0.2000E+01
    -12.318  0.0000E+00  0.2000E+01
    -12.246  0.0000E+00  0.2000E+01
    -12.174  0.0000E+00  0.2000E+01
    -12.102  0.0000E+00  0.2000E+01
    -12.031  0.0000E+00  0.2000E+01
    -11.959  0.0000E+00  0.2000E+01
    -11.887  0.0000E+00  0.2000E+01
    -11.815  0.0000E+00  0.2000E+01
    -11.743  0.0000E+00  0.2000E+01
    -11.671  0.0000E+00  0.2000E+01
    -11.599  0.0000E+00  0.2000E+01
    -11.527  0.0000E+00  0.2000E+01
    -11.456  0.0000E+00  0.2000E+01
    -11.384  0.0000E+00  0.2000E+01
    -11.312  0.0000E+00  0.2000E+01
    -11.240  0.0000E+00  0.2000E+01
    -11.168  0.0000E+00  0.2000E+01
    -11.096  0.0000E+00  0.2000E+01
    -11.024 -0.8660E-26  0.2000E+01
    -10.953 -0.2289E-23  0.2000E+01
    -10.881 -0.4676E-21  0.2000E+01
    -10.809 -0.7357E-19  0.2000E+01
    -10.737 -0.8913E-17  0.2000E+01
    -10.665 -0.8311E-15  0.2000E+01
    -10.593 -0.5807E-13  0.2000E+01
    -10.521 -0.3180E-11  0.2000E+01
    -10.450 -0.1341E-09  0.2000E+01
    -10.378 -0.4331E-08  0.2000E+01
    -10.306 -0.1071E-06  0.2000E+01
    -10.234 -0.2021E-05  0.2000E+01
    -10.162 -0.2902E-04  0.2000E+01
    -10.090 -0.3157E-03  0.2000E+01
    -10.018 -0.2585E-02  0.2000E+01
     -9.946 -0.1577E-01  0.1999E+01
     -9.875 -0.7043E-01  0.1994E+01
     -9.803 -0.2224E+00  0.1978E+01
     -9.731 -0.4559E+00  0.1945E+01
     -9.659 -0.4160E+00  0.1915E+01
     -9.587  0.7012E+00  0.1965E+01
     -9.515  0.3469E+01  0.2215E+01
     -9.443  0.7241E+01  0.2735E+01
     -9.372  0.1060E+02  0.3497E+01
     -9.300  0.1295E+02  0.4428E+01
     -9.228  0.1443E+02  0.5464E+01
     -9.156  0.1443E+02  0.6502E+01
     -9.084  0.1191E+02  0.7358E+01
     -9.012  0.7307E+01  0.7883E+01
     -8.940  0.2780E+01  0.8082E+01
     -8.869  0.1358E+00  0.8092E+01
     -8.797 -0.5980E+00  0.8049E+01
     -8.725 -0.4401E+00  0.8018E+01
     -8.653 -0.1820E+00  0.8005E+01
     -8.581 -0.5130E-01  0.8001E+01
     -8.509 -0.1043E-01  0.8000E+01
     -8.437 -0.1570E-02  0.8000E+01
     -8.365 -0.1771E-03  0.8000E+01
     -8.294 -0.1510E-04  0.8000E+01
     -8.222 -0.9777E-06  0.8000E+01
     -8.150 -0.4825E-07  0.8000E+01
     -8.078 -0.1820E-08  0.8000E+01
     -8.006 -0.5257E-10  0.8000E+01
     -7.934 -0.1166E-11  0.8000E+01
     -7.862 -0.1854E-13  0.8000E+01
     -7.791  0.0000E+00  0.8000E+01
     -7.719  0.0000E+00  0.8000E+01
     -7.647  0.0000E+00  0.8000E+01
     -7.575  0.0000E+00  0.8000E+01
     -7.503  0.0000E+00  0.8000E+01
     -7.431  0.0000E+00  0.8000E+01
     -7.359  0.0000E+00  0.8000E+01
     -7.288  0.0000E+00  0.8000E+01
     -7.216  0.0000E+00  0.8000E+01
     -7.144  0.0000E+00  0.8000E+01
     -7.072  0.0000E+00  0.8000E+01
     -7.000  0.0000E+00  0.8000E+01
     -6.928  0.0000E+00  0.8000E+01
     -6.856  0.0000E+00  0.8000E+01
     -6.784  0.0000E+00  0.8000E+01
     -6.713  0.0000E+00  0.8000E+01
     -6.641  0.0000E+00  0.8000E+01
     -6.569  0.0000E+00  0.8000E+01
     -6.497  0.0000E+00  0.8000E+01
     -6.425  0.0000E+00  0.8000E+01
     -6.353  0.0000E+00  0.8000E+01
     -6.281  0.0000E+00  0.8000E+01
     -6.210  0.0000E+00  0.8000E+01
     -6.138  0.0000E+00  0.8000E+01
     -6.066  0.0000E+00  0.8000E+01
     -5.994  0.0000E+00  0.8000E+01
     -5.922  0.0000E+00  0.8000E+01
     -5.850  0.0000E+00  0.8000E+01
     -5.778  0.0000E+00  0.8000E+01
     -5.706  0.0000E+00  0.8000E+01
     -5.635  0.0000E+00  0.8000E+01
     -5.563  0.0000E+00  0.8000E+01
     -5.491  0.0000E+00  0.8000E+01
     -5.419  0.0000E+00  0.8000E+01
     -5.347  0.0000E+00  0.8000E+01
     -5.275  0.0000E+00  0.8000E+01
     -5.203  0.0000E+00  0.8000E+01
     -5.132  0.0000E+00  0.8000E+01
     -5.060  0.0000E+00  0.8000E+01
     -4.988  0.0000E+00  0.8000E+01
     -4.916  0.0000E+00  0.8000E+01
     -4.844  0.0000E+00  0.8000E+01
     -4.772  0.0000E+00  0.8000E+01
     -4.700  0.0000E+00  0.8000E+01
     -4.629  0.0000E+00  0.8000E+01
     -4.557  0.0000E+00  0.8000E+01
     -4.485  0.0000E+00  0.8000E+01
     -4.413  0.0000E+00  0.8000E+01
     -4.341  0.0000E+00  0.8000E+01
     -4.269  0.0000E+00  0.8000E+01
     -4.197  0.0000E+00  0.8000E+01
     -4.125  0.0000E+00  0.8000E+01
     -4.054  0.0000E+00  0.8000E+01
     -3.982  0.0000E+00  0.8000E+01
     -3.910  0.0000E+00  0.8000E+01
     -3.838  0.0000E+00  0.8000E+01
     -3.766  0.0000E+00  0.8000E+01
     -3.694  0.0000E+00  0.8000E+01
     -3.622  0.0000E+00  0.8000E+01
     -3.551  0.0000E+00  0.8000E+01
     -3.479  0.0000E+00  0.8000E+01
     -3.407  0.0000E+00  0.8000E+01
     -3.335  0.0000E+00  0.8000E+01
     -3.263  0.0000E+00  0.8000E+01
     -3.191  0.0000E+00  0.8000E+01
     -3.119  0.0000E+00  0.8000E+01
     -3.048  0.0000E+00  0.8000E+01
     -2.976  0.0000E+00  0.8000E+01
     -2.904  0.0000E+00  0.8000E+01
     -2.832  0.0000E+00  0.8000E+01
     -2.760  0.0000E+00  0.8000E+01
     -2.688  0.0000E+00  0.8000E+01
     -2.616  0.0000E+00  0.8000E+01
     -2.544  0.0000E+00  0.8000E+01
     -2.473  0.0000E+00  0.8000E+01
     -2.401  0.0000E+00  0.8000E+01
     -2.329  0.0000E+00  0.8000E+01
     -2.257  0.0000E+00  0.8000E+01
     -2.185  0.0000E+00  0.8000E+01
     -2.113  0.0000E+00  0.8000E+01
     -2.041  0.0000E+00  0.8000E+01
     -1.970 -0.2361E-27  0.8000E+01
     -1.898 -0.7336E-25  0.8000E+01
     -1.826 -0.1761E-22  0.8000E+01
     -1.754 -0.3258E-20  0.8000E+01
     -1.682 -0.4643E-18  0.8000E+01
     -1.610 -0.5093E-16  0.8000E+01
     -1.538 -0.4300E-14  0.8000E+01
     -1.466 -0.2707E-12  0.8000E+01
     -1.395 -0.1345E-10  0.8000E+01
     -1.323 -0.5128E-09  0.8000E+01
     -1.251 -0.1497E-07  0.8000E+01
     -1.179 -0.3343E-06  0.8000E+01
     -1.107 -0.5690E-05  0.8000E+01
     -1.035 -0.7358E-04  0.8000E+01
     -0.963 -0.7189E-03  0.8000E+01
     -0.892 -0.5262E-02  0.8000E+01
     -0.820 -0.2846E-01  0.7998E+01
     -0.748 -0.1109E+00  0.7990E+01
     -0.676 -0.2935E+00  0.7968E+01
     -0.604 -0.4382E+00  0.7937E+01
     -0.532  0.6042E-01  0.7941E+01
     -0.460  0.2052E+01  0.8089E+01
     -0.389  0.5382E+01  0.8476E+01
     -0.317  0.8017E+01  0.9052E+01
     -0.245  0.7734E+01  0.9607E+01
     -0.173  0.4790E+01  0.9952E+01
     -0.101  0.1591E+01  0.1007E+02
     -0.029 -0.1142E+00  0.1006E+02
      0.043 -0.4601E+00  0.1002E+02
      0.115 -0.3627E+00  0.9999E+01
      0.186 -0.4161E+00  0.9969E+01
      0.258 -0.6946E+00  0.9919E+01
      0.330 -0.6907E+00  0.9869E+01
      0.402  0.8188E+00  0.9928E+01
      0.474  0.5173E+01  0.1030E+02
      0.546  0.1220E+02  0.1118E+02
      0.618  0.1901E+02  0.1254E+02
      0.689  0.2131E+02  0.1407E+02
      0.761  0.1715E+02  0.1531E+02
      0.833  0.9291E+01  0.1597E+02
      0.905  0.2589E+01  0.1616E+02
      0.977 -0.5230E+00  0.1612E+02
      1.049 -0.9528E+00  0.1605E+02
      1.121 -0.5243E+00  0.1602E+02
      1.192 -0.1801E+00  0.1600E+02
      1.264 -0.4337E-01  0.1600E+02
      1.336 -0.7632E-02  0.1600E+02
      1.408 -0.1001E-02  0.1600E+02
      1.480 -0.9896E-04  0.1600E+02
      1.552 -0.7425E-05  0.1600E+02
      1.624 -0.4246E-06  0.1600E+02
      1.696 -0.1857E-07  0.1600E+02
      1.767 -0.6227E-09  0.1600E+02
      1.839 -0.1603E-10  0.1600E+02
      1.911 -0.3167E-12  0.1600E+02
      1.983 -0.6180E-14  0.1600E+02
      2.055  0.0000E+00  0.1600E+02
      2.127  0.0000E+00  0.1600E+02
      2.199  0.0000E+00  0.1600E+02
      2.270  0.0000E+00  0.1600E+02
      2.342  0.0000E+00  0.1600E+02
      2.414  0.0000E+00  0.1600E+02
      2.486  0.0000E+00  0.1600E+02
      2.558  0.0000E+00  0.1600E+02
      2.630  0.0000E+00  0.1600E+02
      2.702  0.0000E+00  0.1600E+02
      2.70283999    -18.87254630  301     -8.79494137      1.00000000
    -18.873  0.0000E+00  0.0000E+00
    -18.801  0.0000E+00  0.0000E+00
    -18.729  0.0000E+00  0.0000E+00
    -18.657  0.0000E+00  0.0000E+00
    -18.585  0.0000E+00  0.0000E+00
    -18.513 -0.3905E-27 -0.2808E-28
    -18.441 -0.1192E-24 -0.8602E-26
    -18.369 -0.2811E-22 -0.2030E-23
    -18.297 -0.5105E-20 -0.3692E-21
    -18.225 -0.7136E-18 -0.5169E-19
    -18.153 -0.7677E-16 -0.5573E-17
    -18.081 -0.6353E-14 -0.4625E-15
    -18.010 -0.3918E-12 -0.2864E-13
    -17.938 -0.1906E-10 -0.1400E-11
    -17.866 -0.7111E-09 -0.5254E-10
    -17.794 -0.2031E-07 -0.1513E-08
    -17.722 -0.4430E-06 -0.3337E-07
    -17.650 -0.7364E-05 -0.5630E-06
    -17.578 -0.9291E-04 -0.7245E-05
    -17.506 -0.8847E-03 -0.7087E-04
    -17.434 -0.6302E-02 -0.5241E-03
    -17.362 -0.3309E-01 -0.2904E-02
    -17.290 -0.1246E+00 -0.1186E-01
    -17.218 -0.3156E+00 -0.3456E-01
    -17.147 -0.4320E+00 -0.6563E-01
    -17.075  0.1849E+00 -0.5233E-01
    -17.003  0.2355E+01  0.1170E+00
    -16.931  0.5737E+01  0.5296E+00
    -16.859  0.8147E+01  0.1116E+01
    -16.787  0.7516E+01  0.1656E+01
    -16.715  0.4415E+01  0.1974E+01
    -16.643  0.1324E+01  0.2069E+01
    -16.571 -0.1970E+00  0.2055E+01
    -16.499 -0.4264E+00  0.2024E+01
    -16.427 -0.2338E+00  0.2007E+01
    -16.355 -0.7843E-01  0.2002E+01
    -16.283 -0.1827E-01  0.2000E+01
    -16.212 -0.3090E-02  0.2000E+01
    -16.140 -0.3879E-03  0.2000E+01
    -16.068 -0.3657E-04  0.2000E+01
    -15.996 -0.2608E-05  0.2000E+01
    -15.924 -0.1414E-06  0.2000E+01
    -15.852 -0.5848E-08  0.2000E+01
    -15.780 -0.1849E-09  0.2000E+01
    -15.708 -0.4478E-11  0.2000E+01
    -15.636 -0.8645E-13  0.2000E+01
    -15.564  0.0000E+00  0.2000E+01
    -15.492  0.0000E+00  0.2000E+01
    -15.420  0.0000E+00  0.2000E+01
    -15.349  0.0000E+00  0.2000E+01
    -15.277  0.0000E+00  0.2000E+01
    -15.205  0.0000E+00  0.2000E+01
    -15.133  0.0000E+00  0.2000E+01
    -15.061  0.0000E+00  0.2000E+01
    -14.989  0.0000E+00  0.2000E+01
    -14.917  0.0000E+00  0.2000E+01
    -14.845  0.0000E+00  0.2000E+01
    -14.773  0.0000E+00  0.2000E+01
    -14.701  0.0000E+00  0.2000E+01
    -14.629  0.0000E+00  0.2000E+01
    -14.557  0.0000E+00  0.2000E+01
    -14.486  0.0000E+00  0.2000E+01
    -14.414  0.0000E+00  0.2000E+01
    -14.342  0.0000E+00  0.2000E+01
    -14.270  0.0000E+00  0.2000E+01
    -14.198  0.0000E+00  0.2000E+01
    -14.126  0.0000E+00  0.2000E+01
    -14.054  0.0000E+00  0.2000E+01
    -13.982  0.0000E+00  0.2000E+01
    -13.910  0.0000E+00  0.2000E+01
    -13.838  0.0000E+00  0.2000E+01
    -13.766  0.0000E+00  0.2000E+01
    -13.694  0.0000E+00  0.2000E+01
    -13.623  0.0000E+00  0.2000E+01
    -13.551  0.0000E+00  0.2000E+01
    -13.479  0.0000E+00  0.2000E+01
    -13.407  0.0000E+00  0.2000E+01
    -13.335  0.0000E+00  0.2000E+01
    -13.263  0.0000E+00  0.2000E+01
    -13.191  0.0000E+00  0.2000E+01
    -13.119  0.0000E+00  0.2000E+01
    -13.047  0.0000E+00  0.2000E+01
    -12.975  0.0000E+00  0.2000E+01
    -12.903  0.0000E+00  0.2000E+01
    -12.831  0.0000E+00  0.2000E+01
    -12.760  0.0000E+00  0.2000E+01
    -12.688  0.0000E+00  0.2000E+01
    -12.616  0.0000E+00  0.2000E+01
    -12.544  0.0000E+00  0.2000E+01
    -12.472  0.0000E+00  0.2000E+01
    -12.400  0.0000E+00  0.2000E+01
    -12.328  0.0000E+00  0.2000E+01
    -12.256  0.0000E+00  0.2000E+01
    -12.184  0.0000E+00  0.2000E+01
    -12.112  0.0000E+00  0.2000E+01
    -12.040  0.0000E+00  0.2000E+01
    -11.968  0.0000E+00  0.2000E+01
    -11.897  0.0000E+00  0.2000E+01
    -11.825  0.0000E+00  0.2000E+01
    -11.753  0.0000E+00  0.2000E+01
    -11.681  0.0000E+00  0.2000E+01
    -11.609  0.0000E+00  0.2000E+01
    -11.537  0.0000E+00  0.2000E+01
    -11.465  0.0000E+00  0.2000E+01
    -11.393  0.0000E+00  0.2000E+01
    -11.321  0.0000E+00  0.2000E+01
    -11.249  0.0000E+00  0.2000E+01
    -11.177  0.0000E+00  0.2000E+01
    -11.105 -0.7172E-27  0.2000E+01
    -11.033 -0.2132E-24  0.2000E+01
    -10.962 -0.4892E-22  0.2000E+01
    -10.890 -0.8647E-20  0.2000E+01
    -10.818 -0.1177E-17  0.2000E+01
    -10.746 -0.1232E-15  0.2000E+01
    -10.674 -0.9929E-14  0.2000E+01
    -10.602 -0.5962E-12  0.2000E+01
    -10.530 -0.2825E-10  0.2000E+01
    -10.458 -0.1027E-08  0.2000E+01
    -10.386 -0.2859E-07  0.2000E+01
    -10.314 -0.6089E-06  0.2000E+01
    -10.242 -0.9895E-05  0.2000E+01
    -10.170 -0.1223E-03  0.2000E+01
    -10.099 -0.1145E-02  0.2000E+01
    -10.027 -0.8066E-02  0.1999E+01
     -9.955 -0.4224E-01  0.1996E+01
     -9.883 -0.1610E+00  0.1985E+01
     -9.811 -0.4252E+00  0.1954E+01
     -9.739 -0.6692E+00  0.1906E+01
     -9.667 -0.1047E+00  0.1898E+01
     -9.595  0.2543E+01  0.2081E+01
     -9.523  0.7605E+01  0.2628E+01
     -9.451  0.1292E+02  0.3557E+01
     -9.379  0.1484E+02  0.4624E+01
     -9.307  0.1178E+02  0.5471E+01
     -9.236  0.6107E+01  0.5910E+01
     -9.164  0.2057E+01  0.6058E+01
     -9.092  0.2090E+01  0.6209E+01
     -9.020  0.5160E+01  0.6580E+01
     -8.948  0.7804E+01  0.7141E+01
     -8.876  0.7338E+01  0.7669E+01
     -8.804  0.4306E+01  0.7978E+01
     -8.732  0.1266E+01  0.8069E+01
     -8.660 -0.2135E+00  0.8054E+01
     -8.588 -0.4241E+00  0.8023E+01
     -8.516 -0.2293E+00  0.8007E+01
     -8.444 -0.7623E-01  0.8002E+01
     -8.373 -0.1762E-01  0.8000E+01
     -8.301 -0.2961E-02  0.8000E+01
     -8.229 -0.3693E-03  0.8000E+01
     -8.157 -0.3460E-04  0.8000E+01
     -8.085 -0.2453E-05  0.8000E+01
     -8.013 -0.1322E-06  0.8000E+01
     -7.941 -0.5435E-08  0.8000E+01
     -7.869 -0.1709E-09  0.8000E+01
     -7.797 -0.4113E-11  0.8000E+01
     -7.725 -0.8027E-13  0.8000E+01
     -7.653  0.0000E+00  0.8000E+01
     -7.581  0.0000E+00  0.8000E+01
     -7.510  0.0000E+00  0.8000E+01
     -7.438  0.0000E+00  0.8000E+01
     -7.366  0.0000E+00  0.8000E+01
     -7.294  0.0000E+00  0.8000E+01
     -7.222  0.0000E+00  0.8000E+01
     -7.150  0.0000E+00  0.8000E+01
     -7.078  0.0000E+00  0.8000E+01
     -7.006  0.0000E+00  0.8000E+01
     -6.934  0.0000E+00  0.8000E+01
     -6.862  0.0000E+00  0.8000E+01
     -6.790  0.0000E+00  0.8000E+01
     -6.718  0.0000E+00  0.8000E+01
     -6.646  0.0000E+00  0.8000E+01
     -6.575  0.0000E+00  0.8000E+01
     -6.503  0.0000E+00  0.8000E+01
     -6.431  0.0000E+00  0.8000E+01
     -6.359  0.0000E+00  0.8000E+01
     -6.287  0.0000E+00  0.8000E+01
     -6.215  0.0000E+00  0.8000E+01
     -6.143  0.0000E+00  0.8000E+01
     -6.071  0.0000E+00  0.8000E+01
     -5.999  0.0000E+00  0.8000E+01
     -5.927  0.0000E+00  0.8000E+01
     -5.855  0.0000E+00  0.8000E+01
     -5.783  0.0000E+00  0.8000E+01
     -5.712  0.0000E+00  0.8000E+01
     -5.640  0.0000E+00  0.8000E+01
     -5.568  0.0000E+00  0.8000E+01
     -5.496  0.0000E+00  0.8000E+01
     -5.424  0.0000E+00  0.8000E+01
     -5.352  0.0000E+00  0.8000E+01
     -5.280  0.0000E+00  0.8000E+01
     -5.208  0.0000E+00  0.8000E+01
     -5.136  0.0000E+00  0.8000E+01
     -5.064  0.0000E+00  0.8000E+01
     -4.992  0.0000E+00  0.8000E+01
     -4.920  0.0000E+00  0.8000E+01
     -4.849  0.0000E+00  0.8000E+01
     -4.777  0.0000E+00  0.8000E+01
     -4.705  0.0000E+00  0.8000E+01
     -4.633  0.0000E+00  0.8000E+01
     -4.561  0.0000E+00  0.8000E+01
     -4.489  0.0000E+00  0.8000E+01
     -4.417  0.0000E+00  0.8000E+01
     -4.345  0.0000E+00  0.8000E+01
     -4.273  0.0000E+00  0.8000E+01
     -4.201  0.0000E+00  0.8000E+01
     -4.129  0.0000E+00  0.8000E+01
     -4.057  0.0000E+00  0.8000E+01
     -3.986  0.0000E+00  0.8000E+01
     -3.914  0.0000E+00  0.8000E+01
     -3.842  0.0000E+00  0.8000E+01
     -3.770  0.0000E+00  0.8000E+01
     -3.698  0.0000E+00  0.8000E+01
     -3.626  0.0000E+00  0.8000E+01
     -3.554  0.0000E+00  0.8000E+01
     -3.482  0.0000E+00  0.8000E+01
     -3.410  0.0000E+00  0.8000E+01
     -3.338  0.0000E+00  0.8000E+01
     -3.266  0.0000E+00  0.8000E+01
     -3.194  0.0000E+00  0.8000E+01
     -3.123  0.0000E+00  0.8000E+01