    5    5    1    1
  0.2027919E+03  0.9905758E-09  0.1009321E-08  0.1014355E-08  0.2000000E-14
   50.000000000000000     
  CAR 
 unknown system                          
      8      4      8

  0.2500000E+00  0.2500000E+00  0.2500000E+00  0.2500000E+00
    1      -16.541784   1.000000
    2       -9.196199   1.006672
    3       -9.004931   1.032555
    4       -8.925660   0.960582
    5       -0.350841   0.000000
    6        0.532170   0.000000
    7        0.659862   0.000000
    8        0.701503   0.000000

 -0.2500000E+00  0.2500000E+00  0.2500000E+00  0.2500000E+00
    1      -16.541715   1.000000
    2       -9.196125   1.006680
    3       -9.004855   1.032536
    4       -8.925802   0.960828
    5       -0.348429   0.000000
    6        0.539636   0.000000
    7        0.640411   0.000000
    8        0.685697   0.000000

  0.2500000E+00 -0.2500000E+00  0.2500000E+00  0.2500000E+00
    1      -16.541698   1.000000
    2       -9.196106   1.006683
    3       -9.004614   1.032476
    4       -8.925856   0.960921
    5       -0.349106   0.000000
    6        0.529496   0.000000
    7        0.651711   0.000000
    8        0.693937   0.000000

 -0.2500000E+00 -0.2500000E+00  0.2500000E+00  0.2500000E+00
    1      -16.541793   1.000000
    2       -9.196244   1.006667
    3       -9.004664   1.032489
    4       -8.925850   0.960911
    5       -0.353092   0.000000
    6        0.547190   0.000000
    7        0.656514   0.000000
    8        0.703116   0.000000
