 vasp.5.4.4.18Apr17-6-g9f103f2a35 (build Jul 12 2018 13:43:46) complex           
 executed on             LinuxGNU date 2019.06.22  02:17:32
 running on    1 total cores
 distrk:  each k-point on    1 cores,    1 groups
 distr:  one band on NCORES_PER_BAND=   1 cores,    1 groups


--------------------------------------------------------------------------------------------------------


 INCAR:
 POTCAR:    PAW_PBE H 15Jun2001                   
 POTCAR:    PAW_PBE C 08Apr2002                   
 POTCAR:    PAW_PBE H 15Jun2001                   
   VRHFIN =H: ultrasoft test                                                    
   LEXCH  = PE                                                                  
   EATOM  =    12.4884 eV,    0.9179 Ry                                         
                                                                                
   TITEL  = PAW_PBE H 15Jun2001                                                 
   LULTRA =        F    use ultrasoft PP ?                                      
   IUNSCR =        0    unscreen: 0-lin 1-nonlin 2-no                           
   RPACOR =    0.000    partial core radius                                     
   POMASS =    1.000; ZVAL   =    1.000    mass and valenz                      
   RCORE  =    1.100    outmost cutoff radius                                   
   RWIGS  =    0.700; RWIGS  =    0.370    wigner-seitz radius (au A)           
   ENMAX  =  250.000; ENMIN  =  200.000 eV                                      
   RCLOC  =    0.701    cutoff for local pot                                    
   LCOR   =        T    correct aug charges                                     
   LPAW   =        T    paw PP                                                  
   EAUG   =  400.000                                                            
   RMAX   =    1.123    core radius for proj-oper                               
   RAUG   =    1.200    factor for augmentation sphere                          
   RDEP   =    1.112    radius for radial grids                                 
   RDEPT  =    0.926    core radius for aug-charge                              
                                                                                
   Atomic configuration                                                         
    2 entries                                                                   
     n  l   j            E        occ.                                          
     1  0  0.50        -6.4927   1.0000                                         
     2  1  0.50        -3.4015   0.0000                                         
   Description                                                                  
     l       E           TYP  RCUT    TYP  RCUT                                 
     0     -6.4927494     23  1.100                                             
     0      6.8029130     23  1.100                                             
     1     -4.0817478     23  1.100                                             
  local pseudopotential read in
  atomic valenz-charges read in
  non local Contribution for L=           0  read in
    real space projection operators read in
  non local Contribution for L=           0  read in
    real space projection operators read in
  non local Contribution for L=           1  read in
    real space projection operators read in
    PAW grid and wavefunctions read in

   number of l-projection  operators is LMAX  =           3
   number of lm-projection operators is LMMAX =           5

 POTCAR:    PAW_PBE C 08Apr2002                   
   VRHFIN =C: s2p2                                                              
   LEXCH  = PE                                                                  
   EATOM  =   147.1560 eV,   10.8157 Ry                                         
                                                                                
   TITEL  = PAW_PBE C 08Apr2002                                                 
   LULTRA =        F    use ultrasoft PP ?                                      
   IUNSCR =        1    unscreen: 0-lin 1-nonlin 2-no                           
   RPACOR =    1.200    partial core radius                                     
   POMASS =   12.011; ZVAL   =    4.000    mass and valenz                      
   RCORE  =    1.500    outmost cutoff radius                                   
   RWIGS  =    1.630; RWIGS  =    0.863    wigner-seitz radius (au A)           
   ENMAX  =  400.000; ENMIN  =  300.000 eV                                      
   ICORE  =        2    local potential                                         
   LCOR   =        T    correct aug charges                                     
   LPAW   =        T    paw PP                                                  
   EAUG   =  644.873                                                            
   DEXC   =    0.000                                                            
   RMAX   =    1.529    core radius for proj-oper                               
   RAUG   =    1.300    factor for augmentation sphere                          
   RDEP   =    1.501    radius for radial grids                                 
   RDEPT  =    1.300    core radius for aug-charge                              
                                                                                
   Atomic configuration                                                         
    4 entries                                                                   
     n  l   j            E        occ.                                          
     1  0  0.50      -273.3789   2.0000                                         
     2  0  0.50       -13.7508   2.0000                                         
     2  1  0.50        -5.2854   2.0000                                         
     3  2  1.50        -5.4423   0.0000                                         
   Description                                                                  
     l       E           TYP  RCUT    TYP  RCUT                                 
     0    -13.7508458     23  1.200                                             
     0     -8.2022199     23  1.200                                             
     1     -5.2854383     23  1.500                                             
     1     34.0145650     23  1.500                                             
     2     -5.4423304      7  1.500                                             
  local pseudopotential read in
  partial core-charges read in
  partial kinetic energy density read in
  atomic valenz-charges read in
  non local Contribution for L=           0  read in
    real space projection operators read in
  non local Contribution for L=           0  read in
    real space projection operators read in
  non local Contribution for L=           1  read in
    real space projection operators read in
  non local Contribution for L=           1  read in
    real space projection operators read in
    PAW grid and wavefunctions read in

   number of l-projection  operators is LMAX  =           4
   number of lm-projection operators is LMMAX =           8


 ----------------------------------------------------------------------------- 
|                                                                             |
|  ADVICE TO THIS USER RUNNING 'VASP/VAMP'   (HEAR YOUR MASTER'S VOICE ...):  |
|                                                                             |
|      You have a (more or less) 'small supercell' and for smaller cells      |
|      it is recommended  to use the reciprocal-space projection scheme!      |
|      The real space optimization is not  efficient for small cells and it   |
|      is also less accurate ...                                              |
|      Therefore set LREAL=.FALSE. in the  INCAR file                         |
|                                                                             |
 ----------------------------------------------------------------------------- 


 ----------------------------------------------------------------------------- 
|                                                                             |
|           W    W    AA    RRRRR   N    N  II  N    N   GGGG   !!!           |
|           W    W   A  A   R    R  NN   N  II  NN   N  G    G  !!!           |
|           W    W  A    A  R    R  N N  N  II  N N  N  G       !!!           |
|           W WW W  AAAAAA  RRRRR   N  N N  II  N  N N  G  GGG   !            |
|           WW  WW  A    A  R   R   N   NN  II  N   NN  G    G                |
|           W    W  A    A  R    R  N    N  II  N    N   GGGG   !!!           |
|                                                                             |
|     The real-space-projection scheme for the treatment of the nonlocal      |
|     pseudopotentials has been switched on -- but on file POTCAR I have      |
|     not found any entries signalling me that you have ever performed a      |
|     real-space optimization of all nonlocal projectors! BE WARNED that      |
|     a calculation using the real-space-projection scheme together with      |
|     nonlocal projectors which were not real-space-optimized (according      |
|     to the plane-wave-cutoff used in this calculation) might give more      |
|     or less inaccurate results                                              |
|     I hope you know what you are doing                                      |
|                                                                             |
 ----------------------------------------------------------------------------- 

  PAW_PBE H 15Jun2001                   :
 energy of atom  1       EATOM=  -12.4884
 kinetic energy error for atom=    0.0098 (will be added to EATOM!!)
  PAW_PBE C 08Apr2002                   :
 energy of atom  2       EATOM= -147.1560
 kinetic energy error for atom=    0.0288 (will be added to EATOM!!)


 POSCAR:  H  C                                   
  positions in cartesian coordinates
  No initial velocities read in
 exchange correlation table for  LEXCH =        8
   RHO(1)=    0.500       N(1)  =     2000
   RHO(2)=  100.500       N(2)  =     4000



--------------------------------------------------------------------------------------------------------


 ion  position               nearest neighbor table
   1  0.538  0.406  0.361-   5 1.10
   2  0.394  0.481  0.438-   5 1.09
   3  0.552  0.566  0.443-   5 1.11
   4  0.528  0.416  0.540-   5 1.12
   5  0.503  0.467  0.445-   2 1.09   1 1.10   3 1.11   4 1.12


IMPORTANT INFORMATION: All symmetrisations will be switched off!
NOSYMM: (Re-)initialisation of all symmetry stuff for point group C_1.




Automatic generation of k-mesh.
 generate k-points for:    2    2    2
Space group operators:
 irot       det(A)        alpha          n_x          n_y          n_z        tau_x        tau_y        tau_z
    1     1.000000     0.000000     1.000000     0.000000     0.000000     0.000000     0.000000     0.000000
 
 Subroutine IBZKPT returns following result:
 ===========================================
 
 Found      4 irreducible k-points:
 
 Following reciprocal coordinates:
            Coordinates               Weight
  0.250000  0.250000  0.250000      2.000000
 -0.250000  0.250000  0.250000      2.000000
  0.250000 -0.250000  0.250000      2.000000
 -0.250000 -0.250000  0.250000      2.000000
 
 Following cartesian coordinates:
            Coordinates               Weight
  0.025238  0.024307  0.024894      2.000000
 -0.025238  0.025240  0.024738      2.000000
  0.025238 -0.025240  0.024556      2.000000
 -0.025238 -0.024307  0.024399      2.000000
 


--------------------------------------------------------------------------------------------------------




 Dimension of arrays:
   k-points           NKPTS =      4   k-points in BZ     NKDIM =      4   number of bands    NBANDS=      8
   number of dos      NEDOS =    301   number of ions     NIONS =      5
   non local maximal  LDIM  =      4   non local SUM 2l+1 LMDIM =      8
   total plane-waves  NPLWV = 343000
   max r-space proj   IRMAX =    800   max aug-charges    IRDMAX=   4191
   dimension x,y,z NGX =    70 NGY =   70 NGZ =   70
   dimension x,y,z NGXF=   140 NGYF=  140 NGZF=  140
   support grid    NGXF=   140 NGYF=  140 NGZF=  140
   ions per type =               4   1
   NGX,Y,Z   is equivalent  to a cutoff of  11.75, 11.53, 11.47 a.u.
   NGXF,Y,Z  is equivalent  to a cutoff of  23.50, 23.06, 22.95 a.u.

 SYSTEM =  unknown system                          
 POSCAR =   H  C                                   

 Startparameter for this run:
   NWRITE =      2    write-flag & timer
   PREC   = a         normal or accurate (medium, high low for compatibility)
   ISTART =      0    job   : 0-new  1-cont  2-samecut
   ICHARG =      2    charge: 1-file 2-atom 10-const
   ISPIN  =      1    spin polarized calculation?
   LNONCOLLINEAR =      F non collinear calculations
   LSORBIT =      F    spin-orbit coupling
   INIWAV =      1    electr: 0-lowe 1-rand  2-diag
   LASPH  =      F    aspherical Exc in radial PAW
   METAGGA=      F    non-selfconsistent MetaGGA calc.

 Electronic Relaxation 1
   ENCUT  =  400.0 eV  29.40 Ry    5.42 a.u.  16.15 16.46 16.54*2*pi/ulx,y,z
   ENINI  =  400.0     initial cutoff
   ENAUG  =  644.9 eV  augmentation charge cutoff
   NELM   =     60;   NELMIN=  2; NELMDL= -5     # of ELM steps 
   EDIFF  = 0.1E-05   stopping-criterion for ELM
   LREAL  =      T    real-space projection
   NLSPLINE    = F    spline interpolate recip. space projectors
   LCOMPAT=      F    compatible to vasp.4.4
   GGA_COMPAT  = T    GGA compatible to vasp.4.4-vasp.4.6
   LMAXPAW     = -100 max onsite density
   LMAXMIX     =    2 max onsite mixed and CHGCAR
   VOSKOWN=      0    Vosko Wilk Nusair interpolation
   ROPT   =    0.00000   0.00000
 Ionic relaxation
   EDIFFG = 0.1E-04   stopping-criterion for IOM
   NSW    =     10    number of steps for IOM
   NBLOCK =      1;   KBLOCK =      1    inner block; outer block 
   IBRION =      0    ionic relax: 0-MD 1-quasi-New 2-CG
   NFREE  =      0    steps in history (QN), initial steepest desc. (CG)
   ISIF   =      2    stress and relaxation
   IWAVPR =     12    prediction:  0-non 1-charg 2-wave 3-comb
   ISYM   =      0    0-nonsym 1-usesym 2-fastsym
   LCORR  =      T    Harris-Foulkes like correction to forces

   POTIM  = 2.0000    time-step for ionic-motion
   TEIN   =   50.0    initial temperature
   TEBEG  =   50.0;   TEEND  =  50.0 temperature during run
   SMASS  =   0.00    Nose mass-parameter (am)
   estimated Nose-frequenzy (Omega)   =  0.79E+14 period in steps = 40.00 mass=   0.123E-29a.u.
   SCALEE = 1.0000    scale energy and forces
   NPACO  =    256;   APACO  = 16.0  distance and # of slots for P.C.
   PSTRESS=    0.0 pullay stress

  Mass of Ions in am
   POMASS =   1.00 12.01
  Ionic Valenz
   ZVAL   =   1.00  4.00
  Atomic Wigner-Seitz radii
   RWIGS  =  -1.00 -1.00
  virtual crystal weights 
   VCA    =   1.00  1.00
   NELECT =       8.0000    total number of electrons
   NUPDOWN=      -1.0000    fix difference up-down

 DOS related values:
   EMIN   =  10.00;   EMAX   =-10.00  energy-range for DOS
   EFERMI =   0.00
   ISMEAR =     1;   SIGMA  =   0.20  broadening in eV -4-tet -1-fermi 0-gaus

 Electronic relaxation 2 (details)
   IALGO  =     68    algorithm
   LDIAG  =      T    sub-space diagonalisation (order eigenvalues)
   LSUBROT=      F    optimize rotation matrix (better conditioning)
   TURBO    =      0    0=normal 1=particle mesh
   IRESTART =      0    0=no restart 2=restart with 2 vectors
   NREBOOT  =      0    no. of reboots
   NMIN     =      0    reboot dimension
   EREF     =   0.00    reference energy to select bands
   IMIX   =      4    mixing-type and parameters
     AMIX     =   0.40;   BMIX     =  1.00
     AMIX_MAG =   1.60;   BMIX_MAG =  1.00
     AMIN     =   0.10
     WC   =   100.;   INIMIX=   1;  MIXPRE=   1;  MAXMIX=  50

 Intra band minimization:
   WEIMIN = 0.0010     energy-eigenvalue tresh-hold
   EBREAK =  0.31E-07  absolut break condition
   DEPER  =   0.30     relativ break condition  

   TIME   =   0.40     timestep for ELM

  volume/ion in A,a.u.               =     202.79      1368.51
  Fermi-wavevector in a.u.,A,eV,Ry     =   0.325910  0.615881  1.445177  0.106217
  Thomas-Fermi vector in A             =   1.217315

 Write flags
   LWAVE        =      F    write WAVECAR
   LDOWNSAMPLE  =      F    k-point downsampling of WAVECAR
   LCHARG       =      F    write CHGCAR
   LVTOT        =      F    write LOCPOT, total local potential
   LVHAR        =      F    write LOCPOT, Hartree potential only
   LELF         =      F    write electronic localiz. function (ELF)
   LORBIT       =      0    0 simple, 1 ext, 2 COOP (PROOUT), +10 PAW based schemes


 Dipole corrections
   LMONO  =      F    monopole corrections only (constant potential shift)
   LDIPOL =      F    correct potential (dipole corrections)
   IDIPOL =      0    1-x, 2-y, 3-z, 4-all directions 
   EPSILON=  1.0000000 bulk dielectric constant

 Exchange correlation treatment:
   GGA     =    --    GGA type
   LEXCH   =     8    internal setting for exchange type
   VOSKOWN=      0    Vosko Wilk Nusair interpolation
   LHFCALC =     F    Hartree Fock is set to
   LHFONE  =     F    Hartree Fock one center treatment
   AEXX    =    0.0000 exact exchange contribution

 Linear response parameters
   LEPSILON=     F    determine dielectric tensor
   LRPA    =     F    only Hartree local field effects (RPA)
   LNABLA  =     F    use nabla operator in PAW spheres
   LVEL    =     F    velocity operator in full k-point grid
   LINTERFAST=   F  fast interpolation
   KINTER  =     0    interpolate to denser k-point grid
   CSHIFT  =0.1000    complex shift for real part using Kramers Kronig
   OMEGAMAX=  -1.0    maximum frequency
   DEG_THRESHOLD= 0.2000000E-02 threshold for treating states as degnerate
   RTIME   =   -0.100 relaxation time in fs
  (WPLASMAI=    0.000 imaginary part of plasma frequency in eV, 0.658/RTIME)
   DFIELD  = 0.0000000 0.0000000 0.0000000 field for delta impulse in time

 Orbital magnetization related:
   ORBITALMAG=     F  switch on orbital magnetization
   LCHIMAG   =     F  perturbation theory with respect to B field
   DQ        =  0.001000  dq finite difference perturbation B field
   LLRAUG    =     F  two centre corrections for induced B field



--------------------------------------------------------------------------------------------------------


 molecular dynamics for ions
   using nose mass (canonical ensemble)
 charge density and potential will be updated during run
 non-spin polarized calculation
 RMM-DIIS sequential band-by-band and
  variant of blocked Davidson during initial phase
 perform sub-space diagonalisation
    before iterative eigenvector-optimisation
 modified Broyden-mixing scheme, WC =      100.0
 initial mixing is a Kerker type mixing with AMIX =  0.4000 and BMIX =      1.0000
 Hartree-type preconditioning will be used
 using additional bands            4
 real space projection scheme for non local part
 use partial core corrections
 calculate Harris-corrections to forces   (improved forces if not selfconsistent)
 use gradient corrections 
 use of overlap-Matrix (Vanderbilt PP)
 Methfessel and Paxton  Order N= 1 SIGMA  =   0.20


--------------------------------------------------------------------------------------------------------


  energy-cutoff  :      400.00
  volume of cell :     1013.96
      direct lattice vectors                 reciprocal lattice vectors
     9.905758204  0.000000000  0.000000000     0.100951384 -0.001866275  0.000313310
     0.186560020 10.091487756  0.000000000    -0.000000000  0.099093417  0.000676523
    -0.032760510 -0.069249311 10.143260751     0.000000000  0.000000000  0.098587626

  length of vectors
     9.905758204 10.093212064 10.143550039     0.100969119  0.099095726  0.098587626



 k-points in units of 2pi/SCALE and weight: read from INCAR                         
   0.02523785  0.02430679  0.02489436       0.250
  -0.02523785  0.02523992  0.02473771       0.250
   0.02523785 -0.02523992  0.02455610       0.250
  -0.02523785 -0.02430679  0.02439945       0.250

 k-points in reciprocal lattice and weights: read from INCAR                         
   0.25000000  0.25000000  0.25000000       0.250
  -0.25000000  0.25000000  0.25000000       0.250
   0.25000000 -0.25000000  0.25000000       0.250
  -0.25000000 -0.25000000  0.25000000       0.250

 position of ions in fractional coordinates (direct lattice) 
   0.53777834  0.40636306  0.36084851
   0.39424537  0.48062904  0.43814584
   0.55200563  0.56550221  0.44266280
   0.52817585  0.41611025  0.54008403
   0.50310956  0.46711383  0.44546440

 position of ions in cartesian coordinates  (Angst):
   5.39109174  4.07581930  3.66018054
   3.98061159  4.81992081  4.44422746
   5.55903256  5.67610455  4.49004423
   5.29191841  4.16177108  5.47821318
   5.05623281  4.68302541  4.51846157



--------------------------------------------------------------------------------------------------------


 k-point  1 :   0.2500 0.2500 0.2500  plane waves:   18431
 k-point  2 :  -0.2500 0.2500 0.2500  plane waves:   18426
 k-point  3 :   0.2500-0.2500 0.2500  plane waves:   18416
 k-point  4 :  -0.2500-0.2500 0.2500  plane waves:   18435

 maximum and minimum number of plane-waves per node :     18435    18416

 maximum number of plane-waves:     18435
 maximum index in each direction: 
   IXMAX=   16   IYMAX=   16   IZMAX=   16
   IXMIN=  -16   IYMIN=  -16   IZMIN=  -16


 serial   3D FFT for wavefunctions
 parallel 3D FFT for charge:
    minimum data exchange during FFTs selected (reduces bandwidth)


 total amount of memory used by VASP MPI-rank0   303364. kBytes
=======================================================================

   base      :      30000. kBytes
   nonlr-proj:        166. kBytes
   fftplans  :      94700. kBytes
   grid      :     169030. kBytes
   one-center:         15. kBytes
   wavefun   :       9453. kBytes

     INWAV:  cpu time    0.0000: real time    0.0000
 Broyden mixing: mesh for mixing (old mesh)
   NGX = 33   NGY = 33   NGZ = 33
  (NGX  =140   NGY  =140   NGZ  =140)
  gives a total of  35937 points

 initial charge density was supplied:
 charge density of overlapping atoms calculated
 number of electron       8.0000000 magnetization 
 keeping initial charge density in first step


--------------------------------------------------------------------------------------------------------


 Maximum index for non-local projection operator          730
 Maximum index for augmentation-charges         3868 (set IRDMAX)


--------------------------------------------------------------------------------------------------------


 First call to EWALD:  gamma=   0.176
 Maximum number of real-space cells 3x 3x 3
 Maximum number of reciprocal cells 3x 3x 3

    FEWALD:  cpu time    0.0007: real time    0.0007


--------------------------------------- Iteration      1(   1)  ---------------------------------------


    POTLOK:  cpu time    1.7634: real time    1.7678
    SETDIJ:  cpu time    0.0065: real time    0.0066
     EDDAV:  cpu time    3.0979: real time    3.1053
       DOS:  cpu time    0.0003: real time    0.0003
    --------------------------------------------
      LOOP:  cpu time    4.8681: real time    4.8799

 eigenvalue-minimisations  :   104
 total energy-change (2. order) : 0.9647214E+01  (-0.2048907E+03)
 number of electron       8.0000000 magnetization 
 augmentation part        8.0000000 magnetization 

 Free energy of the ion-electron system (eV)
  ---------------------------------------------------
  alpha Z        PSCENC =         0.23891570
  Ewald energy   TEWEN  =       127.39906788
  -Hartree energ DENC   =      -243.56275524
  -exchange      EXHF   =         0.00000000
  -V(xc)+E(xc)   XCENC  =        21.96350359
  PAW double counting   =       117.05815612     -117.66307307
  entropy T*S    EENTRO =         0.00314639
  eigenvalues    EBANDS =       -92.83150214
  atomic energy  EATOM  =       197.04175453
  Solvation  Ediel_sol  =         0.00000000
  ---------------------------------------------------
  free energy    TOTEN  =         9.64721378 eV

  energy without entropy =        9.64406739  energy(sigma->0) =        9.64616498


--------------------------------------------------------------------------------------------------------




--------------------------------------- Iteration      1(   2)  ---------------------------------------


     EDDAV:  cpu time    2.4304: real time    2.4362
       DOS:  cpu time    0.0002: real time    0.0002
    --------------------------------------------
      LOOP:  cpu time    2.4306: real time    2.4364

 eigenvalue-minimisations  :    72
 total energy-change (2. order) :-0.3331126E+02  (-0.3331143E+02)
 number of electron       8.0000000 magnetization 
 augmentation part        8.0000000 magnetization 

 Free energy of the ion-electron system (eV)
  ---------------------------------------------------
  alpha Z        PSCENC =         0.23891570
  Ewald energy   TEWEN  =       127.39906788
  -Hartree energ DENC   =      -243.56275524
  -exchange      EXHF   =         0.00000000
  -V(xc)+E(xc)   XCENC  =        21.96350359
  PAW double counting   =       117.05815612     -117.66307307
  entropy T*S    EENTRO =         0.00289900
  eigenvalues    EBANDS =      -126.14251111
  atomic energy  EATOM  =       197.04175453
  Solvation  Ediel_sol  =         0.00000000
  ---------------------------------------------------
  free energy    TOTEN  =       -23.66404258 eV

  energy without entropy =      -23.66694159  energy(sigma->0) =      -23.66500892


--------------------------------------------------------------------------------------------------------




--------------------------------------- Iteration      1(   3)  ---------------------------------------


     EDDAV:  cpu time    2.2093: real time    2.2146
       DOS:  cpu time    0.0003: real time    0.0003
    --------------------------------------------
      LOOP:  cpu time    2.2096: real time    2.2148

 eigenvalue-minimisations  :    64
 total energy-change (2. order) :-0.3619491E+01  (-0.3634344E+01)
 number of electron       8.0000000 magnetization 
 augmentation part        8.0000000 magnetization 

 Free energy of the ion-electron system (eV)
  ---------------------------------------------------
  alpha Z        PSCENC =         0.23891570
  Ewald energy   TEWEN  =       127.39906788
  -Hartree energ DENC   =      -243.56275524
  -exchange      EXHF   =         0.00000000
  -V(xc)+E(xc)   XCENC  =        21.96350359
  PAW double counting   =       117.05815612     -117.66307307
  entropy T*S    EENTRO =         0.03977618
  eigenvalues    EBANDS =      -129.79887964
  atomic energy  EATOM  =       197.04175453
  Solvation  Ediel_sol  =         0.00000000
  ---------------------------------------------------
  free energy    TOTEN  =       -27.28353393 eV

  energy without entropy =      -27.32331011  energy(sigma->0) =      -27.29679266


--------------------------------------------------------------------------------------------------------




--------------------------------------- Iteration      1(   4)  ---------------------------------------


     EDDAV:  cpu time    3.9621: real time    3.9714
       DOS:  cpu time    0.0002: real time    0.0002
    --------------------------------------------
      LOOP:  cpu time    3.9623: real time    3.9716

 eigenvalue-minimisations  :   128
 total energy-change (2. order) :-0.1455536E+00  (-0.1431754E+00)
 number of electron       8.0000000 magnetization 
 augmentation part        8.0000000 magnetization 

 Free energy of the ion-electron system (eV)
  ---------------------------------------------------
  alpha Z        PSCENC =         0.23891570
  Ewald energy   TEWEN  =       127.39906788
  -Hartree energ DENC   =      -243.56275524
  -exchange      EXHF   =         0.00000000
  -V(xc)+E(xc)   XCENC  =        21.96350359
  PAW double counting   =       117.05815612     -117.66307307
  entropy T*S    EENTRO =         0.03937667
  eigenvalues    EBANDS =      -129.94403372
  atomic energy  EATOM  =       197.04175453
  Solvation  Ediel_sol  =         0.00000000
  ---------------------------------------------------
  free energy    TOTEN  =       -27.42908753 eV

  energy without entropy =      -27.46846420  energy(sigma->0) =      -27.44221308


--------------------------------------------------------------------------------------------------------




--------------------------------------- Iteration      1(   5)  ---------------------------------------


     EDDAV:  cpu time    2.8253: real time    2.8320
       DOS:  cpu time    0.0002: real time    0.0002
    CHARGE:  cpu time    0.2252: real time    0.2258
    MIXING:  cpu time    0.0437: real time    0.0438
    --------------------------------------------
      LOOP:  cpu time    3.0945: real time    3.1018

 eigenvalue-minimisations  :    88
 total energy-change (2. order) :-0.5899041E-04  (-0.5899166E-04)
 number of electron       8.0000002 magnetization 
 augmentation part        0.2219137 magnetization 

 Broyden mixing:
  rms(total) = 0.85923E+00    rms(broyden)= 0.85903E+00
  rms(prec ) = 0.12188E+01
  weight for this iteration     100.00

 Free energy of the ion-electron system (eV)
  ---------------------------------------------------
  alpha Z        PSCENC =         0.23891570
  Ewald energy   TEWEN  =       127.39906788
  -Hartree energ DENC   =      -243.56275524
  -exchange      EXHF   =         0.00000000
  -V(xc)+E(xc)   XCENC  =        21.96350359
  PAW double counting   =       117.05815612     -117.66307307
  entropy T*S    EENTRO =         0.03937635
  eigenvalues    EBANDS =      -129.94409239
  atomic energy  EATOM  =       197.04175453
  Solvation  Ediel_sol  =         0.00000000
  ---------------------------------------------------
  free energy    TOTEN  =       -27.42914652 eV

  energy without entropy =      -27.46852286  energy(sigma->0) =      -27.44227197


--------------------------------------------------------------------------------------------------------




--------------------------------------- Iteration      1(   6)  ---------------------------------------


    POTLOK:  cpu time    1.8793: real time    1.8837
    SETDIJ:  cpu time    0.0065: real time    0.0065
    EDDIAG:  cpu time    0.4700: real time    0.4711
  RMM-DIIS:  cpu time    1.5535: real time    1.5571
    ORTHCH:  cpu time    0.0123: real time    0.0123
       DOS:  cpu time    0.0002: real time    0.0002
    CHARGE:  cpu time    0.2099: real time    0.2104
    MIXING:  cpu time    0.0443: real time    0.0444
    --------------------------------------------
      LOOP:  cpu time    4.1759: real time    4.1858

 eigenvalue-minimisations  :    64
 total energy-change (2. order) : 0.2806823E+01  (-0.5156284E+00)
 number of electron       8.0000001 magnetization 
 augmentation part        0.1954192 magnetization 

 Broyden mixing:
  rms(total) = 0.42197E+00    rms(broyden)= 0.42188E+00
  rms(prec ) = 0.54964E+00
  weight for this iteration     100.00

 eigenvalues of (default mixing * dielectric matrix)
  average eigenvalue GAMMA=   1.2718
  1.2718

 Free energy of the ion-electron system (eV)
  ---------------------------------------------------
  alpha Z        PSCENC =         0.23891570
  Ewald energy   TEWEN  =       127.39906788
  -Hartree energ DENC   =      -262.98967425
  -exchange      EXHF   =         0.00000000
  -V(xc)+E(xc)   XCENC  =        23.14293350
  PAW double counting   =       232.15546864     -232.93136760
  entropy T*S    EENTRO =         0.03768339
  eigenvalues    EBANDS =      -108.71710488
  atomic energy  EATOM  =       197.04175453
  Solvation  Ediel_sol  =         0.00000000
  ---------------------------------------------------
  free energy    TOTEN  =       -24.62232307 eV

  energy without entropy =      -24.66000646  energy(sigma->0) =      -24.63488420


--------------------------------------------------------------------------------------------------------




--------------------------------------- Iteration      1(   7)  ---------------------------------------


    POTLOK:  cpu time    1.8960: real time    1.9004
    SETDIJ:  cpu time    0.0066: real time    0.0066
    EDDIAG:  cpu time    0.4810: real time    0.4821
  RMM-DIIS:  cpu time    1.5338: real time    1.5375
    ORTHCH:  cpu time    0.0120: real time    0.0120
       DOS:  cpu time    0.0002: real time    0.0002
    CHARGE:  cpu time    0.1951: real time    0.1956
    MIXING:  cpu time    0.0440: real time    0.0441
    --------------------------------------------
      LOOP:  cpu time    4.1686: real time    4.1785

 eigenvalue-minimisations  :    64
 total energy-change (2. order) : 0.4681208E+00  (-0.1109695E+00)
 number of electron       8.0000001 magnetization 
 augmentation part        0.1855643 magnetization 

 Broyden mixing:
  rms(total) = 0.23387E+00    rms(broyden)= 0.23380E+00
  rms(prec ) = 0.28649E+00
  weight for this iteration     100.00

 eigenvalues of (default mixing * dielectric matrix)
  average eigenvalue GAMMA=   1.4337
  1.4337  1.4337

 Free energy of the ion-electron system (eV)
  ---------------------------------------------------
  alpha Z        PSCENC =         0.23891570
  Ewald energy   TEWEN  =       127.39906788
  -Hartree energ DENC   =      -274.10785225
  -exchange      EXHF   =         0.00000000
  -V(xc)+E(xc)   XCENC  =        23.96263119
  PAW double counting   =       346.35314620     -347.16522447
  entropy T*S    EENTRO =         0.03898588
  eigenvalues    EBANDS =       -97.91562691
  atomic energy  EATOM  =       197.04175453
  Solvation  Ediel_sol  =         0.00000000
  ---------------------------------------------------
  free energy    TOTEN  =       -24.15420223 eV

  energy without entropy =      -24.19318812  energy(sigma->0) =      -24.16719753


--------------------------------------------------------------------------------------------------------




--------------------------------------- Iteration      1(   8)  ---------------------------------------


    POTLOK:  cpu time    1.9126: real time    1.9171
    SETDIJ:  cpu time    0.0065: real time    0.0065
    EDDIAG:  cpu time    0.4657: real time    0.4668
  RMM-DIIS:  cpu time    1.5507: real time    1.5543
    ORTHCH:  cpu time    0.0131: real time    0.0132
       DOS:  cpu time    0.0002: real time    0.0002
    CHARGE:  cpu time    0.2175: real time    0.2180
    MIXING:  cpu time    0.0462: real time    0.0463
    --------------------------------------------
      LOOP:  cpu time    4.2125: real time    4.2225

 eigenvalue-minimisations  :    64
 total energy-change (2. order) : 0.1144462E+00  (-0.9159010E-02)
 number of electron       8.0000001 magnetization 
 augmentation part        0.1840359 magnetization 

 Broyden mixing:
  rms(total) = 0.11982E+00    rms(broyden)= 0.11977E+00
  rms(prec ) = 0.15907E+00
  weight for this iteration     100.00

 eigenvalues of (default mixing * dielectric matrix)
  average eigenvalue GAMMA=   1.4397
  2.2547  1.4492  0.6151

 Free energy of the ion-electron system (eV)
  ---------------------------------------------------
  alpha Z        PSCENC =         0.23891570
  Ewald energy   TEWEN  =       127.39906788
  -Hartree energ DENC   =      -277.81458858
  -exchange      EXHF   =         0.00000000
  -V(xc)+E(xc)   XCENC  =        24.31417850
  PAW double counting   =       409.95026789     -410.74547695
  entropy T*S    EENTRO =         0.03985066
  eigenvalues    EBANDS =       -94.46372562
  atomic energy  EATOM  =       197.04175453
  Solvation  Ediel_sol  =         0.00000000
  ---------------------------------------------------
  free energy    TOTEN  =       -24.03975599 eV

  energy without entropy =      -24.07960665  energy(sigma->0) =      -24.05303955


--------------------------------------------------------------------------------------------------------




--------------------------------------- Iteration      1(   9)  ---------------------------------------


    POTLOK:  cpu time    1.8939: real time    1.8985
    SETDIJ:  cpu time    0.0065: real time    0.0065
    EDDIAG:  cpu time    0.4656: real time    0.4667
  RMM-DIIS:  cpu time    1.5850: real time    1.5888
    ORTHCH:  cpu time    0.0127: real time    0.0127
       DOS:  cpu time    0.0002: real time    0.0002
    CHARGE:  cpu time    0.2224: real time    0.2229
    MIXING:  cpu time    0.0465: real time    0.0466
    --------------------------------------------
      LOOP:  cpu time    4.2328: real time    4.2429

 eigenvalue-minimisations  :    64
 total energy-change (2. order) : 0.4404353E-01  (-0.5947549E-02)
 number of electron       8.0000001 magnetization 
 augmentation part        0.1835586 magnetization 

 Broyden mixing:
  rms(total) = 0.28987E-01    rms(broyden)= 0.28934E-01
  rms(prec ) = 0.51530E-01
  weight for this iteration     100.00

 eigenvalues of (default mixing * dielectric matrix)
  average eigenvalue GAMMA=   1.2185
  2.2107  1.4253  0.6190  0.6190

 Free energy of the ion-electron system (eV)
  ---------------------------------------------------
  alpha Z        PSCENC =         0.23891570
  Ewald energy   TEWEN  =       127.39906788
  -Hartree energ DENC   =      -280.34395618
  -exchange      EXHF   =         0.00000000
  -V(xc)+E(xc)   XCENC  =        24.55148919
  PAW double counting   =       451.81118272     -452.59262570
  entropy T*S    EENTRO =         0.03545498
  eigenvalues    EBANDS =       -92.13699560
  atomic energy  EATOM  =       197.04175453
  Solvation  Ediel_sol  =         0.00000000
  ---------------------------------------------------
  free energy    TOTEN  =       -23.99571247 eV

  energy without entropy =      -24.03116745  energy(sigma->0) =      -24.00753080


--------------------------------------------------------------------------------------------------------




--------------------------------------- Iteration      1(  10)  ---------------------------------------


    POTLOK:  cpu time    1.9021: real time    1.9066
    SETDIJ:  cpu time    0.0065: real time    0.0066
    EDDIAG:  cpu time    0.4534: real time    0.4545
  RMM-DIIS:  cpu time    1.6447: real time    1.6486
    ORTHCH:  cpu time    0.0123: real time    0.0123
       DOS:  cpu time    0.0002: real time    0.0002
    CHARGE:  cpu time    0.2161: real time    0.2167
    MIXING:  cpu time    0.0471: real time    0.0472
    --------------------------------------------
      LOOP:  cpu time    4.2825: real time    4.2926

 eigenvalue-minimisations  :    64
 total energy-change (2. order) : 0.1915501E-02  (-0.3634181E-03)
 number of electron       8.0000001 magnetization 
 augmentation part        0.1833814 magnetization 

 Broyden mixing:
  rms(total) = 0.18987E-01    rms(broyden)= 0.18976E-01
  rms(prec ) = 0.39288E-01
  weight for this iteration     100.00

 eigenvalues of (default mixing * dielectric matrix)
  average eigenvalue GAMMA=   1.2579
  2.0128  1.5341  1.0508  1.0508  0.6410

 Free energy of the ion-electron system (eV)
  ---------------------------------------------------
  alpha Z        PSCENC =         0.23891570
  Ewald energy   TEWEN  =       127.39906788
  -Hartree energ DENC   =      -280.95500100
  -exchange      EXHF   =         0.00000000
  -V(xc)+E(xc)   XCENC  =        24.57608492
  PAW double counting   =       449.69736053     -450.48132136
  entropy T*S    EENTRO =         0.03547190
  eigenvalues    EBANDS =       -91.54613008
  atomic energy  EATOM  =       197.04175453
  Solvation  Ediel_sol  =         0.00000000
  ---------------------------------------------------
  free energy    TOTEN  =       -23.99379697 eV

  energy without entropy =      -24.02926886  energy(sigma->0) =      -24.00562093


--------------------------------------------------------------------------------------------------------




--------------------------------------- Iteration      1(  11)  ---------------------------------------


    POTLOK:  cpu time    1.8805: real time    1.8850
    SETDIJ:  cpu time    0.0065: real time    0.0065
    EDDIAG:  cpu time    0.4588: real time    0.4599
  RMM-DIIS:  cpu time    1.6646: real time    1.6686
    ORTHCH:  cpu time    0.0120: real time    0.0121
       DOS:  cpu time    0.0002: real time    0.0002
    CHARGE:  cpu time    0.2062: real time    0.2067
    MIXING:  cpu time    0.0470: real time    0.0472
    --------------------------------------------
      LOOP:  cpu time    4.2759: real time    4.2861

 eigenvalue-minimisations  :    64
 total energy-change (2. order) : 0.7780753E-03  (-0.1097783E-02)
 number of electron       8.0000001 magnetization 
 augmentation part        0.1825926 magnetization 

 Broyden mixing:
  rms(total) = 0.16063E-01    rms(broyden)= 0.16057E-01
  rms(prec ) = 0.27998E-01
  weight for this iteration     100.00

 eigenvalues of (default mixing * dielectric matrix)
  average eigenvalue GAMMA=   1.4658
  2.6933  2.6933  1.2895  0.6516  0.7335  0.7335

 Free energy of the ion-electron system (eV)
  ---------------------------------------------------
  alpha Z        PSCENC =         0.23891570
  Ewald energy   TEWEN  =       127.39906788
  -Hartree energ DENC   =      -282.28626435
  -exchange      EXHF   =         0.00000000
  -V(xc)+E(xc)   XCENC  =        24.62430883
  PAW double counting   =       443.24189956     -444.02874368
  entropy T*S    EENTRO =         0.03554802
  eigenvalues    EBANDS =       -90.25950538
  atomic energy  EATOM  =       197.04175453
  Solvation  Ediel_sol  =         0.00000000
  ---------------------------------------------------
  free energy    TOTEN  =       -23.99301889 eV

  energy without entropy =      -24.02856691  energy(sigma->0) =      -24.00486823


--------------------------------------------------------------------------------------------------------




--------------------------------------- Iteration      1(  12)  ---------------------------------------


    POTLOK:  cpu time    1.7803: real time    1.7845
    SETDIJ:  cpu time    0.0065: real time    0.0065
    EDDIAG:  cpu time    0.4733: real time    0.4744
  RMM-DIIS:  cpu time    1.6577: real time    1.6617
    ORTHCH:  cpu time    0.0124: real time    0.0124
       DOS:  cpu time    0.0002: real time    0.0002
    CHARGE:  cpu time    0.2185: real time    0.2190
    MIXING:  cpu time    0.0509: real time    0.0511
    --------------------------------------------
      LOOP:  cpu time    4.1997: real time    4.2097

 eigenvalue-minimisations  :    64
 total energy-change (2. order) : 0.4856112E-02  (-0.2526594E-03)
 number of electron       8.0000001 magnetization 
 augmentation part        0.1824686 magnetization 

 Broyden mixing:
  rms(total) = 0.15263E-01    rms(broyden)= 0.15259E-01
  rms(prec ) = 0.21585E-01
  weight for this iteration     100.00

 eigenvalues of (default mixing * dielectric matrix)
  average eigenvalue GAMMA=   1.4169
  2.9293  2.4197  1.1591  1.1591  1.0383  0.6171  0.5959

 Free energy of the ion-electron system (eV)
  ---------------------------------------------------
  alpha Z        PSCENC =         0.23891570
  Ewald energy   TEWEN  =       127.39906788
  -Hartree energ DENC   =      -283.12982502
  -exchange      EXHF   =         0.00000000
  -V(xc)+E(xc)   XCENC  =        24.65968487
  PAW double counting   =       440.06321942     -440.84773816
  entropy T*S    EENTRO =         0.03558743
  eigenvalues    EBANDS =       -89.44882943
  atomic energy  EATOM  =       197.04175453
  Solvation  Ediel_sol  =         0.00000000
  ---------------------------------------------------
  free energy    TOTEN  =       -23.98816278 eV

  energy without entropy =      -24.02375021  energy(sigma->0) =      -24.00002526


--------------------------------------------------------------------------------------------------------




--------------------------------------- Iteration      1(  13)  ---------------------------------------


    POTLOK:  cpu time    1.7682: real time    1.7724
    SETDIJ:  cpu time    0.0065: real time    0.0066
    EDDIAG:  cpu time    0.4851: real time    0.4862
  RMM-DIIS:  cpu time    1.6120: real time    1.6158
    ORTHCH:  cpu time    0.0119: real time    0.0119
       DOS:  cpu time    0.0002: real time    0.0002
    CHARGE:  cpu time    0.2240: real time    0.2245
    MIXING:  cpu time    0.0505: real time    0.0506
    --------------------------------------------
      LOOP:  cpu time    4.1583: real time    4.1682

 eigenvalue-minimisations  :    64
 total energy-change (2. order) :-0.2367711E-02  (-0.3055603E-03)
 number of electron       8.0000001 magnetization 
 augmentation part        0.1827208 magnetization 

 Broyden mixing:
  rms(total) = 0.66674E-02    rms(broyden)= 0.66622E-02
  rms(prec ) = 0.11920E-01
  weight for this iteration     100.00

 eigenvalues of (default mixing * dielectric matrix)
  average eigenvalue GAMMA=   1.4506
  3.3559  2.0530  2.0530  1.3839  0.9710  0.6362  0.6362  0.5159

 Free energy of the ion-electron system (eV)
  ---------------------------------------------------
  alpha Z        PSCENC =         0.23891570
  Ewald energy   TEWEN  =       127.39906788
  -Hartree energ DENC   =      -283.11793489
  -exchange      EXHF   =         0.00000000
  -V(xc)+E(xc)   XCENC  =        24.66277074
  PAW double counting   =       442.98651562     -443.76744437
  entropy T*S    EENTRO =         0.03553653
  eigenvalues    EBANDS =       -89.46971224
  atomic energy  EATOM  =       197.04175453
  Solvation  Ediel_sol  =         0.00000000
  ---------------------------------------------------
  free energy    TOTEN  =       -23.99053049 eV

  energy without entropy =      -24.02606702  energy(sigma->0) =      -24.00237600


--------------------------------------------------------------------------------------------------------




--------------------------------------- Iteration      1(  14)  ---------------------------------------


    POTLOK:  cpu time    1.7310: real time    1.7351
    SETDIJ:  cpu time    0.0067: real time    0.0067
    EDDIAG:  cpu time    0.4831: real time    0.4842
  RMM-DIIS:  cpu time    1.6149: real time    1.6187
    ORTHCH:  cpu time    0.0123: real time    0.0124
       DOS:  cpu time    0.0002: real time    0.0002
    CHARGE:  cpu time    0.2206: real time    0.2211
    MIXING:  cpu time    0.0511: real time    0.0513
    --------------------------------------------
      LOOP:  cpu time    4.1200: real time    4.1297

 eigenvalue-minimisations  :    64
 total energy-change (2. order) :-0.4392114E-02  (-0.1478676E-03)
 number of electron       8.0000001 magnetization 
 augmentation part        0.1828423 magnetization 

 Broyden mixing:
  rms(total) = 0.11658E-01    rms(broyden)= 0.11654E-01
  rms(prec ) = 0.15230E-01
  weight for this iteration     100.00

 eigenvalues of (default mixing * dielectric matrix)
  average eigenvalue GAMMA=   1.6297
  4.5773  2.8333  2.1103  1.2115  1.2115  1.0047  0.6105  0.6105  0.4981

 Free energy of the ion-electron system (eV)
  ---------------------------------------------------
  alpha Z        PSCENC =         0.23891570
  Ewald energy   TEWEN  =       127.39906788
  -Hartree energ DENC   =      -283.27232640
  -exchange      EXHF   =         0.00000000
  -V(xc)+E(xc)   XCENC  =        24.66571990
  PAW double counting   =       443.73669019     -444.51645879
  entropy T*S    EENTRO =         0.03545482
  eigenvalues    EBANDS =       -89.32374044
  atomic energy  EATOM  =       197.04175453
  Solvation  Ediel_sol  =         0.00000000
  ---------------------------------------------------
  free energy    TOTEN  =       -23.99492260 eV

  energy without entropy =      -24.03037742  energy(sigma->0) =      -24.00674088


--------------------------------------------------------------------------------------------------------




--------------------------------------- Iteration      1(  15)  ---------------------------------------


    POTLOK:  cpu time    1.6839: real time    1.6879
    SETDIJ:  cpu time    0.0065: real time    0.0065
    EDDIAG:  cpu time    0.4733: real time    0.4745
  RMM-DIIS:  cpu time    1.6270: real time    1.6309
    ORTHCH:  cpu time    0.0119: real time    0.0119
       DOS:  cpu time    0.0002: real time    0.0002
    CHARGE:  cpu time    0.2083: real time    0.2088
    MIXING:  cpu time    0.0550: real time    0.0552
    --------------------------------------------
      LOOP:  cpu time    4.0662: real time    4.0758

 eigenvalue-minimisations  :    64
 total energy-change (2. order) :-0.3149245E-02  (-0.2353382E-03)
 number of electron       8.0000001 magnetization 
 augmentation part        0.1825836 magnetization 

 Broyden mixing:
  rms(total) = 0.46460E-02    rms(broyden)= 0.46442E-02
  rms(prec ) = 0.65014E-02
  weight for this iteration     100.00

 eigenvalues of (default mixing * dielectric matrix)
  average eigenvalue GAMMA=   1.8594
  4.6682  3.6119  2.6793  2.6793  1.1289  1.1289  0.9683  0.6162  0.6162  0.4970

 Free energy of the ion-electron system (eV)
  ---------------------------------------------------
  alpha Z        PSCENC =         0.23891570
  Ewald energy   TEWEN  =       127.39906788
  -Hartree energ DENC   =      -283.46022840
  -exchange      EXHF   =         0.00000000
  -V(xc)+E(xc)   XCENC  =        24.65950570
  PAW double counting   =       440.41764080     -441.20097940
  entropy T*S    EENTRO =         0.03545073
  eigenvalues    EBANDS =       -89.12919939
  atomic energy  EATOM  =       197.04175453
  Solvation  Ediel_sol  =         0.00000000
  ---------------------------------------------------
  free energy    TOTEN  =       -23.99807185 eV

  energy without entropy =      -24.03352258  energy(sigma->0) =      -24.00988876


--------------------------------------------------------------------------------------------------------




--------------------------------------- Iteration      1(  16)  ---------------------------------------


    POTLOK:  cpu time    1.6844: real time    1.6884
    SETDIJ:  cpu time    0.0066: real time    0.0066
    EDDIAG:  cpu time    0.4557: real time    0.4568
  RMM-DIIS:  cpu time    1.6564: real time    1.6604
    ORTHCH:  cpu time    0.0120: real time    0.0121
       DOS:  cpu time    0.0002: real time    0.0002
    CHARGE:  cpu time    0.2255: real time    0.2260
    MIXING:  cpu time    0.0542: real time    0.0543
    --------------------------------------------
      LOOP:  cpu time    4.0950: real time    4.1047

 eigenvalue-minimisations  :    64
 total energy-change (2. order) :-0.2603279E-02  (-0.8654388E-04)
 number of electron       8.0000001 magnetization 
 augmentation part        0.1825301 magnetization 

 Broyden mixing:
  rms(total) = 0.10104E-01    rms(broyden)= 0.10097E-01
  rms(prec ) = 0.12786E-01
  weight for this iteration     100.00

 eigenvalues of (default mixing * dielectric matrix)
  average eigenvalue GAMMA=   1.7678
  5.6732  3.4173  2.4661  2.0167  1.2145  1.2145  0.9927  0.4964  0.6710  0.6710
  0.6119

 Free energy of the ion-electron system (eV)
  ---------------------------------------------------
  alpha Z        PSCENC =         0.23891570
  Ewald energy   TEWEN  =       127.39906788
  -Hartree energ DENC   =      -283.39640733
  -exchange      EXHF   =         0.00000000
  -V(xc)+E(xc)   XCENC  =        24.64984524
  PAW double counting   =       440.16427846     -440.94764153
  entropy T*S    EENTRO =         0.03563297
  eigenvalues    EBANDS =       -89.18612106
  atomic energy  EATOM  =       197.04175453
  Solvation  Ediel_sol  =         0.00000000
  ---------------------------------------------------
  free energy    TOTEN  =       -24.00067513 eV

  energy without entropy =      -24.03630809  energy(sigma->0) =      -24.01255278


--------------------------------------------------------------------------------------------------------




--------------------------------------- Iteration      1(  17)  ---------------------------------------


    POTLOK:  cpu time    1.6459: real time    1.6500
    SETDIJ:  cpu time    0.0065: real time    0.0066
    EDDIAG:  cpu time    0.4676: real time    0.4687
  RMM-DIIS:  cpu time    1.6595: real time    1.6634
    ORTHCH:  cpu time    0.0123: real time    0.0124
       DOS:  cpu time    0.0003: real time    0.0003
    CHARGE:  cpu time    0.2291: real time    0.2297
    MIXING:  cpu time    0.0567: real time    0.0569
    --------------------------------------------
      LOOP:  cpu time    4.0781: real time    4.0878

 eigenvalue-minimisations  :    64
 total energy-change (2. order) : 0.1555561E-03  (-0.2012406E-04)
 number of electron       8.0000001 magnetization 
 augmentation part        0.1825699 magnetization 

 Broyden mixing:
  rms(total) = 0.32870E-02    rms(broyden)= 0.32850E-02
  rms(prec ) = 0.43520E-02
  weight for this iteration     100.00

 eigenvalues of (default mixing * dielectric matrix)
  average eigenvalue GAMMA=   1.8505
  6.2860  4.0707  2.5075  2.1721  1.2222  1.2222  1.0210  1.0210  0.9297  0.6184
  0.6397  0.4959

 Free energy of the ion-electron system (eV)
  ---------------------------------------------------
  alpha Z        PSCENC =         0.23891570
  Ewald energy   TEWEN  =       127.39906788
  -Hartree energ DENC   =      -283.40229614
  -exchange      EXHF   =         0.00000000
  -V(xc)+E(xc)   XCENC  =        24.65379277
  PAW double counting   =       441.53199227     -442.31423391
  entropy T*S    EENTRO =         0.03553093
  eigenvalues    EBANDS =       -89.18504361
  atomic energy  EATOM  =       197.04175453
  Solvation  Ediel_sol  =         0.00000000
  ---------------------------------------------------
  free energy    TOTEN  =       -24.00051957 eV

  energy without entropy =      -24.03605050  energy(sigma->0) =      -24.01236322


--------------------------------------------------------------------------------------------------------




--------------------------------------- Iteration      1(  18)  ---------------------------------------


    POTLOK:  cpu time    1.6212: real time    1.6250
    SETDIJ:  cpu time    0.0065: real time    0.0066
    EDDIAG:  cpu time    0.4666: real time    0.4677
  RMM-DIIS:  cpu time    1.6353: real time    1.6392
    ORTHCH:  cpu time    0.0127: real time    0.0127
       DOS:  cpu time    0.0002: real time    0.0002
    CHARGE:  cpu time    0.2208: real time    0.2213
    MIXING:  cpu time    0.0537: real time    0.0538
    --------------------------------------------
      LOOP:  cpu time    4.0171: real time    4.0266

 eigenvalue-minimisations  :    64
 total energy-change (2. order) :-0.3290154E-03  (-0.7174816E-05)
 number of electron       8.0000001 magnetization 
 augmentation part        0.1826084 magnetization 

 Broyden mixing:
  rms(total) = 0.18701E-02    rms(broyden)= 0.18677E-02
  rms(prec ) = 0.25490E-02
  weight for this iteration     100.00

 eigenvalues of (default mixing * dielectric matrix)
  average eigenvalue GAMMA=   1.9444
  7.2324  4.4635  2.5988  2.5080  1.4606  1.2833  1.2833  1.0351  0.9428  0.4956
  0.6092  0.6827  0.6827

 Free energy of the ion-electron system (eV)
  ---------------------------------------------------
  alpha Z        PSCENC =         0.23891570
  Ewald energy   TEWEN  =       127.39906788
  -Hartree energ DENC   =      -283.38185064
  -exchange      EXHF   =         0.00000000
  -V(xc)+E(xc)   XCENC  =        24.65262887
  PAW double counting   =       441.65211673     -442.43404688
  entropy T*S    EENTRO =         0.03549597
  eigenvalues    EBANDS =       -89.20493074
  atomic energy  EATOM  =       197.04175453
  Solvation  Ediel_sol  =         0.00000000
  ---------------------------------------------------
  free energy    TOTEN  =       -24.00084859 eV

  energy without entropy =      -24.03634455  energy(sigma->0) =      -24.01268058


--------------------------------------------------------------------------------------------------------




--------------------------------------- Iteration      1(  19)  ---------------------------------------


    POTLOK:  cpu time    1.6097: real time    1.6135
    SETDIJ:  cpu time    0.0066: real time    0.0066
    EDDIAG:  cpu time    0.4829: real time    0.4841
  RMM-DIIS:  cpu time    1.6212: real time    1.6251
    ORTHCH:  cpu time    0.0119: real time    0.0119
       DOS:  cpu time    0.0002: real time    0.0002
    CHARGE:  cpu time    0.2093: real time    0.2098
    MIXING:  cpu time    0.0541: real time    0.0543
    --------------------------------------------
      LOOP:  cpu time    3.9960: real time    4.0055

 eigenvalue-minimisations  :    64
 total energy-change (2. order) :-0.1239028E-03  (-0.2958994E-05)
 number of electron       8.0000001 magnetization 
 augmentation part        0.1825736 magnetization 

 Broyden mixing:
  rms(total) = 0.47675E-03    rms(broyden)= 0.47186E-03
  rms(prec ) = 0.62437E-03
  weight for this iteration     100.00

 eigenvalues of (default mixing * dielectric matrix)
  average eigenvalue GAMMA=   2.0618
  7.6155  4.1000  3.7503  2.5000  2.5000  1.2633  1.2633  1.3346  1.0149  1.0149
  0.4956  0.6106  0.6686  0.7335

 Free energy of the ion-electron system (eV)
  ---------------------------------------------------
  alpha Z        PSCENC =         0.23891570
  Ewald energy   TEWEN  =       127.39906788
  -Hartree energ DENC   =      -283.41930655
  -exchange      EXHF   =         0.00000000
  -V(xc)+E(xc)   XCENC  =        24.65400793
  PAW double counting   =       441.47358350     -442.25586066
  entropy T*S    EENTRO =         0.03547780
  eigenvalues    EBANDS =       -89.16861262
  atomic energy  EATOM  =       197.04175453
  Solvation  Ediel_sol  =         0.00000000
  ---------------------------------------------------
  free energy    TOTEN  =       -24.00097249 eV

  energy without entropy =      -24.03645029  energy(sigma->0) =      -24.01279842


--------------------------------------------------------------------------------------------------------




--------------------------------------- Iteration      1(  20)  ---------------------------------------


    POTLOK:  cpu time    1.6730: real time    1.6770
    SETDIJ:  cpu time    0.0065: real time    0.0065
    EDDIAG:  cpu time    0.4745: real time    0.4756
  RMM-DIIS:  cpu time    1.4989: real time    1.5025
    ORTHCH:  cpu time    0.0117: real time    0.0117
       DOS:  cpu time    0.0002: real time    0.0002
    CHARGE:  cpu time    0.1832: real time    0.1837
    MIXING:  cpu time    0.0553: real time    0.0554
    --------------------------------------------
      LOOP:  cpu time    3.9033: real time    3.9125

 eigenvalue-minimisations  :    60
 total energy-change (2. order) :-0.6221339E-04  (-0.2534732E-06)
 number of electron       8.0000001 magnetization 
 augmentation part        0.1825662 magnetization 

 Broyden mixing:
  rms(total) = 0.35317E-03    rms(broyden)= 0.35293E-03
  rms(prec ) = 0.46575E-03
  weight for this iteration     100.00

 eigenvalues of (default mixing * dielectric matrix)
  average eigenvalue GAMMA=   2.0293
  7.9905  4.8541  3.4264  2.4442  2.4442  1.2840  1.2840  1.3304  1.0297  1.0297
  0.4957  0.7773  0.7773  0.6618  0.6104

 Free energy of the ion-electron system (eV)
  ---------------------------------------------------
  alpha Z        PSCENC =         0.23891570
  Ewald energy   TEWEN  =       127.39906788
  -Hartree energ DENC   =      -283.42852937
  -exchange      EXHF   =         0.00000000
  -V(xc)+E(xc)   XCENC  =        24.65477659
  PAW double counting   =       441.47026356     -442.25251254
  entropy T*S    EENTRO =         0.03548351
  eigenvalues    EBANDS =       -89.16025458
  atomic energy  EATOM  =       197.04175453
  Solvation  Ediel_sol  =         0.00000000
  ---------------------------------------------------
  free energy    TOTEN  =       -24.00103470 eV

  energy without entropy =      -24.03651822  energy(sigma->0) =      -24.01286254


--------------------------------------------------------------------------------------------------------




--------------------------------------- Iteration      1(  21)  ---------------------------------------


    POTLOK:  cpu time    1.6955: real time    1.6995
    SETDIJ:  cpu time    0.0065: real time    0.0065
    EDDIAG:  cpu time    0.4423: real time    0.4433
  RMM-DIIS:  cpu time    1.2207: real time    1.2236
    ORTHCH:  cpu time    0.0125: real time    0.0125
       DOS:  cpu time    0.0002: real time    0.0002
    CHARGE:  cpu time    0.2011: real time    0.2016
    MIXING:  cpu time    0.0595: real time    0.0596
    --------------------------------------------
      LOOP:  cpu time    3.6382: real time    3.6468

 eigenvalue-minimisations  :    48
 total energy-change (2. order) :-0.7419807E-05  (-0.9567180E-07)
 number of electron       8.0000001 magnetization 
 augmentation part        0.1825683 magnetization 

 Broyden mixing:
  rms(total) = 0.24558E-03    rms(broyden)= 0.24519E-03
  rms(prec ) = 0.32885E-03
  weight for this iteration     100.00

 eigenvalues of (default mixing * dielectric matrix)
  average eigenvalue GAMMA=   2.0925
  8.4687  5.2892  3.7434  2.6834  2.3393  1.4579  1.4579  1.2398  1.2398  1.0855
  0.9816  0.9816  0.7369  0.6684  0.6102  0.4957

 Free energy of the ion-electron system (eV)
  ---------------------------------------------------
  alpha Z        PSCENC =         0.23891570
  Ewald energy   TEWEN  =       127.39906788
  -Hartree energ DENC   =      -283.42417384
  -exchange      EXHF   =         0.00000000
  -V(xc)+E(xc)   XCENC  =        24.65462033
  PAW double counting   =       441.49920169     -442.28139412
  entropy T*S    EENTRO =         0.03548035
  eigenvalues    EBANDS =       -89.16451464
  atomic energy  EATOM  =       197.04175453
  Solvation  Ediel_sol  =         0.00000000
  ---------------------------------------------------
  free energy    TOTEN  =       -24.00104212 eV

  energy without entropy =      -24.03652247  energy(sigma->0) =      -24.01286891


--------------------------------------------------------------------------------------------------------




--------------------------------------- Iteration      1(  22)  ---------------------------------------


    POTLOK:  cpu time    1.7303: real time    1.7344
    SETDIJ:  cpu time    0.0065: real time    0.0065
    EDDIAG:  cpu time    0.4438: real time    0.4448
  RMM-DIIS:  cpu time    1.2459: real time    1.2489
    ORTHCH:  cpu time    0.0119: real time    0.0119
       DOS:  cpu time    0.0002: real time    0.0002
    CHARGE:  cpu time    0.2134: real time    0.2139
    MIXING:  cpu time    0.0619: real time    0.0620
    --------------------------------------------
      LOOP:  cpu time    3.7138: real time    3.7226

 eigenvalue-minimisations  :    48
 total energy-change (2. order) :-0.5375033E-05  (-0.4329614E-07)
 number of electron       8.0000001 magnetization 
 augmentation part        0.1825716 magnetization 

 Broyden mixing:
  rms(total) = 0.10311E-03    rms(broyden)= 0.10275E-03
  rms(prec ) = 0.13831E-03
  weight for this iteration     100.00

 eigenvalues of (default mixing * dielectric matrix)
  average eigenvalue GAMMA=   2.0610
  8.5643  5.2887  3.9723  2.5571  2.4676  1.6449  1.6449  1.1991  1.1991  1.1012
  1.1012  0.9879  0.4957  0.6100  0.6693  0.7338  0.7996

 Free energy of the ion-electron system (eV)
  ---------------------------------------------------
  alpha Z        PSCENC =         0.23891570
  Ewald energy   TEWEN  =       127.39906788
  -Hartree energ DENC   =      -283.42184608
  -exchange      EXHF   =         0.00000000
  -V(xc)+E(xc)   XCENC  =        24.65443734
  PAW double counting   =       441.48609470     -442.26827476
  entropy T*S    EENTRO =         0.03548250
  eigenvalues    EBANDS =       -89.16667933
  atomic energy  EATOM  =       197.04175453
  Solvation  Ediel_sol  =         0.00000000
  ---------------------------------------------------
  free energy    TOTEN  =       -24.00104750 eV

  energy without entropy =      -24.03653000  energy(sigma->0) =      -24.01287500


--------------------------------------------------------------------------------------------------------




--------------------------------------- Iteration      1(  23)  ---------------------------------------


    POTLOK:  cpu time    1.7341: real time    1.7382
    SETDIJ:  cpu time    0.0067: real time    0.0067
    EDDIAG:  cpu time    0.4644: real time    0.4655
  RMM-DIIS:  cpu time    1.2260: real time    1.2289
    ORTHCH:  cpu time    0.0126: real time    0.0127
       DOS:  cpu time    0.0002: real time    0.0002
    CHARGE:  cpu time    0.2085: real time    0.2090
    MIXING:  cpu time    0.0634: real time    0.0635
    --------------------------------------------
      LOOP:  cpu time    3.7158: real time    3.7246

 eigenvalue-minimisations  :    48
 total energy-change (2. order) :-0.1196199E-05  (-0.8728499E-08)
 number of electron       8.0000001 magnetization 
 augmentation part        0.1825725 magnetization 

 Broyden mixing:
  rms(total) = 0.55552E-04    rms(broyden)= 0.55471E-04
  rms(prec ) = 0.72095E-04
  weight for this iteration     100.00

 eigenvalues of (default mixing * dielectric matrix)
  average eigenvalue GAMMA=   2.0864
  8.5754  5.3861  4.0730  2.6560  2.6560  2.1345  1.7840  1.4071  1.2496  1.2496
  0.4957  1.0983  0.9742  0.9742  0.6101  0.6704  0.7238  0.8379

 Free energy of the ion-electron system (eV)
  ---------------------------------------------------
  alpha Z        PSCENC =         0.23891570
  Ewald energy   TEWEN  =       127.39906788
  -Hartree energ DENC   =      -283.42228563
  -exchange      EXHF   =         0.00000000
  -V(xc)+E(xc)   XCENC  =        24.65446189
  PAW double counting   =       441.49560462     -442.27778197
  entropy T*S    EENTRO =         0.03548127
  eigenvalues    EBANDS =       -89.16626698
  atomic energy  EATOM  =       197.04175453
  Solvation  Ediel_sol  =         0.00000000
  ---------------------------------------------------
  free energy    TOTEN  =       -24.00104870 eV

  energy without entropy =      -24.03652996  energy(sigma->0) =      -24.01287578


--------------------------------------------------------------------------------------------------------




--------------------------------------- Iteration      1(  24)  ---------------------------------------


    POTLOK:  cpu time    1.7940: real time    1.7983
    SETDIJ:  cpu time    0.0065: real time    0.0065
    EDDIAG:  cpu time    0.4663: real time    0.4675
  RMM-DIIS:  cpu time    1.0166: real time    1.0190
    ORTHCH:  cpu time    0.0117: real time    0.0117
       DOS:  cpu time    0.0002: real time    0.0002
    --------------------------------------------
      LOOP:  cpu time    3.2953: real time    3.3031

 eigenvalue-minimisations  :    32
 total energy-change (2. order) :-0.9632714E-06  ( 0.0000000E+00)
 number of electron       8.0000001 magnetization 
 augmentation part        0.1825725 magnetization 

 Free energy of the ion-electron system (eV)
  ---------------------------------------------------
  alpha Z        PSCENC =         0.23891570
  Ewald energy   TEWEN  =       127.39906788
  -Hartree energ DENC   =      -283.42297292
  -exchange      EXHF   =         0.00000000
  -V(xc)+E(xc)   XCENC  =        24.65445970
  PAW double counting   =       441.49259813     -442.27479040
  entropy T*S    EENTRO =         0.03548160
  eigenvalues    EBANDS =       -89.16556389
  atomic energy  EATOM  =       197.04175453
  Solvation  Ediel_sol  =         0.00000000
  ---------------------------------------------------
  free energy    TOTEN  =       -24.00104966 eV

  energy without entropy =      -24.03653126  energy(sigma->0) =      -24.01287686


--------------------------------------------------------------------------------------------------------




 average (electrostatic) potential at core
  the test charge radii are     0.5201  0.6991
  (the norm of the test charge is              1.0000)
       1 -41.4443       2 -41.5469       3 -41.4012       4 -41.3751       5 -58.0072



 E-fermi :  -9.0817     XC(G=0):  -0.6944     alpha+bet : -0.2078


 k-point     1 :       0.2500    0.2500    0.2500
  band No.  band energies     occupation 
      1     -16.8261      2.00000
      2      -9.2631      2.02522
      3      -9.2607      2.02095
      4      -9.2323      1.95393
      5      -0.3282      0.00000
      6       0.5522      0.00000
      7       0.6668      0.00000
      8       0.6927      0.00000

 k-point     2 :      -0.2500    0.2500    0.2500
  band No.  band energies     occupation 
      1     -16.8261      2.00000
      2      -9.2631      2.02512
      3      -9.2606      2.02091
      4      -9.2322      1.95382
      5      -0.3257      0.00000
      6       0.5453      0.00000
      7       0.6543      0.00000
      8       0.6885      0.00000

 k-point     3 :       0.2500   -0.2500    0.2500
  band No.  band energies     occupation 
      1     -16.8260      2.00000
      2      -9.2631      2.02517
      3      -9.2605      2.02070
      4      -9.2323      1.95393
      5      -0.3260      0.00000
      6       0.5443      0.00000
      7       0.6600      0.00000
      8       0.6885      0.00000

 k-point     4 :      -0.2500   -0.2500    0.2500
  band No.  band energies     occupation 
      1     -16.8260      2.00000
      2      -9.2632      2.02527
      3      -9.2607      2.02095
      4      -9.2323      1.95404
      5      -0.3299      0.00000
      6       0.5551      0.00000
      7       0.6743      0.00000
      8       0.6940      0.00000


--------------------------------------------------------------------------------------------------------


 soft charge-density along one line, spin component           1
         0         1         2         3         4         5         6         7         8         9
 total charge-density along one line

 pseudopotential strength for first ion, spin component:           1
 -2.340  -4.033  -0.001  -0.002   0.001
 -4.033  -6.863  -0.003  -0.005   0.002
 -0.001  -0.003  -0.337   0.002  -0.001
 -0.002  -0.005   0.002  -0.335  -0.001
  0.001   0.002  -0.001  -0.001  -0.338
 total augmentation occupancy for first ion, spin component:           1
  3.588  -0.659   0.234   0.396  -0.147
 -0.659   0.134  -0.045  -0.074   0.028
  0.234  -0.045   0.020   0.022  -0.008
  0.396  -0.074   0.022   0.048  -0.015
 -0.147   0.028  -0.008  -0.015   0.014


------------------------ aborting loop because EDIFF is reached ----------------------------------------


    CHARGE:  cpu time    0.1889: real time    0.1893
    FORLOC:  cpu time    0.1195: real time    0.1198
    FORNL :  cpu time    0.6763: real time    0.6779
    STRESS:  cpu time    2.1402: real time    2.1452
    FORCOR:  cpu time    1.8921: real time    1.8965
    FORHAR:  cpu time    0.6659: real time    0.6677
    MIXING:  cpu time    0.0695: real time    0.0697
    OFIELD:  cpu time    0.0000: real time    0.0000

  FORCE on cell =-STRESS in cart. coord.  units (eV):
  Direction    XX          YY          ZZ          XY          YZ          ZX
  --------------------------------------------------------------------------------------
  Alpha Z     0.23892     0.23892     0.23892
  Ewald      44.20396    41.41588    41.77920     0.76244    -0.06740    -0.03711
  Hartree    95.91094    93.77638    93.73594     0.62337    -0.15999    -0.02178
  E(xc)     -27.12321   -27.11608   -27.10979     0.00538    -0.00188     0.00057
  Local    -198.82068  -193.99971  -194.61362    -1.57659     0.24357     0.06354
  n-local   -16.07164   -15.58481   -15.87460     0.13299    -0.04030    -0.22743
  augment     0.11903     0.11906     0.12146     0.00243     0.00015     0.00007
  Kinetic   101.23074    99.90282   100.60607     0.16292     0.26100    -0.06841
  Fock        0.00000     0.00000     0.00000     0.00000     0.00000     0.00000
  -------------------------------------------------------------------------------------
  Total      -0.31194    -1.24755    -1.11642     0.11294     0.23516    -0.29054
  in kB      -0.49291    -1.97128    -1.76408     0.17846     0.37158    -0.45909
  external pressure =       -1.41 kB  Pullay stress =        0.00 kB

  kinetic pressure (ideal gas correction) =      0.03 kB
  total pressure  =     -1.38 kB
  Total+kin.    -0.490      -1.931      -1.725       0.177       0.355      -0.449

 VOLUME and BASIS-vectors are now :
 -----------------------------------------------------------------------------
  energy-cutoff  :      400.00
  volume of cell :     1013.96
      direct lattice vectors                 reciprocal lattice vectors
     9.905758204  0.000000000  0.000000000     0.100951384 -0.001866275  0.000313310
     0.186560020 10.091487756  0.000000000    -0.000000000  0.099093417  0.000676523
    -0.032760510 -0.069249311 10.143260751     0.000000000  0.000000000  0.098587626

  length of vectors
     9.905758204 10.093212064 10.143550039     0.100969119  0.099095726  0.098587626


 FORCES acting on ions
    electron-ion (+dipol)            ewald-force                    non-local-force                 convergence-correction
 -----------------------------------------------------------------------------------------------
   -.160E+02 0.290E+02 0.407E+02   0.176E+02 -.318E+02 -.448E+02   -.132E+01 0.265E+01 0.373E+01   -.685E-05 -.320E-04 -.576E-04
   0.525E+02 -.686E+01 0.358E+01   -.585E+02 0.751E+01 -.397E+01   0.609E+01 -.316E+00 0.118E+01   -.414E-04 -.666E-07 -.331E-04
   -.234E+02 -.464E+02 0.130E+01   0.257E+02 0.505E+02 -.137E+01   -.230E+01 -.476E+01 0.255E+00   -.455E-06 0.355E-04 -.233E-04
   -.110E+02 0.243E+02 -.445E+02   0.120E+02 -.263E+02 0.484E+02   -.123E+01 0.254E+01 -.455E+01   -.213E-05 -.303E-04 0.233E-04
   -.277E+01 -.202E-01 -.149E+01   0.317E+01 -.504E-02 0.169E+01   -.194E+00 0.159E+01 0.847E-03   -.234E-03 -.175E-03 -.530E-03
 -----------------------------------------------------------------------------------------------
   -.709E+00 -.245E-01 -.360E+00   0.888E-14 0.520E-17 -.711E-14   0.105E+01 0.171E+01 0.623E+00   -.285E-03 -.202E-03 -.621E-03


 POSITION                                       TOTAL-FORCE (eV/Angst)
 -----------------------------------------------------------------------------------
      5.39109      4.07582      3.66018         0.284815     -0.146945     -0.303543
      3.98061      4.81992      4.44423         0.131243      0.334573      0.786947
      5.55903      5.67610      4.49004        -0.031324     -0.599399      0.182214
      5.29192      4.16177      5.47821        -0.248766      0.528223     -0.601433
      5.05623      4.68303      4.51846         0.205481      1.564197      0.198487
 -----------------------------------------------------------------------------------
    total drift:                                0.341450      1.680650      0.262672


--------------------------------------------------------------------------------------------------------



  FREE ENERGIE OF THE ION-ELECTRON SYSTEM (eV)
  ---------------------------------------------------
  free  energy   TOTEN  =       -24.00104966 eV

  energy  without entropy=      -24.03653126  energy(sigma->0) =      -24.01287686



--------------------------------------------------------------------------------------------------------


    POTLOK:  cpu time    1.8445: real time    1.8489


--------------------------------------------------------------------------------------------------------


           RANDOM_SEED =         578492903                0                0
           RANDOM_SEED =         578492903               30                0
   IONSTEP:  cpu time    0.0017: real time    0.0018

  ENERGY OF THE ELECTRON-ION-THERMOSTAT SYSTEM (eV)
  ---------------------------------------------------
% ion-electron   TOTEN  =       -24.001050  see above
  kinetic energy EKIN   =         0.029383
  kin. lattice  EKIN_LAT=         0.000000  (temperature   56.83 K)
  nose potential ES     =         0.000000
  nose kinetic   EPS    =         0.000001
  ---------------------------------------------------
  total energy   ETOTAL =       -23.971665 eV

  maximum distance moved by ions :      0.43E-02


 mean value of Nose-termostat <S>:     1.002 mean value of <T> :    56.829
 mean temperature <T/S>/<1/S>  :    56.829

    WAVPRE:  cpu time    0.4955: real time    0.5014
    FEWALD:  cpu time    0.0004: real time    0.0004
    ORTHCH:  cpu time    0.2319: real time    0.2324
     LOOP+:  cpu time  101.2466: real time  101.4932


--------------------------------------- Iteration      2(   1)  ---------------------------------------


    POTLOK:  cpu time    1.8362: real time    1.8406
    SETDIJ:  cpu time    0.0066: real time    0.0066
     EDDAV:  cpu time    2.2014: real time    2.2066
       DOS:  cpu time    0.0002: real time    0.0002
    CHARGE:  cpu time    0.1908: real time    0.1913
    MIXING:  cpu time    0.0447: real time    0.0449
    --------------------------------------------
      LOOP:  cpu time    4.2800: real time    4.2902

 eigenvalue-minimisations  :    64
 total energy-change (2. order) :-0.3461813E-02  (-0.1707973E+00)
 number of electron       8.0000000 magnetization 
 augmentation part        0.1837576 magnetization 

 Broyden mixing:
  rms(total) = 0.53459E-01    rms(broyden)= 0.53402E-01
  rms(prec ) = 0.60562E-01
  weight for this iteration     100.00

 Free energy of the ion-electron system (eV)
  ---------------------------------------------------
  alpha Z        PSCENC =         0.23891570
  Ewald energy   TEWEN  =       128.24429870
  -Hartree energ DENC   =      -283.88251367
  -exchange      EXHF   =         0.00000000
  -V(xc)+E(xc)   XCENC  =        24.67755444
  PAW double counting   =       441.48959818     -442.27179648
  entropy T*S    EENTRO =         0.01629282
  eigenvalues    EBANDS =       -89.55861473
  atomic energy  EATOM  =       197.04175453
  Solvation  Ediel_sol  =         0.00000000
  ---------------------------------------------------
  free energy    TOTEN  =       -24.00451051 eV

  energy without entropy =      -24.02080333  energy(sigma->0) =      -24.00994145


--------------------------------------------------------------------------------------------------------




--------------------------------------- Iteration      2(   2)  ---------------------------------------


    POTLOK:  cpu time    1.6923: real time    1.6963
    SETDIJ:  cpu time    0.0065: real time    0.0065
    EDDIAG:  cpu time    0.4934: real time    0.4946
  RMM-DIIS:  cpu time    1.5710: real time    1.5747
    ORTHCH:  cpu time    0.0120: real time    0.0121
       DOS:  cpu time    0.0002: real time    0.0002
    CHARGE:  cpu time    0.2139: real time    0.2144
    MIXING:  cpu time    0.0732: real time    0.0734
    --------------------------------------------
      LOOP:  cpu time    4.0626: real time    4.0722

 eigenvalue-minimisations  :    64
 total energy-change (2. order) :-0.3765241E-02  (-0.5925384E-02)
 number of electron       8.0000000 magnetization 
 augmentation part        0.1831128 magnetization 

 Broyden mixing:
  rms(total) = 0.57162E-01    rms(broyden)= 0.57148E-01
  rms(prec ) = 0.67993E-01
  weight for this iteration     100.00

 eigenvalues of (default mixing * dielectric matrix)
  average eigenvalue GAMMA=   2.0979
  8.5997  5.5300  4.2002  3.4358  2.6537  2.3940  2.0436  1.5736  1.5736  1.2176
  1.2176  0.4957  1.1081  1.1081  0.6101  1.0188  0.8907  0.8907  0.6700  0.7271

 Free energy of the ion-electron system (eV)
  ---------------------------------------------------
  alpha Z        PSCENC =         0.23891570
[...]
  rms(prec ) = 0.46983E-02
  weight for this iteration     100.00

 eigenvalues of (default mixing * dielectric matrix)
  average eigenvalue GAMMA=   2.2204
  5.5223  5.5223  5.9657  4.5631  3.7047  3.7047  0.2861  0.2861  3.6978  0.3544
  0.3544  0.5759  0.5759  0.3781  0.7393  0.7393  0.6585  0.6526  0.9142  0.9637
  1.2978  1.2978  1.1462  2.8385  2.8385  2.0191  2.0191  3.1168  3.1168  1.7741
  3.0249  2.1536  2.1536  2.4970  2.4970  2.8544  2.7496  2.7496  2.2863  2.6901
  2.6301  2.3988  2.3988  2.4614  2.4614  2.5098

 Free energy of the ion-electron system (eV)
  ---------------------------------------------------
  alpha Z        PSCENC =         0.23891570
  Ewald energy   TEWEN  =       128.66030381
  -Hartree energ DENC   =      -284.51394616
  -exchange      EXHF   =         0.00000000
  -V(xc)+E(xc)   XCENC  =        24.71168966
  PAW double counting   =       441.94883525     -442.73445398
  entropy T*S    EENTRO =         0.03806723
  eigenvalues    EBANDS =       -89.39103404
  atomic energy  EATOM  =       197.04175453
  Solvation  Ediel_sol  =         0.00000000
  ---------------------------------------------------
  free energy    TOTEN  =       -23.99986800 eV

  energy without entropy =      -24.03793523  energy(sigma->0) =      -24.01255708


--------------------------------------------------------------------------------------------------------




--------------------------------------- Iteration     10(  38)  ---------------------------------------


    POTLOK:  cpu time    1.4465: real time    1.4499
    SETDIJ:  cpu time    0.0057: real time    0.0057
    EDDIAG:  cpu time    0.3169: real time    0.3177
  RMM-DIIS:  cpu time    1.2443: real time    1.2472
    ORTHCH:  cpu time    0.0117: real time    0.0117
       DOS:  cpu time    0.0002: real time    0.0002
    CHARGE:  cpu time    0.1513: real time    0.1516
    MIXING:  cpu time    0.1118: real time    0.1120
    --------------------------------------------
      LOOP:  cpu time    3.2883: real time    3.2961

 eigenvalue-minimisations  :    64
 total energy-change (2. order) : 0.1372398E-04  (-0.5986973E-06)
 number of electron       8.0000002 magnetization 
 augmentation part        0.1840273 magnetization 

 Broyden mixing:
  rms(total) = 0.11516E-02    rms(broyden)= 0.11487E-02
  rms(prec ) = 0.15234E-02
  weight for this iteration     100.00

 eigenvalues of (default mixing * dielectric matrix)
  average eigenvalue GAMMA=   2.2008
  5.6277  5.6277  5.1716  5.1716  0.2762  0.2762  3.5150  3.5150  0.3731  0.3731
  0.5630  0.5630  0.4270  0.6848  0.6848  0.6672  0.6672  0.8146  0.9447  1.3313
  1.3313  1.0872  2.5911  2.5911  3.5255  1.4488  1.8949  1.8949  2.8741  2.8741
  3.1869  3.1869  2.1141  2.1141  2.2963  2.2963  2.7727  2.7727  2.8582  2.7222
  2.7222  2.6350  2.4627  2.4627  2.5082  2.4704  2.4704

 Free energy of the ion-electron system (eV)
  ---------------------------------------------------
  alpha Z        PSCENC =         0.23891570
  Ewald energy   TEWEN  =       128.66030381
  -Hartree energ DENC   =      -284.51407996
  -exchange      EXHF   =         0.00000000
  -V(xc)+E(xc)   XCENC  =        24.71170533
  PAW double counting   =       441.94790954     -442.73353432
  entropy T*S    EENTRO =         0.03791225
  eigenvalues    EBANDS =       -89.39074116
  atomic energy  EATOM  =       197.04175453
  Solvation  Ediel_sol  =         0.00000000
  ---------------------------------------------------
  free energy    TOTEN  =       -23.99985428 eV

  energy without entropy =      -24.03776653  energy(sigma->0) =      -24.01249169


--------------------------------------------------------------------------------------------------------




--------------------------------------- Iteration     10(  39)  ---------------------------------------


    POTLOK:  cpu time    1.4625: real time    1.4660
    SETDIJ:  cpu time    0.0057: real time    0.0057
    EDDIAG:  cpu time    0.3169: real time    0.3177
  RMM-DIIS:  cpu time    1.1056: real time    1.1083
    ORTHCH:  cpu time    0.0107: real time    0.0108
       DOS:  cpu time    0.0002: real time    0.0002
    CHARGE:  cpu time    0.1523: real time    0.1527
    MIXING:  cpu time    0.1187: real time    0.1190
    --------------------------------------------
      LOOP:  cpu time    3.1727: real time    3.1804

 eigenvalue-minimisations  :    56
 total energy-change (2. order) :-0.4672472E-05  (-0.2326877E-06)
 number of electron       8.0000002 magnetization 
 augmentation part        0.1840285 magnetization 

 Broyden mixing:
  rms(total) = 0.32964E-03    rms(broyden)= 0.32399E-03
  rms(prec ) = 0.43292E-03
  weight for this iteration     100.00

 eigenvalues of (default mixing * dielectric matrix)
  average eigenvalue GAMMA=   2.2041
  5.5426  5.5426  5.4236  5.1521  0.4057  3.2342  3.2342  0.1117  3.1689  3.1689
  0.5615  0.5615  0.1802  3.3742  3.3742  1.0282  1.0282  0.5245  0.6034  0.6034
  0.7165  0.7165  1.3214  1.3214  0.8887  0.9500  1.0740  2.6681  2.6681  1.5859
  2.0108  2.0108  3.0479  2.3074  2.3074  2.2620  2.2620  2.8411  2.8411  2.6572
  2.6572  2.7150  2.7150  2.4658  2.4658  2.5178  2.5178  2.4620

 Free energy of the ion-electron system (eV)
  ---------------------------------------------------
  alpha Z        PSCENC =         0.23891570
  Ewald energy   TEWEN  =       128.66030381
  -Hartree energ DENC   =      -284.51401150
  -exchange      EXHF   =         0.00000000
  -V(xc)+E(xc)   XCENC  =        24.71171329
  PAW double counting   =       441.94893952     -442.73456199
  entropy T*S    EENTRO =         0.03783060
  eigenvalues    EBANDS =       -89.39074292
  atomic energy  EATOM  =       197.04175453
  Solvation  Ediel_sol  =         0.00000000
  ---------------------------------------------------
  free energy    TOTEN  =       -23.99985895 eV

  energy without entropy =      -24.03768955  energy(sigma->0) =      -24.01246915


--------------------------------------------------------------------------------------------------------




--------------------------------------- Iteration     10(  40)  ---------------------------------------


    POTLOK:  cpu time    1.4899: real time    1.4934
    SETDIJ:  cpu time    0.0057: real time    0.0057
    EDDIAG:  cpu time    0.3194: real time    0.3202
  RMM-DIIS:  cpu time    0.9888: real time    0.9911
    ORTHCH:  cpu time    0.0105: real time    0.0106
       DOS:  cpu time    0.0002: real time    0.0002
    CHARGE:  cpu time    0.1457: real time    0.1461
    MIXING:  cpu time    0.1258: real time    0.1261
    --------------------------------------------
      LOOP:  cpu time    3.0861: real time    3.0934

 eigenvalue-minimisations  :    48
 total energy-change (2. order) :-0.1926220E-05  (-0.2657132E-07)
 number of electron       8.0000002 magnetization 
 augmentation part        0.1840281 magnetization 

 Broyden mixing:
  rms(total) = 0.35349E-03    rms(broyden)= 0.35314E-03
  rms(prec ) = 0.47509E-03
  weight for this iteration     100.00

 eigenvalues of (default mixing * dielectric matrix)
  average eigenvalue GAMMA=   2.2247
  5.7513  5.7513  5.4827  5.1822  0.5089  4.2553  3.6499  3.6499  0.0753  0.1667
  0.5323  0.5323  0.5416  0.5416  0.5112  1.1824  1.1824  0.7517  0.7517  0.8082
  0.8082  1.0696  1.0274  1.3752  1.3752  3.0716  3.0716  3.3862  1.9464  1.9464
  3.0672  3.0672  1.8143  2.2412  2.2412  2.5476  2.5476  2.1145  2.8503  2.6635
  2.6635  2.7539  2.6731  2.4552  2.4552  2.4227  2.4227  2.6141  2.5104

 Free energy of the ion-electron system (eV)
  ---------------------------------------------------
  alpha Z        PSCENC =         0.23891570
  Ewald energy   TEWEN  =       128.66030381
  -Hartree energ DENC   =      -284.51411568
  -exchange      EXHF   =         0.00000000
  -V(xc)+E(xc)   XCENC  =        24.71171727
  PAW double counting   =       441.94780863     -442.73343437
  entropy T*S    EENTRO =         0.03782497
  eigenvalues    EBANDS =       -89.39063574
  atomic energy  EATOM  =       197.04175453
  Solvation  Ediel_sol  =         0.00000000
  ---------------------------------------------------
  free energy    TOTEN  =       -23.99986088 eV

  energy without entropy =      -24.03768584  energy(sigma->0) =      -24.01246920


--------------------------------------------------------------------------------------------------------




--------------------------------------- Iteration     10(  41)  ---------------------------------------


    POTLOK:  cpu time    1.5074: real time    1.5110
    SETDIJ:  cpu time    0.0057: real time    0.0057
    EDDIAG:  cpu time    0.3193: real time    0.3200
  RMM-DIIS:  cpu time    0.9868: real time    0.9891
    ORTHCH:  cpu time    0.0113: real time    0.0113
       DOS:  cpu time    0.0002: real time    0.0002
    --------------------------------------------
      LOOP:  cpu time    2.8306: real time    2.8373

 eigenvalue-minimisations  :    48
 total energy-change (2. order) :-0.5608834E-06  (-0.2812041E-07)
 number of electron       8.0000002 magnetization 
 augmentation part        0.1840281 magnetization 

 Free energy of the ion-electron system (eV)
  ---------------------------------------------------
  alpha Z        PSCENC =         0.23891570
  Ewald energy   TEWEN  =       128.66030381
  -Hartree energ DENC   =      -284.51391009
  -exchange      EXHF   =         0.00000000
  -V(xc)+E(xc)   XCENC  =        24.71171607
  PAW double counting   =       441.94685130     -442.73247649
  entropy T*S    EENTRO =         0.03780708
  eigenvalues    EBANDS =       -89.39082333
  atomic energy  EATOM  =       197.04175453
  Solvation  Ediel_sol  =         0.00000000
  ---------------------------------------------------
  free energy    TOTEN  =       -23.99986144 eV

  energy without entropy =      -24.03766851  energy(sigma->0) =      -24.01246379


--------------------------------------------------------------------------------------------------------




 average (electrostatic) potential at core
  the test charge radii are     0.5201  0.6991
  (the norm of the test charge is              1.0000)
       1 -41.4131       2 -41.2467       3 -41.5139       4 -41.7339       5 -57.9787



 E-fermi :  -9.0924     XC(G=0):  -0.6853     alpha+bet : -0.2078


 k-point     1 :       0.2500    0.2500    0.2500
  band No.  band energies     occupation 
      1     -16.8762      2.00000
      2      -9.3126      2.06539
      3      -9.2740      2.02560
      4      -9.2294      1.90909
      5      -0.3203      0.00000
      6       0.5648      0.00000
      7       0.6715      0.00000
      8       0.6983      0.00000

 k-point     2 :      -0.2500    0.2500    0.2500
  band No.  band energies     occupation 
      1     -16.8761      2.00000
      2      -9.3125      2.06535
      3      -9.2741      2.02567
      4      -9.2293      1.90899
      5      -0.3171      0.00000
      6       0.5538      0.00000
      7       0.6610      0.00000
      8       0.6943      0.00000

 k-point     3 :       0.2500   -0.2500    0.2500
  band No.  band energies     occupation 
      1     -16.8761      2.00000
      2      -9.3126      2.06536
      3      -9.2740      2.02565
      4      -9.2293      1.90865
      5      -0.3179      0.00000
      6       0.5572      0.00000
      7       0.6609      0.00000
      8       0.6968      0.00000

 k-point     4 :      -0.2500   -0.2500    0.2500
  band No.  band energies     occupation 
      1     -16.8762      2.00000
      2      -9.3126      2.06539
      3      -9.2740      2.02562
      4      -9.2294      1.90924
      5      -0.3223      0.00000
      6       0.5746      0.00000
      7       0.6713      0.00000
      8       0.7013      0.00000


--------------------------------------------------------------------------------------------------------


 soft charge-density along one line, spin component           1
         0         1         2         3         4         5         6         7         8         9
 total charge-density along one line

 pseudopotential strength for first ion, spin component:           1
 -2.339  -4.031  -0.001  -0.002   0.000
 -4.031  -6.859  -0.003  -0.005   0.001
 -0.001  -0.003  -0.337   0.002  -0.001
 -0.002  -0.005   0.002  -0.336  -0.001
  0.000   0.001  -0.001  -0.001  -0.338
 total augmentation occupancy for first ion, spin component:           1
  3.223  -0.515   0.282   0.376  -0.099
 -0.515   0.096  -0.046  -0.062   0.016
  0.282  -0.046   0.031   0.029  -0.007
  0.376  -0.062   0.029   0.048  -0.010
 -0.099   0.016  -0.007  -0.010   0.013


------------------------ aborting loop because EDIFF is reached ----------------------------------------


    CHARGE:  cpu time    0.1431: real time    0.1434
    FORLOC:  cpu time    0.1132: real time    0.1135
    FORNL :  cpu time    0.5077: real time    0.5089
    STRESS:  cpu time    1.6154: real time    1.6192
    FORCOR:  cpu time    1.6140: real time    1.6179
    FORHAR:  cpu time    0.5259: real time    0.5272
    MIXING:  cpu time    0.1180: real time    0.1183
    OFIELD:  cpu time    0.0000: real time    0.0000

  FORCE on cell =-STRESS in cart. coord.  units (eV):
  Direction    XX          YY          ZZ          XY          YZ          ZX
  --------------------------------------------------------------------------------------
  Alpha Z     0.23892     0.23892     0.23892
  Ewald      46.62220    41.83604    40.20203    -0.09901     1.58948     0.74076
  Hartree    97.73701    94.00495    92.77212    -0.02397     0.83532     0.35981
  E(xc)     -27.16009   -27.18316   -27.19061    -0.00443     0.01321     0.00351
  Local    -203.43847  -194.64098  -191.50206     0.22493    -2.79984    -1.26582
  n-local   -15.51297   -15.57832   -15.47076     0.23583    -0.07984    -0.13809
  augment     0.12303     0.11742     0.11471    -0.00163     0.00343     0.00273
  Kinetic   100.56346   101.32118   100.93364     0.05364     0.37051     0.73503
  Fock        0.00000     0.00000     0.00000     0.00000     0.00000     0.00000
  -------------------------------------------------------------------------------------
  Total      -0.82690     0.11605     0.09798     0.38536    -0.06772     0.43793
  in kB      -1.30661     0.18337     0.15481     0.60891    -0.10701     0.69198
  external pressure =       -0.32 kB  Pullay stress =        0.00 kB

  kinetic pressure (ideal gas correction) =      0.06 kB
  total pressure  =     -0.26 kB
  Total+kin.    -1.203       0.233       0.192       0.566      -0.080       0.678

 VOLUME and BASIS-vectors are now :
 -----------------------------------------------------------------------------
  energy-cutoff  :      400.00
  volume of cell :     1013.96
      direct lattice vectors                 reciprocal lattice vectors
     9.905758204  0.000000000  0.000000000     0.100951384 -0.001866275  0.000313310
     0.186560020 10.091487756  0.000000000    -0.000000000  0.099093417  0.000676523
    -0.032760510 -0.069249311 10.143260751     0.000000000  0.000000000  0.098587626

  length of vectors
     9.905758204 10.093212064 10.143550039     0.100969119  0.099095726  0.098587626


 FORCES acting on ions
    electron-ion (+dipol)            ewald-force                    non-local-force                 convergence-correction
 -----------------------------------------------------------------------------------------------
   -.117E+02 0.300E+02 0.419E+02   0.127E+02 -.331E+02 -.461E+02   -.116E+01 0.271E+01 0.397E+01   -.428E-03 -.354E-04 -.738E-03
   0.506E+02 -.119E+02 -.757E+00   -.551E+02 0.130E+02 0.682E+00   0.508E+01 -.145E+01 -.767E+00   -.305E-03 0.150E-03 -.830E-03
   -.296E+02 -.439E+02 0.646E+00   0.327E+02 0.486E+02 -.501E+00   -.256E+01 -.420E+01 0.185E-01   -.315E-03 0.227E-03 -.612E-03
   -.127E+02 0.271E+02 -.437E+02   0.143E+02 -.300E+02 0.486E+02   -.149E+01 0.291E+01 -.385E+01   -.849E-04 0.509E-04 -.761E-03
   0.368E+01 -.131E+01 0.190E+01   -.454E+01 0.162E+01 -.261E+01   -.201E+00 0.156E+01 0.144E+00   -.641E-02 0.250E-02 -.146E-01
 -----------------------------------------------------------------------------------------------
   0.323E+00 -.360E-01 -.133E-01   0.355E-14 0.000E+00 0.711E-14   -.325E+00 0.153E+01 -.486E+00   -.755E-02 0.290E-02 -.176E-01


 POSITION                                       TOTAL-FORCE (eV/Angst)
 -----------------------------------------------------------------------------------
      5.29812      4.05669      3.64869        -0.161366     -0.428722     -0.265038
      3.96806      4.93846      4.53209         0.614402     -0.374213     -0.842223
      5.66956      5.58934      4.51149         0.527238      0.475936      0.162691
      5.32364      4.12893      5.41578         0.082555     -0.058745      1.005419
      5.05318      4.68471      4.51552        -1.072435      1.879107     -0.577692
 -----------------------------------------------------------------------------------
    total drift:                               -0.009606      1.493363     -0.516843


--------------------------------------------------------------------------------------------------------



  FREE ENERGIE OF THE ION-ELECTRON SYSTEM (eV)
  ---------------------------------------------------
  free  energy   TOTEN  =       -23.99986144 eV

  energy  without entropy=      -24.03766851  energy(sigma->0) =      -24.01246379

 d Force = 0.1079156E-01[-0.452E-01, 0.668E-01]  d Energy = 0.2038141E-02 0.875E-02
 d Force = 0.3090762E+01[ 0.305E+01, 0.313E+01]  d Ewald  = 0.3090640E+01 0.122E-03


--------------------------------------------------------------------------------------------------------


    POTLOK:  cpu time    1.5098: real time    1.5133


--------------------------------------------------------------------------------------------------------


           RANDOM_SEED =         578492903               30                0
   IONSTEP:  cpu time    0.0001: real time    0.0001

  ENERGY OF THE ELECTRON-ION-THERMOSTAT SYSTEM (eV)
  ---------------------------------------------------
% ion-electron   TOTEN  =       -23.999861  see above
  kinetic energy EKIN   =         0.051074
  kin. lattice  EKIN_LAT=         0.000000  (temperature   98.78 K)
  nose potential ES     =         0.011736
  nose kinetic   EPS    =         0.005382
  ---------------------------------------------------
  total energy   ETOTAL =       -23.931670 eV

  maximum distance moved by ions :      0.50E-02


 mean value of Nose-termostat <S>:     1.328 mean value of <T> :    98.780
 mean temperature <T/S>/<1/S>  :    98.780

    WAVPRE:  cpu time    0.4646: real time    0.4724
    FEWALD:  cpu time    0.0004: real time    0.0003
    ORTHCH:  cpu time    0.1878: real time    0.1882
 Prediction of Wavefunctions ALPHA= 0.817 BETA=-0.492
    POTLOK:  cpu time    1.5190: real time    1.5226
    EDDIAG:  cpu time    0.3170: real time    0.3178
     LOOP+:  cpu time  144.3338: real time  144.6899
    4ORBIT:  cpu time    0.0000: real time    0.0000

 total amount of memory used by VASP MPI-rank0   322270. kBytes
=======================================================================

   base      :      30000. kBytes
   nonlr-proj:        166. kBytes
   fftplans  :      94700. kBytes
   grid      :     169030. kBytes
   one-center:         15. kBytes
   wavefun   :      28359. kBytes

  
  
 General timing and accounting informations for this job:
 ========================================================
  
                  Total CPU time used (sec):     1240.515
                            User time (sec):     1216.414
                          System time (sec):       24.101
                         Elapsed time (sec):     1246.165
  
                   Maximum memory used (kb):      502136.
                   Average memory used (kb):           0.
  
                          Minor page faults:      4105642
                          Major page faults:            0
                 Voluntary context switches:          436
