 running on    1 total cores
 distrk:  each k-point on    1 cores,    1 groups
 distr:  one band on    1 cores,    1 groups
 using from now: INCAR     
 vasp.5.4.4.18Apr17-6-g9f103f2a35 (build Jul 12 2018 13:43:46) complex           
 POSCAR found type information on POSCAR  H  C 
 POSCAR found :  2 types and       5 ions
 scaLAPACK will be used

 ----------------------------------------------------------------------------- 
|                                                                             |
|  ADVICE TO THIS USER RUNNING 'VASP/VAMP'   (HEAR YOUR MASTER'S VOICE ...):  |
|                                                                             |
|      You have a (more or less) 'small supercell' and for smaller cells      |
|      it is recommended  to use the reciprocal-space projection scheme!      |
|      The real space optimization is not  efficient for small cells and it   |
|      is also less accurate ...                                              |
|      Therefore set LREAL=.FALSE. in the  INCAR file                         |
|                                                                             |
 ----------------------------------------------------------------------------- 


 ----------------------------------------------------------------------------- 
|                                                                             |
|           W    W    AA    RRRRR   N    N  II  N    N   GGGG   !!!           |
|           W    W   A  A   R    R  NN   N  II  NN   N  G    G  !!!           |
|           W    W  A    A  R    R  N N  N  II  N N  N  G       !!!           |
|           W WW W  AAAAAA  RRRRR   N  N N  II  N  N N  G  GGG   !            |
|           WW  WW  A    A  R   R   N   NN  II  N   NN  G    G                |
|           W    W  A    A  R    R  N    N  II  N    N   GGGG   !!!           |
|                                                                             |
|     The real-space-projection scheme for the treatment of the nonlocal      |
|     pseudopotentials has been switched on -- but on file POTCAR I have      |
|     not found any entries signalling me that you have ever performed a      |
|     real-space optimization of all nonlocal projectors! BE WARNED that      |
|     a calculation using the real-space-projection scheme together with      |
|     nonlocal projectors which were not real-space-optimized (according      |
|     to the plane-wave-cutoff used in this calculation) might give more      |
|     or less inaccurate results                                              |
|     I hope you know what you are doing                                      |
|                                                                             |
 ----------------------------------------------------------------------------- 

 LDA part: xc-table for Pade appr. of Perdew
 generate k-points for:    2    2    2
 POSCAR, INCAR and KPOINTS ok, starting setup
 FFT: planning ...
 WAVECAR not read
 prediction of wavefunctions initialized - no I/O
 entering main loop
       N       E                     dE             d eps       ncg     rms          rms(c)
DAV:   1     0.964721377604E+01    0.96472E+01   -0.20489E+03   104   0.416E+02
DAV:   2    -0.236640425830E+02   -0.33311E+02   -0.33311E+02    72   0.107E+02
DAV:   3    -0.272835339292E+02   -0.36195E+01   -0.36343E+01    64   0.385E+01
DAV:   4    -0.274290875275E+02   -0.14555E+00   -0.14318E+00   128   0.800E+00
DAV:   5    -0.274291465179E+02   -0.58990E-04   -0.58992E-04    88   0.174E-01    0.859E+00
RMM:   6    -0.246223230700E+02    0.28068E+01   -0.51563E+00    64   0.138E+01    0.422E+00
RMM:   7    -0.241542022333E+02    0.46812E+00   -0.11097E+00    64   0.609E+00    0.234E+00
RMM:   8    -0.240397559944E+02    0.11445E+00   -0.91590E-02    64   0.193E+00    0.120E+00
RMM:   9    -0.239957124679E+02    0.44044E-01   -0.59475E-02    64   0.180E+00    0.290E-01
RMM:  10    -0.239937969673E+02    0.19155E-02   -0.36342E-03    64   0.383E-01    0.190E-01
RMM:  11    -0.239930188921E+02    0.77808E-03   -0.10978E-02    64   0.554E-01    0.161E-01
RMM:  12    -0.239881627796E+02    0.48561E-02   -0.25266E-03    64   0.320E-01    0.153E-01
RMM:  13    -0.239905304904E+02   -0.23677E-02   -0.30556E-03    64   0.345E-01    0.667E-02
RMM:  14    -0.239949226047E+02   -0.43921E-02   -0.14787E-03    64   0.251E-01    0.117E-01
RMM:  15    -0.239980718496E+02   -0.31492E-02   -0.23534E-03    64   0.288E-01    0.465E-02
RMM:  16    -0.240006751285E+02   -0.26033E-02   -0.86544E-04    64   0.183E-01    0.101E-01
RMM:  17    -0.240005195724E+02    0.15556E-03   -0.20124E-04    64   0.903E-02    0.329E-02
RMM:  18    -0.240008485878E+02   -0.32902E-03   -0.71748E-05    64   0.530E-02    0.187E-02
RMM:  19    -0.240009724906E+02   -0.12390E-03   -0.29590E-05    64   0.323E-02    0.477E-03
RMM:  20    -0.240010347040E+02   -0.62213E-04   -0.25347E-06    60   0.106E-02    0.353E-03
RMM:  21    -0.240010421238E+02   -0.74198E-05   -0.95672E-07    48   0.610E-03    0.246E-03
RMM:  22    -0.240010474988E+02   -0.53750E-05   -0.43296E-07    48   0.446E-03    0.103E-03
RMM:  23    -0.240010486950E+02   -0.11962E-05   -0.87285E-08    48   0.237E-03    0.556E-04
RMM:  24    -0.240010496583E+02   -0.96327E-06    0.00000E+00    32   0.138E-03
    1 T=    57. E= -.23971665E+02 F= -.24001050E+02 E0= -.24012877E+02  EK= 0.29383E-01 SP= 0.00E+00 SK= 0.15E-05
 bond charge predicted
       N       E                     dE             d eps       ncg     rms          rms(c)
DAV:   1    -0.240045105075E+02   -0.34618E-02   -0.17080E+00    64   0.123E+01    0.535E-01
RMM:   2    -0.240082757490E+02   -0.37652E-02   -0.59254E-02    64   0.191E+00    0.572E-01
RMM:   3    -0.240050056252E+02    0.32701E-02   -0.65487E-03    64   0.624E-01    0.311E-01
RMM:   4    -0.240032499668E+02    0.17557E-02   -0.49817E-03    64   0.451E-01    0.155E-01
RMM:   5    -0.240032647584E+02   -0.14792E-04   -0.48316E-03    64   0.421E-01    0.103E-01
RMM:   6    -0.240031413410E+02    0.12342E-03   -0.16380E-03    64   0.242E-01    0.831E-02
RMM:   7    -0.240029936592E+02    0.14768E-03   -0.24214E-04    64   0.108E-01    0.630E-02
RMM:   8    -0.240028612264E+02    0.13243E-03   -0.43151E-04    64   0.128E-01    0.406E-02
RMM:   9    -0.240027993098E+02    0.61917E-04   -0.19093E-04    64   0.920E-02    0.293E-02
RMM:  10    -0.240028086770E+02   -0.93672E-05   -0.34489E-05    64   0.386E-02    0.248E-02
RMM:  11    -0.240028101495E+02   -0.14725E-05   -0.17503E-05    64   0.262E-02    0.186E-02
RMM:  12    -0.240028083728E+02    0.17767E-05   -0.27058E-05    64   0.326E-02    0.134E-02
RMM:  13    -0.240028083981E+02   -0.25305E-07   -0.11345E-05    64   0.217E-02    0.861E-03
RMM:  14    -0.240028092681E+02   -0.86997E-06   -0.18717E-05    64   0.273E-02    0.222E-03
RMM:  15    -0.240028130893E+02   -0.38212E-05   -0.76605E-07    48   0.741E-03    0.167E-03
RMM:  16    -0.240028140748E+02   -0.98550E-06   -0.16587E-06    48   0.900E-03
    2 T=    78. E= -.23962425E+02 F= -.24002814E+02 E0= -.24012191E+02  EK= 0.40247E-01 SP= 0.87E-04 SK= 0.55E-04
 bond charge predicted
 prediction of wavefunctions
       N       E                     dE             d eps       ncg     rms          rms(c)
DAV:   1    -0.240081485917E+02   -0.53355E-02   -0.11436E+00    64   0.105E+01    0.647E-01
RMM:   2    -0.240127361083E+02   -0.45875E-02   -0.64489E-02    64   0.180E+00    0.687E-01
RMM:   3    -0.240030230133E+02    0.97131E-02   -0.15028E-02    64   0.824E-01    0.331E-01
RMM:   4    -0.240023473507E+02    0.67566E-03   -0.12750E-02    64   0.731E-01    0.261E-01
RMM:   5    -0.240002850427E+02    0.20623E-02   -0.43109E-03    64   0.428E-01    0.102E-01
RMM:   6    -0.240001849974E+02    0.10005E-03   -0.70475E-04    64   0.172E-01    0.763E-02
RMM:   7    -0.240002208373E+02   -0.35840E-04   -0.26113E-04    64   0.107E-01    0.676E-02
RMM:   8    -0.240001308283E+02    0.90009E-04   -0.38487E-04    64   0.117E-01    0.336E-02
RMM:   9    -0.240001203916E+02    0.10437E-04   -0.16525E-04    64   0.819E-02    0.150E-02
RMM:  10    -0.240001352897E+02   -0.14898E-04   -0.20264E-05    64   0.306E-02    0.728E-03
RMM:  11    -0.240001495556E+02   -0.14266E-04   -0.13359E-05    64   0.236E-02    0.620E-03
RMM:  12    -0.240001609057E+02   -0.11350E-04   -0.25344E-06    56   0.100E-02    0.430E-03
RMM:  13    -0.240001634472E+02   -0.25416E-05   -0.88894E-07    48   0.625E-03    0.291E-03
RMM:  14    -0.240001651386E+02   -0.16914E-05   -0.12797E-06    48   0.771E-03    0.590E-04
RMM:  15    -0.240001657288E+02   -0.59014E-06   -0.24990E-07    48   0.428E-03
    3 T=    80. E= -.23957856E+02 F= -.24000166E+02 E0= -.24004086E+02  EK= 0.41464E-01 SP= 0.53E-03 SK= 0.32E-03
 bond charge predicted
 prediction of wavefunctions
       N       E                     dE             d eps       ncg     rms          rms(c)
DAV:   1    -0.240149730696E+02   -0.14808E-01   -0.42996E-01    64   0.650E+00    0.663E-01
RMM:   2    -0.240179228322E+02   -0.29498E-02   -0.10198E-01    64   0.206E+00    0.585E-01
RMM:   3    -0.240048568871E+02    0.13066E-01   -0.43758E-02    64   0.123E+00    0.195E-01
RMM:   4    -0.240056415628E+02   -0.78468E-03   -0.53163E-03    64   0.463E-01    0.155E-01
RMM:   5    -0.240053457172E+02    0.29585E-03   -0.27524E-03    64   0.339E-01    0.569E-02
RMM:   6    -0.240054009890E+02   -0.55272E-04   -0.77316E-04    64   0.177E-01    0.311E-02
RMM:   7    -0.240054788089E+02   -0.77820E-04   -0.14326E-04    64   0.801E-02    0.104E-02
RMM:   8    -0.240055159068E+02   -0.37098E-04   -0.32753E-05    64   0.372E-02    0.810E-03
RMM:   9    -0.240055401125E+02   -0.24206E-04   -0.15657E-05    64   0.235E-02    0.372E-03
RMM:  10    -0.240055450598E+02   -0.49473E-05   -0.22474E-06    52   0.101E-02    0.228E-03
RMM:  11    -0.240055501840E+02   -0.51241E-05   -0.23699E-06    56   0.969E-03    0.225E-03
RMM:  12    -0.240055508888E+02   -0.70489E-06   -0.35027E-07    48   0.430E-03
    4 T=    74. E= -.23965391E+02 F= -.24005551E+02 E0= -.24009453E+02  EK= 0.38053E-01 SP= 0.14E-02 SK= 0.75E-03
 bond charge predicted
 prediction of wavefunctions
       N       E                     dE             d eps       ncg     rms          rms(c)
DAV:   1    -0.240076507734E+02   -0.21006E-02   -0.77865E-01    64   0.820E+00    0.479E-01
RMM:   2    -0.240136435873E+02   -0.59928E-02   -0.14024E-01    64   0.217E+00    0.646E-01
RMM:   3    -0.240080661386E+02    0.55774E-02   -0.13994E-01    64   0.212E+00    0.420E-01
RMM:   4    -0.240024252939E+02    0.56408E-02   -0.10803E-02    64   0.646E-01    0.171E-01
RMM:   5    -0.240019355766E+02    0.48972E-03   -0.80871E-03    64   0.541E-01    0.754E-02
RMM:   6    -0.240018840329E+02    0.51544E-04   -0.31119E-04    64   0.134E-01    0.503E-02
RMM:   7    -0.240018710702E+02    0.12963E-04   -0.20733E-04    64   0.840E-02    0.449E-02
RMM:   8    -0.240018251957E+02    0.45875E-04   -0.21232E-04    64   0.903E-02    0.332E-02
RMM:   9    -0.240018288844E+02   -0.36888E-05   -0.84299E-05    64   0.574E-02    0.388E-02
RMM:  10    -0.240018646416E+02   -0.35757E-04   -0.55052E-05    64   0.466E-02    0.414E-02
RMM:  11    -0.240019067508E+02   -0.42109E-04   -0.73670E-05    64   0.504E-02    0.479E-02
RMM:  12    -0.240020785469E+02   -0.17180E-03   -0.99242E-04    64   0.194E-01    0.498E-02
RMM:  13    -0.240018671958E+02    0.21135E-03   -0.31100E-04    64   0.111E-01    0.351E-02
RMM:  14    -0.240020894872E+02   -0.22229E-03   -0.64743E-04    64   0.157E-01    0.512E-02
RMM:  15    -0.240018405195E+02    0.24897E-03   -0.30823E-03    64   0.337E-01    0.395E-02
RMM:  16    -0.240016570900E+02    0.18343E-03   -0.10004E-03    64   0.196E-01    0.516E-02
RMM:  17    -0.240019957364E+02   -0.33865E-03   -0.22302E-03    64   0.292E-01    0.325E-02
RMM:  18    -0.240030826902E+02   -0.10870E-02   -0.68462E-03    64   0.508E-01    0.124E-01
RMM:  19    -0.240043858426E+02   -0.13032E-02   -0.17641E-03    64   0.267E-01    0.198E-01
RMM:  20    -0.240036773276E+02    0.70852E-03   -0.20259E-04    64   0.988E-02    0.156E-01
RMM:  21    -0.240030812102E+02    0.59612E-03   -0.42524E-04    64   0.126E-01    0.113E-01
RMM:  22    -0.240026152519E+02    0.46596E-03   -0.61723E-04    64   0.153E-01    0.720E-02
RMM:  23    -0.240023739363E+02    0.24132E-03   -0.48138E-04    64   0.136E-01    0.462E-02
RMM:  24    -0.240022360044E+02    0.13793E-03   -0.37215E-04    64   0.120E-01    0.320E-02
RMM:  25    -0.240021789680E+02    0.57036E-04   -0.14577E-04    64   0.770E-02    0.275E-02
RMM:  26    -0.240021618233E+02    0.17145E-04   -0.23176E-05    64   0.329E-02    0.263E-02
RMM:  27    -0.240021554771E+02    0.63461E-05   -0.29527E-06    60   0.129E-02    0.256E-02
RMM:  28    -0.240021430117E+02    0.12465E-04   -0.82363E-06    64   0.187E-02    0.246E-02
RMM:  29    -0.240021086386E+02    0.34373E-04   -0.43663E-05    64   0.416E-02    0.245E-02
RMM:  30    -0.240020154481E+02    0.93190E-04   -0.21225E-04    64   0.899E-02    0.296E-02
RMM:  31    -0.240019617274E+02    0.53721E-04   -0.93181E-05    64   0.606E-02    0.335E-02
RMM:  32    -0.240019298983E+02    0.31829E-04   -0.27775E-05    64   0.343E-02    0.353E-02
RMM:  33    -0.240019332823E+02   -0.33841E-05   -0.11146E-06    48   0.103E-02    0.341E-02
RMM:  34    -0.240018947501E+02    0.38532E-04   -0.25295E-05    64   0.314E-02    0.376E-02
RMM:  35    -0.240018811015E+02    0.13649E-04   -0.27590E-06    56   0.115E-02    0.381E-02
RMM:  36    -0.240018766292E+02    0.44723E-05   -0.42361E-07    48   0.554E-03    0.382E-02
RMM:  37    -0.240018825318E+02   -0.59027E-05   -0.51128E-07    48   0.483E-03    0.375E-02
RMM:  38    -0.240018975749E+02   -0.15043E-04   -0.39881E-06    56   0.125E-02    0.364E-02
RMM:  39    -0.240019026674E+02   -0.50925E-05   -0.38371E-07    48   0.496E-03    0.363E-02
RMM:  40    -0.240019501202E+02   -0.47453E-04   -0.45235E-05    64   0.411E-02    0.317E-02
RMM:  41    -0.240020093761E+02   -0.59256E-04   -0.84864E-05    64   0.566E-02    0.269E-02
RMM:  42    -0.240020664944E+02   -0.57118E-04   -0.97862E-05    64   0.615E-02    0.240E-02
RMM:  43    -0.240021252908E+02   -0.58796E-04   -0.12449E-04    64   0.696E-02    0.234E-02
RMM:  44    -0.240021714589E+02   -0.46168E-04   -0.68255E-05    64   0.523E-02    0.251E-02
RMM:  45    -0.240021867681E+02   -0.15309E-04   -0.72525E-06    64   0.191E-02    0.259E-02
RMM:  46    -0.240021849963E+02    0.17718E-05   -0.48604E-07    48   0.635E-03    0.258E-02
RMM:  47    -0.240021800046E+02    0.49917E-05   -0.88093E-07    48   0.631E-03    0.255E-02
RMM:  48    -0.240021274142E+02    0.52590E-04   -0.85281E-05    64   0.571E-02    0.247E-02
RMM:  49    -0.240020727444E+02    0.54670E-04   -0.96858E-05    64   0.610E-02    0.261E-02
RMM:  50    -0.240020816291E+02   -0.88847E-05   -0.16569E-06    48   0.134E-02    0.248E-02
RMM:  51    -0.240020943394E+02   -0.12710E-04   -0.70940E-06    64   0.162E-02    0.242E-02
RMM:  52    -0.240021412633E+02   -0.46924E-04   -0.93308E-05    64   0.595E-02    0.237E-02
RMM:  53    -0.240022307882E+02   -0.89525E-04   -0.27338E-04    64   0.102E-01    0.298E-02
RMM:  54    -0.240022485425E+02   -0.17754E-04   -0.84601E-06    64   0.237E-02    0.305E-02
RMM:  55    -0.240022611982E+02   -0.12656E-04   -0.47702E-06    60   0.146E-02    0.317E-02
RMM:  56    -0.240022626027E+02   -0.14045E-05   -0.20731E-07    48   0.438E-03    0.317E-02
RMM:  57    -0.240022614064E+02    0.11963E-05   -0.61212E-08    48   0.231E-03    0.316E-02
RMM:  58    -0.240022872989E+02   -0.25893E-04   -0.13686E-05    64   0.231E-02    0.344E-02
RMM:  59    -0.240022789981E+02    0.83009E-05   -0.11641E-06    48   0.761E-03    0.335E-02
RMM:  60    -0.240022627227E+02    0.16275E-04   -0.59781E-06    64   0.151E-02
    5 T=    67. E= -.23963922E+02 F= -.24002263E+02 E0= -.24007877E+02  EK= 0.34658E-01 SP= 0.25E-02 SK= 0.12E-02
 bond charge predicted
 prediction of wavefunctions
       N       E                     dE             d eps       ncg     rms          rms(c)
DAV:   1    -0.239830094774E+02    0.19270E-01   -0.62264E-01    64   0.773E+00    0.332E-01
RMM:   2    -0.244444974761E+02   -0.46149E+00   -0.16075E+00    64   0.738E+00    0.293E+00
RMM:   3    -0.363414615142E+02   -0.11897E+02   -0.61617E+01    64   0.470E+01    0.187E+01
RMM:   4    -0.262323995156E+02    0.10109E+02   -0.11302E+01    64   0.209E+01    0.767E+00
RMM:   5    -0.282000545079E+02   -0.19677E+01   -0.88628E-01    64   0.604E+00    0.103E+01
RMM:   6    -0.342038615921E+02   -0.60038E+01   -0.64663E+00    64   0.157E+01    0.165E+01
RMM:   7    -0.343364306360E+02   -0.13257E+00   -0.27107E-01    64   0.352E+00    0.167E+01
RMM:   8    -0.329731222025E+02    0.13633E+01   -0.19884E-01    64   0.330E+00    0.153E+01
RMM:   9    -0.329558051903E+02    0.17317E-01   -0.50434E-03    64   0.514E-01    0.153E+01
RMM:  10    -0.182775403626E+02    0.14678E+02   -0.41104E+01    64   0.368E+02    0.270E+01
RMM:  11    -0.297078700149E+02   -0.11430E+02   -0.39812E+01    96   0.639E+01    0.278E+01
RMM:  12    -0.370941962696E+02   -0.73863E+01   -0.47243E+01    64   0.533E+01    0.278E+01
RMM:  13    -0.737183814536E+02   -0.36624E+02   -0.10155E+02    92   0.660E+01    0.368E+01
RMM:  14    -0.689790939070E+02    0.47393E+01   -0.35060E+00    71   0.135E+01    0.358E+01
RMM:  15    -0.694773861449E+02   -0.49829E+00   -0.31226E-01    83   0.352E+00    0.360E+01
RMM:  16    -0.694542970852E+02    0.23089E-01   -0.26634E-02    80   0.104E+00    0.361E+01
RMM:  17    -0.680123443592E+02    0.14420E+01   -0.19263E-02    68   0.101E+00    0.356E+01
RMM:  18    -0.319300054655E+02    0.36082E+02   -0.39460E+01    68   0.192E+02    0.330E+01
RMM:  19    -0.419588159143E+02   -0.10029E+02   -0.15889E+02   104   0.100E+02    0.260E+01
RMM:  20    -0.449006630222E+02   -0.29418E+01   -0.62496E+01    77   0.479E+01    0.240E+01
RMM:  21    -0.259922012438E+02    0.18908E+02   -0.12454E+02    72   0.572E+01    0.683E+00
RMM:  22    -0.253540321023E+02    0.63817E+00   -0.43301E+00    64   0.162E+01    0.568E+00
RMM:  23    -0.240598162230E+02    0.12942E+01   -0.56692E+00    64   0.148E+01    0.166E+00
RMM:  24    -0.246973015215E+02   -0.63749E+00   -0.19020E+00    64   0.839E+00    0.405E+00
RMM:  25    -0.243431433264E+02    0.35416E+00   -0.13584E-01    64   0.260E+00    0.290E+00
RMM:  26    -0.239966467802E+02    0.34650E+00   -0.77176E-01    64   0.528E+00    0.718E-01
RMM:  27    -0.244205657701E+02   -0.42392E+00   -0.74853E-01    64   0.529E+00    0.319E+00
RMM:  28    -0.273364203401E+02   -0.29159E+01   -0.49341E+00    64   0.134E+01    0.892E+00
RMM:  29    -0.268117025258E+02    0.52472E+00   -0.72636E-02    64   0.228E+00    0.825E+00
RMM:  30    -0.254611209228E+02    0.13506E+01   -0.72451E-01    64   0.507E+00    0.597E+00
RMM:  31    -0.243816269113E+02    0.10795E+01   -0.12753E+00    64   0.679E+00    0.315E+00
RMM:  32    -0.240565339769E+02    0.32509E+00   -0.60898E-01    64   0.476E+00    0.142E+00
RMM:  33    -0.239885234529E+02    0.68011E-01   -0.22323E-01    64   0.299E+00    0.507E-01
RMM:  34    -0.240173301740E+02   -0.28807E-01   -0.31329E-02    64   0.120E+00    0.961E-01
RMM:  35    -0.241205136924E+02   -0.10318E+00   -0.92825E-01    64   0.583E+00    0.171E+00
RMM:  36    -0.246420012237E+02   -0.52149E+00   -0.78026E-01    64   0.539E+00    0.380E+00
RMM:  37    -0.241685939371E+02    0.47341E+00   -0.31133E-01    64   0.345E+00    0.205E+00
RMM:  38    -0.241447618826E+02    0.23832E-01   -0.12707E-02    64   0.742E-01    0.188E+00
RMM:  39    -0.239969045550E+02    0.14786E+00   -0.25187E-01    64   0.308E+00    0.614E-01
RMM:  40    -0.239933854729E+02    0.35191E-02   -0.11845E-02    64   0.752E-01    0.502E-01
RMM:  41    -0.239820863680E+02    0.11299E-01   -0.37311E-02    64   0.121E+00    0.317E-01
RMM:  42    -0.239908893820E+02   -0.88030E-02   -0.15801E-02    64   0.779E-01    0.419E-01
RMM:  43    -0.239857929893E+02    0.50964E-02   -0.23645E-03    64   0.306E-01    0.328E-01
RMM:  44    -0.240736251487E+02   -0.87832E-01   -0.17818E-01    64   0.257E+00    0.134E+00
RMM:  45    -0.240663434199E+02    0.72817E-02   -0.28127E-03    68   0.416E-01    0.131E+00
RMM:  46    -0.240605722719E+02    0.57711E-02   -0.27064E-04    64   0.113E-01    0.127E+00
RMM:  47    -0.240585817986E+02    0.19905E-02   -0.54050E-05    64   0.453E-02    0.125E+00
RMM:  48    -0.240549238884E+02    0.36579E-02   -0.20154E-04    64   0.780E-02    0.123E+00
RMM:  49    -0.239826370093E+02    0.72287E-01   -0.18135E-01    64   0.258E+00    0.251E-01
RMM:  50    -0.239834806901E+02   -0.84368E-03   -0.48212E-03    68   0.521E-01    0.232E-01
RMM:  51    -0.239836863463E+02   -0.20566E-03   -0.23938E-04    64   0.117E-01    0.235E-01
RMM:  52    -0.239832906148E+02    0.39573E-03   -0.23536E-04    64   0.922E-02    0.216E-01
RMM:  53    -0.239831955362E+02    0.95079E-04   -0.46647E-05    64   0.396E-02    0.205E-01
RMM:  54    -0.239829358330E+02    0.25970E-03   -0.49283E-04    64   0.118E-01    0.180E-01
RMM:  55    -0.239828166152E+02    0.11922E-03   -0.13810E-04    64   0.674E-02    0.170E-01
RMM:  56    -0.239825333771E+02    0.28324E-03   -0.37970E-04    64   0.104E-01    0.147E-01
RMM:  57    -0.239825294553E+02    0.39218E-05   -0.47877E-05    64   0.423E-02    0.144E-01
RMM:  58    -0.239825391374E+02   -0.96821E-05   -0.24386E-04    64   0.858E-02    0.141E-01
RMM:  59    -0.239828337989E+02   -0.29466E-03   -0.16944E-04    64   0.797E-02    0.145E-01
RMM:  60    -0.239827381807E+02    0.95618E-04   -0.64446E-04    64   0.138E-01
    6 T=    63. E= -.23944558E+02 F= -.23982738E+02 E0= -.23987058E+02  EK= 0.32748E-01 SP= 0.38E-02 SK= 0.16E-02
 bond charge predicted
 prediction of wavefunctions
       N       E                     dE             d eps       ncg     rms          rms(c)
DAV:   1    -0.240154473504E+02   -0.32614E-01   -0.11945E+00    64   0.104E+01    0.605E-01
RMM:   2    -0.240630466637E+02   -0.47599E-01   -0.18874E-01    64   0.262E+00    0.115E+00
RMM:   3    -0.240102754531E+02    0.52771E-01   -0.28291E-01    64   0.292E+00    0.505E-01
RMM:   4    -0.240109400062E+02   -0.66455E-03   -0.20697E-02    64   0.900E-01    0.648E-01
RMM:   5    -0.240080079183E+02    0.29321E-02   -0.55749E-02    64   0.130E+00    0.317E-01
RMM:   6    -0.240073180772E+02    0.68984E-03   -0.15456E-03    64   0.302E-01    0.270E-01
RMM:   7    -0.240062376489E+02    0.10804E-02   -0.31153E-03    64   0.314E-01    0.259E-01
RMM:   8    -0.240057329788E+02    0.50467E-03   -0.11108E-03    64   0.194E-01    0.275E-01
RMM:   9    -0.240056320710E+02    0.10091E-03   -0.87922E-03    64   0.560E-01    0.408E-01
RMM:  10    -0.240189367295E+02   -0.13305E-01   -0.15058E-02    64   0.703E-01    0.101E+00
RMM:  11    -0.240166905867E+02    0.22461E-02   -0.11619E-02    64   0.650E-01    0.671E-01
RMM:  12    -0.240127179275E+02    0.39727E-02   -0.16354E-03    64   0.270E-01    0.668E-01
RMM:  13    -0.240191717070E+02   -0.64538E-02   -0.16398E-03    64   0.243E-01    0.828E-01
RMM:  14    -0.240190845039E+02    0.87203E-04   -0.70577E-05    68   0.648E-02    0.828E-01
RMM:  15    -0.240203537630E+02   -0.12693E-02   -0.25450E-04    64   0.917E-02    0.838E-01
RMM:  16    -0.240108046033E+02    0.95492E-02   -0.65114E-03    64   0.456E-01    0.530E-01
RMM:  17    -0.240084044837E+02    0.24001E-02   -0.15207E-03    64   0.237E-01    0.468E-01
RMM:  18    -0.240082260822E+02    0.17840E-03   -0.16393E-03    64   0.242E-01    0.515E-01
RMM:  19    -0.240054931863E+02    0.27329E-02   -0.16473E-03    64   0.234E-01    0.355E-01
RMM:  20    -0.240056430773E+02   -0.14989E-03   -0.17627E-02    64   0.736E-01    0.440E-01
RMM:  21    -0.240048812260E+02    0.76185E-03   -0.15826E-03    64   0.278E-01    0.227E-01
RMM:  22    -0.240045272106E+02    0.35402E-03   -0.77756E-04    64   0.173E-01    0.156E-01
RMM:  23    -0.240044493449E+02    0.77866E-04   -0.11957E-04    64   0.684E-02    0.137E-01
RMM:  24    -0.240043101391E+02    0.13921E-03   -0.72334E-04    64   0.147E-01    0.122E-01
RMM:  25    -0.240041280145E+02    0.18212E-03   -0.48241E-04    64   0.133E-01    0.393E-02
RMM:  26    -0.240041773727E+02   -0.49358E-04   -0.18102E-04    64   0.859E-02    0.361E-02
RMM:  27    -0.240041640145E+02    0.13358E-04   -0.53154E-05    64   0.459E-02    0.165E-02
RMM:  28    -0.240042053209E+02   -0.41306E-04   -0.53567E-05    64   0.442E-02    0.320E-02
RMM:  29    -0.240042103864E+02   -0.50655E-05   -0.41369E-06    60   0.143E-02    0.246E-02
RMM:  30    -0.240042145348E+02   -0.41484E-05   -0.43467E-05    64   0.390E-02    0.979E-03
RMM:  31    -0.240042224892E+02   -0.79544E-05   -0.36140E-06    60   0.130E-02    0.126E-02
RMM:  32    -0.240042287858E+02   -0.62965E-05   -0.31121E-06    56   0.110E-02    0.797E-03
RMM:  33    -0.240042353326E+02   -0.65468E-05   -0.96766E-07    48   0.736E-03    0.518E-03
RMM:  34    -0.240042372194E+02   -0.18868E-05   -0.95572E-07    48   0.681E-03    0.846E-04
RMM:  35    -0.240042391107E+02   -0.18913E-05   -0.57213E-07    48   0.538E-03    0.263E-03
RMM:  36    -0.240042393323E+02   -0.22159E-06   -0.90954E-08    44   0.254E-03
    7 T=    92. E= -.23948550E+02 F= -.24004239E+02 E0= -.24012725E+02  EK= 0.47826E-01 SP= 0.53E-02 SK= 0.25E-02
 bond charge predicted
 prediction of wavefunctions
       N       E                     dE             d eps       ncg     rms          rms(c)
DAV:   1    -0.239774661519E+02    0.26773E-01   -0.52750E-01    64   0.689E+00    0.647E-01
RMM:   2    -0.239725365973E+02    0.49296E-02   -0.53994E-02    64   0.163E+00    0.343E-01
RMM:   3    -0.239716603261E+02    0.87627E-03   -0.10594E-02    64   0.709E-01    0.236E-01
RMM:   4    -0.239715163886E+02    0.14394E-03   -0.38571E-03    64   0.398E-01    0.701E-02
RMM:   5    -0.239719294816E+02   -0.41309E-03   -0.41498E-04    64   0.141E-01    0.823E-02
RMM:   6    -0.239721833233E+02   -0.25384E-03   -0.24564E-04    64   0.913E-02    0.877E-02
RMM:   7    -0.239721088161E+02    0.74507E-04   -0.12056E-04    64   0.647E-02    0.446E-02
RMM:   8    -0.239721436284E+02   -0.34812E-04   -0.19450E-05    64   0.280E-02    0.430E-02
RMM:   9    -0.239721480320E+02   -0.44036E-05   -0.21782E-05    64   0.310E-02    0.275E-02
RMM:  10    -0.239721486958E+02   -0.66383E-06   -0.87353E-06    64   0.187E-02
    8 T=    49. E= -.23935876E+02 F= -.23972149E+02 E0= -.23980768E+02  EK= 0.25577E-01 SP= 0.74E-02 SK= 0.33E-02
 bond charge predicted
 prediction of wavefunctions
       N       E                     dE             d eps       ncg     rms          rms(c)
DAV:   1    -0.239983905554E+02   -0.26243E-01   -0.49463E-01    64   0.685E+00    0.318E-01
RMM:   2    -0.240066686565E+02   -0.82781E-02   -0.84146E-02    64   0.184E+00    0.474E-01
RMM:   3    -0.240235084863E+02   -0.16840E-01   -0.24566E-02    64   0.103E+00    0.747E-01
RMM:   4    -0.240033950044E+02    0.20113E-01   -0.32271E-02    64   0.106E+00    0.403E-01
RMM:   5    -0.240003861997E+02    0.30088E-02   -0.41129E-03    64   0.427E-01    0.251E-01
RMM:   6    -0.239989370655E+02    0.14491E-02   -0.24117E-03    64   0.316E-01    0.157E-01
RMM:   7    -0.239983648307E+02    0.57223E-03   -0.78351E-04    64   0.185E-01    0.108E-01
RMM:   8    -0.239980247655E+02    0.34007E-03   -0.63666E-04    64   0.162E-01    0.685E-02
RMM:   9    -0.239978267162E+02    0.19805E-03   -0.79807E-04    64   0.184E-01    0.280E-02
RMM:  10    -0.239977999136E+02    0.26803E-04   -0.23323E-04    64   0.989E-02    0.193E-02
RMM:  11    -0.239978109887E+02   -0.11075E-04   -0.63623E-05    64   0.551E-02    0.111E-02
RMM:  12    -0.239978195170E+02   -0.85283E-05   -0.65175E-06    64   0.190E-02    0.932E-03
RMM:  13    -0.239978255622E+02   -0.60452E-05   -0.29525E-06    57   0.124E-02    0.783E-03
RMM:  14    -0.239978234012E+02    0.21610E-05   -0.10879E-05    64   0.205E-02    0.637E-03
RMM:  15    -0.239978232952E+02    0.10600E-06   -0.26127E-06    56   0.108E-02
    9 T=    69. E= -.23948905E+02 F= -.23997823E+02 E0= -.24003722E+02  EK= 0.35763E-01 SP= 0.94E-02 SK= 0.37E-02
 bond charge predicted
 prediction of wavefunctions
       N       E                     dE             d eps       ncg     rms          rms(c)
DAV:   1    -0.240149650683E+02   -0.17142E-01   -0.31228E-01    64   0.560E+00    0.568E-01
RMM:   2    -0.240362018325E+02   -0.21237E-01   -0.68494E-02    64   0.161E+00    0.752E-01
RMM:   3    -0.240106206772E+02    0.25581E-01   -0.56579E-02    64   0.133E+00    0.508E-01
RMM:   4    -0.240258433806E+02   -0.15223E-01   -0.37106E-02    64   0.120E+00    0.601E-01
RMM:   5    -0.240250577941E+02    0.78559E-03   -0.92545E-03    64   0.599E-01    0.532E-01
RMM:   6    -0.240242071282E+02    0.85067E-03   -0.13697E-03    64   0.247E-01    0.498E-01
RMM:   7    -0.240153370016E+02    0.88701E-02   -0.11487E-02    64   0.633E-01    0.354E-01
RMM:   8    -0.240107977584E+02    0.45392E-02   -0.38529E-03    64   0.400E-01    0.427E-01
RMM:   9    -0.240106187432E+02    0.17902E-03   -0.13743E-04    64   0.991E-02    0.422E-01
RMM:  10    -0.240101921235E+02    0.42662E-03   -0.52125E-05    68   0.487E-02    0.432E-01
RMM:  11    -0.240109259511E+02   -0.73383E-03   -0.95105E-05    64   0.618E-02    0.403E-01
RMM:  12    -0.240173944471E+02   -0.64685E-02   -0.66729E-03    64   0.488E-01    0.322E-01
RMM:  13    -0.240217438051E+02   -0.43494E-02   -0.29928E-03    64   0.348E-01    0.398E-01
RMM:  14    -0.240173996748E+02    0.43441E-02   -0.18564E-03    64   0.268E-01    0.329E-01
RMM:  15    -0.240134819562E+02    0.39177E-02   -0.27374E-03    64   0.320E-01    0.342E-01
RMM:  16    -0.240024875017E+02    0.10994E-01   -0.13207E-02    64   0.713E-01    0.363E-01
RMM:  17    -0.240021588096E+02    0.32869E-03   -0.43365E-04    64   0.165E-01    0.351E-01
RMM:  18    -0.240019971607E+02    0.16165E-03   -0.50415E-05    68   0.549E-02    0.347E-01
RMM:  19    -0.240021954656E+02   -0.19830E-03   -0.86766E-06    64   0.216E-02    0.359E-01
RMM:  20    -0.240021783009E+02    0.17165E-04   -0.22678E-07    48   0.469E-03    0.359E-01
RMM:  21    -0.240021884921E+02   -0.10191E-04   -0.15560E-06    52   0.791E-03    0.362E-01
RMM:  22    -0.240022697575E+02   -0.81265E-04   -0.19841E-05    64   0.262E-02    0.372E-01
RMM:  23    -0.240044183418E+02   -0.21486E-02   -0.47396E-04    64   0.139E-01    0.444E-01
RMM:  24    -0.240039189839E+02    0.49936E-03   -0.52975E-05    64   0.469E-02    0.425E-01
RMM:  25    -0.240040979426E+02   -0.17896E-03   -0.49755E-06    64   0.153E-02    0.428E-01
RMM:  26    -0.240031677652E+02    0.93018E-03   -0.12507E-04    64   0.705E-02    0.413E-01
RMM:  27    -0.240000035420E+02    0.31642E-02   -0.28214E-03    64   0.332E-01    0.167E-01
RMM:  28    -0.240010775952E+02   -0.10741E-02   -0.47715E-04    64   0.143E-01    0.298E-01
RMM:  29    -0.239998770332E+02    0.12006E-02   -0.11764E-03    64   0.213E-01    0.114E-01
RMM:  30    -0.239998380495E+02    0.38984E-04   -0.13350E-04    64   0.797E-02    0.601E-02
RMM:  31    -0.239999428642E+02   -0.10481E-03   -0.15893E-04    64   0.795E-02    0.123E-01
RMM:  32    -0.239998418601E+02    0.10100E-03   -0.11689E-04    64   0.691E-02    0.476E-02
RMM:  33    -0.239998721167E+02   -0.30257E-04   -0.16144E-05    64   0.303E-02    0.499E-02
RMM:  34    -0.239998581615E+02    0.13955E-04   -0.55534E-05    64   0.471E-02    0.326E-02
RMM:  35    -0.239998614717E+02   -0.33102E-05   -0.76669E-06    64   0.189E-02    0.327E-02
RMM:  36    -0.239998660127E+02   -0.45410E-05   -0.21016E-05    64   0.294E-02    0.295E-02
RMM:  37    -0.239998680010E+02   -0.19883E-05   -0.26454E-06    56   0.128E-02    0.354E-02
RMM:  38    -0.239998542770E+02    0.13724E-04   -0.59870E-06    64   0.153E-02    0.115E-02
RMM:  39    -0.239998589495E+02   -0.46725E-05   -0.23269E-06    56   0.104E-02    0.330E-03
RMM:  40    -0.239998608757E+02   -0.19262E-05   -0.26571E-07    48   0.468E-03    0.353E-03
RMM:  41    -0.239998614366E+02   -0.56088E-06   -0.28120E-07    48   0.393E-03
   10 T=    99. E= -.23931670E+02 F= -.23999861E+02 E0= -.24012464E+02  EK= 0.51074E-01 SP= 0.12E-01 SK= 0.54E-02
 bond charge predicted
 prediction of wavefunctions
 wavefunctions rotated
