<?xml version="1.0" encoding="ISO-8859-1"?>
<modeling>
 <generator>
  <i name="program" type="string">vasp </i>
  <i name="version" type="string">5.4.4.18Apr17-6-g9f103f2a35  </i>
  <i name="subversion" type="string">(build Jul 12 2018 13:43:46) complex            parallel </i>
  <i name="platform" type="string">LinuxGNU </i>
  <i name="date" type="string">2019 06 22 </i>
  <i name="time" type="string">02:17:32 </i>
 </generator>
 <incar>
  <i type="int" name="ISTART">     0</i>
  <i type="string" name="PREC">a</i>
  <i type="string" name="ALGO">fast</i>
  <i type="int" name="MAXMIX">    50</i>
  <i type="int" name="ICHARG">     2</i>
  <i type="int" name="IBRION">     0</i>
  <i name="EDIFF">      0.00000100</i>
  <i type="int" name="NSW">    10</i>
  <i type="int" name="ISIF">     2</i>
  <i type="int" name="ISYM">     0</i>
  <i type="int" name="NBLOCK">     1</i>
  <i type="int" name="KBLOCK">   100</i>
  <i name="ENCUT">    400.00000000</i>
  <i name="POTIM">      2.00000000</i>
  <i name="TEBEG">     50.00000000</i>
  <i name="TEEND">     50.00000000</i>
  <i name="SMASS">      0.00000000</i>
  <i type="logical" name="LREAL"> T  </i>
  <i type="int" name="ISMEAR">     1</i>
  <i name="SIGMA">      0.20000000</i>
  <i name="KSPACING">      0.50000000</i>
  <i type="logical" name="KGAMMA"> F  </i>
  <i name="PSTRESS">      0.00000000</i>
  <i type="logical" name="LWAVE"> F  </i>
  <i type="logical" name="LCHARG"> F  </i>
  <v type="int" name="KPOINT_BSE">    -1     0     0     0</v>
 </incar>
 <structure name="primitive_cell" >
  <crystal>
   <varray name="basis" >
    <v>       9.90575820       0.00000000       0.00000000 </v>
    <v>       0.18656002      10.09148776       0.00000000 </v>
    <v>      -0.03276051      -0.06924931      10.14326075 </v>
   </varray>
   <i name="volume">   1013.95927077 </i>
   <varray name="rec_basis" >
    <v>       0.10095138      -0.00186628       0.00031331 </v>
    <v>      -0.00000000       0.09909342       0.00067652 </v>
    <v>       0.00000000       0.00000000       0.09858763 </v>
   </varray>
  </crystal>
  <varray name="positions" >
   <v>      -0.46222166       0.40636306       0.36084851 </v>
   <v>      -0.49689044       0.46711383       0.44546440 </v>
   <v>       0.39424537       0.48062904       0.43814584 </v>
   <v>      -0.44799437      -0.43449779       0.44266280 </v>
   <v>      -0.47182415       0.41611025      -0.45991597 </v>
  </varray>
 </structure>
 <varray name="primitive_index" >
  <v type="int" >        1 </v>
  <v type="int" >        5 </v>
  <v type="int" >        2 </v>
  <v type="int" >        3 </v>
  <v type="int" >        4 </v>
 </varray>
 <kpoints>
  <generation param="Monkhorst-Pack">
   <v type="int" name="divisions">       2        2        2 </v>
   <v name="usershift">      0.00000000       0.00000000       0.00000000 </v>
   <v name="genvec1">      0.50000000       0.00000000       0.00000000 </v>
   <v name="genvec2">      0.00000000       0.50000000       0.00000000 </v>
   <v name="genvec3">      0.00000000       0.00000000       0.50000000 </v>
   <v name="shift">      0.50000000       0.50000000       0.50000000 </v>
  </generation>
  <varray name="kpointlist" >
   <v>       0.25000000       0.25000000       0.25000000 </v>
   <v>      -0.25000000       0.25000000       0.25000000 </v>
   <v>       0.25000000      -0.25000000       0.25000000 </v>
   <v>      -0.25000000      -0.25000000       0.25000000 </v>
  </varray>
  <varray name="weights" >
   <v>       0.25000000 </v>
   <v>       0.25000000 </v>
   <v>       0.25000000 </v>
   <v>       0.25000000 </v>
  </varray>
 </kpoints>
 <parameters>
  <separator name="general" >
   <i type="string" name="SYSTEM">unknown system</i>
   <i type="logical" name="LCOMPAT"> F  </i>
  </separator>
  <separator name="electronic" >
   <i type="string" name="PREC">a</i>
   <i name="ENMAX">    400.00000000</i>
   <i name="ENAUG">    644.87300000</i>
   <i name="EDIFF">      0.00000100</i>
   <i type="int" name="IALGO">    68</i>
   <i type="int" name="IWAVPR">    12</i>
   <i type="int" name="NBANDS">     8</i>
   <i name="NELECT">      8.00000000</i>
   <i type="int" name="TURBO">     0</i>
   <i type="int" name="IRESTART">     0</i>
   <i type="int" name="NREBOOT">     0</i>
   <i type="int" name="NMIN">     0</i>
   <i name="EREF">      0.00000000</i>
   <separator name="electronic smearing" >
    <i type="int" name="ISMEAR">     1</i>
    <i name="SIGMA">      0.20000000</i>
    <i name="KSPACING">      0.50000000</i>
    <i type="logical" name="KGAMMA"> F  </i>
   </separator>
   <separator name="electronic projectors" >
    <i type="logical" name="LREAL"> T  </i>
    <v name="ROPT">      0.00000000      0.00000000</v>
    <i type="int" name="LMAXPAW">  -100</i>
    <i type="int" name="LMAXMIX">     2</i>
    <i type="logical" name="NLSPLINE"> F  </i>
   </separator>
   <separator name="electronic startup" >
    <i type="int" name="ISTART">     0</i>
    <i type="int" name="ICHARG">     2</i>
    <i type="int" name="INIWAV">     1</i>
   </separator>
   <separator name="electronic spin" >
    <i type="int" name="ISPIN">     1</i>
    <i type="logical" name="LNONCOLLINEAR"> F  </i>
    <v name="MAGMOM">      1.00000000      1.00000000      1.00000000      1.00000000      1.00000000</v>
    <i name="NUPDOWN">     -1.00000000</i>
    <i type="logical" name="LSORBIT"> F  </i>
    <v name="SAXIS">      0.00000000      0.00000000      1.00000000</v>
    <i type="logical" name="LSPIRAL"> F  </i>
    <v name="QSPIRAL">      0.00000000      0.00000000      0.00000000</v>
    <i type="logical" name="LZEROZ"> F  </i>
   </separator>
   <separator name="electronic exchange-correlation" >
    <i type="logical" name="LASPH"> F  </i>
    <i type="logical" name="LMETAGGA"> F  </i>
   </separator>
   <separator name="electronic convergence" >
    <i type="int" name="NELM">    60</i>
    <i type="int" name="NELMDL">    -5</i>
    <i type="int" name="NELMIN">     2</i>
    <i name="ENINI">    400.00000000</i>
    <separator name="electronic convergence detail" >
     <i type="logical" name="LDIAG"> T  </i>
     <i type="logical" name="LSUBROT"> F  </i>
     <i name="WEIMIN">      0.00100000</i>
     <i name="EBREAK">      0.00000003</i>
     <i name="DEPER">      0.30000000</i>
     <i type="int" name="NRMM">     4</i>
     <i name="TIME">      0.40000000</i>
    </separator>
   </separator>
   <separator name="electronic mixer" >
    <i name="AMIX">      0.40000000</i>
    <i name="BMIX">      1.00000000</i>
    <i name="AMIN">      0.10000000</i>
    <i name="AMIX_MAG">      1.60000000</i>
    <i name="BMIX_MAG">      1.00000000</i>
    <separator name="electronic mixer details" >
     <i type="int" name="IMIX">     4</i>
     <i type="logical" name="MIXFIRST"> F  </i>
     <i type="int" name="MAXMIX">    50</i>
     <i name="WC">    100.00000000</i>
     <i type="int" name="INIMIX">     1</i>
     <i type="int" name="MIXPRE">     1</i>
     <i type="int" name="MREMOVE">     5</i>
    </separator>
   </separator>
   <separator name="electronic dipolcorrection" >
    <i type="logical" name="LDIPOL"> F  </i>
    <i type="logical" name="LMONO"> F  </i>
    <i type="int" name="IDIPOL">     0</i>
    <i name="EPSILON">      1.00000000</i>
    <v name="DIPOL">   -100.00000000   -100.00000000   -100.00000000</v>
    <i name="EFIELD">      0.00000000</i>
   </separator>
  </separator>
  <separator name="grids" >
   <i type="int" name="NGX">    70</i>
   <i type="int" name="NGY">    70</i>
   <i type="int" name="NGZ">    70</i>
   <i type="int" name="NGXF">   140</i>
   <i type="int" name="NGYF">   140</i>
   <i type="int" name="NGZF">   140</i>
   <i type="logical" name="ADDGRID"> F  </i>
  </separator>
  <separator name="ionic" >
   <i type="int" name="NSW">    10</i>
   <i type="int" name="IBRION">     0</i>
   <i type="int" name="MDALGO">     0</i>
   <i type="int" name="ISIF">     2</i>
   <i name="PSTRESS">      0.00000000</i>
   <i name="EDIFFG">      0.00001000</i>
   <i type="int" name="NFREE">     0</i>
   <i name="POTIM">      2.00000000</i>
   <i name="SMASS">      0.00164840</i>
   <i name="SCALEE">      1.00000000</i>
  </separator>
  <separator name="ionic md" >
   <i name="TEBEG">     50.00000000</i>
   <i name="TEEND">     50.00000000</i>
   <i type="int" name="NBLOCK">     1</i>
   <i type="int" name="KBLOCK">     1</i>
   <i type="int" name="NPACO">   256</i>
   <i name="APACO">     16.00000000</i>
  </separator>
  <separator name="symmetry" >
   <i type="int" name="ISYM">     0</i>
   <i name="SYMPREC">      0.00001000</i>
  </separator>
  <separator name="dos" >
   <i type="int" name="LORBIT">     0</i>
   <v name="RWIGS">     -1.00000000     -1.00000000</v>
   <i type="int" name="NEDOS">   301</i>
   <i name="EMIN">     10.00000000</i>
   <i name="EMAX">    -10.00000000</i>
   <i name="EFERMI">      0.00000000</i>
  </separator>
  <separator name="writing" >
   <i type="int" name="NWRITE">     2</i>
   <i type="logical" name="LWAVE"> F  </i>
   <i type="logical" name="LDOWNSAMPLE"> F  </i>
   <i type="logical" name="LCHARG"> F  </i>
   <i type="logical" name="LPARD"> F  </i>
   <i type="logical" name="LVTOT"> F  </i>
   <i type="logical" name="LVHAR"> F  </i>
   <i type="logical" name="LELF"> F  </i>
   <i type="logical" name="LOPTICS"> F  </i>
   <v name="STM">      0.00000000      0.00000000      0.00000000      0.00000000      0.00000000      0.00000000      0.00000000</v>
  </separator>
  <separator name="performance" >
   <i type="int" name="NPAR">     1</i>
   <i type="int" name="NSIM">     4</i>
   <i type="int" name="NBLK">    -1</i>
   <i type="logical" name="LPLANE"> T  </i>
   <i type="logical" name="LSCALAPACK"> T  </i>
   <i type="logical" name="LSCAAWARE"> F  </i>
   <i type="logical" name="LSCALU"> F  </i>
   <i type="logical" name="LASYNC"> F  </i>
   <i type="logical" name="LORBITALREAL"> F  </i>
  </separator>
  <separator name="miscellaneous" >
   <i type="int" name="IDIOT">     3</i>
   <i type="int" name="ISPECIAL">     0</i>
   <i type="logical" name="LMUSIC"> F  </i>
   <v name="POMASS">      1.00000000     12.01100000</v>
   <v name="DARWINR">      0.00000000      0.00000000</v>
   <v name="DARWINV">      1.00000000      1.00000000</v>
   <i type="logical" name="LCORR"> T  </i>
  </separator>
  <i type="logical" name="GGA_COMPAT"> T  </i>
  <i type="logical" name="LBERRY"> F  </i>
  <i type="int" name="ICORELEVEL">     0</i>
  <i type="logical" name="LDAU"> F  </i>
  <i type="int" name="I_CONSTRAINED_M">     0</i>
  <separator name="electronic exchange-correlation" >
   <i type="string" name="GGA">--</i>
   <i type="int" name="VOSKOWN">     0</i>
   <i type="logical" name="LHFCALC"> F  </i>
   <i type="string" name="PRECFOCK"></i>
   <i type="logical" name="LSYMGRAD"> F  </i>
   <i type="logical" name="LHFONE"> F  </i>
   <i type="logical" name="LRHFCALC"> F  </i>
   <i type="logical" name="LTHOMAS"> F  </i>
   <i type="logical" name="LMODELHF"> F  </i>
   <i name="ENCUT4O">     -1.00000000</i>
   <i type="int" name="EXXOEP">     0</i>
   <i type="int" name="FOURORBIT">     0</i>
   <i name="AEXX">      0.00000000</i>
   <i name="HFALPHA">      0.00000000</i>
   <i name="MCALPHA">      0.00000000</i>
   <i name="ALDAX">      1.00000000</i>
   <i name="AGGAX">      1.00000000</i>
   <i name="ALDAC">      1.00000000</i>
   <i name="AGGAC">      1.00000000</i>
   <i type="int" name="NKREDX">     1</i>
   <i type="int" name="NKREDY">     1</i>
   <i type="int" name="NKREDZ">     1</i>
   <i type="logical" name="SHIFTRED"> F  </i>
   <i type="logical" name="ODDONLY"> F  </i>
   <i type="logical" name="EVENONLY"> F  </i>
   <i type="int" name="LMAXFOCK">     0</i>
   <i type="int" name="NMAXFOCKAE">     0</i>
   <i type="logical" name="LFOCKAEDFT"> F  </i>
   <i name="HFSCREEN">      0.00000000</i>
   <i name="HFSCREENC">      0.00000000</i>
   <i type="int" name="NBANDSGWLOW">     0</i>
  </separator>
  <separator name="vdW DFT" >
   <i type="logical" name="LUSE_VDW"> F  </i>
   <i name="Zab_VDW">     -0.84910000</i>
   <i name="PARAM1">      0.12340000</i>
   <i name="PARAM2">      1.00000000</i>
   <i name="PARAM3">      0.00000000</i>
  </separator>
  <separator name="model GW" >
   <i type="int" name="MODEL_GW">     0</i>
   <i name="MODEL_EPS0">    121.67511249</i>
   <i name="MODEL_ALPHA">      1.00000000</i>
  </separator>
  <separator name="linear response parameters" >
   <i type="logical" name="LEPSILON"> F  </i>
   <i type="logical" name="LRPA"> F  </i>
   <i type="logical" name="LNABLA"> F  </i>
   <i type="logical" name="LVEL"> F  </i>
   <i type="int" name="KINTER">     0</i>
   <i name="CSHIFT">      0.10000000</i>
   <i name="OMEGAMAX">     -1.00000000</i>
   <i name="DEG_THRESHOLD">      0.00200000</i>
   <i name="RTIME">     -0.10000000</i>
   <i name="WPLASMAI">      0.00000000</i>
   <v name="DFIELD">      0.00000000      0.00000000      0.00000000</v>
   <v name="WPLASMA">      0.00000000      0.00000000      0.00000000      0.00000000      0.00000000      0.00000000      0.00000000      0.00000000      0.00000000</v>
  </separator>
  <separator name="orbital magnetization" >
   <i type="logical" name="NUCIND"> F  </i>
   <v name="MAGPOS">      0.00000000      0.00000000      0.00000000</v>
   <i type="logical" name="LNICSALL"> T  </i>
   <i type="logical" name="ORBITALMAG"> F  </i>
   <i type="logical" name="LMAGBLOCH"> F  </i>
   <i type="logical" name="LCHIMAG"> F  </i>
   <i type="logical" name="LGAUGE"> T  </i>
   <i type="int" name="MAGATOM">     0</i>
   <v name="MAGDIPOL">      0.00000000      0.00000000      0.00000000</v>
   <v name="AVECCONST">      0.00000000      0.00000000      0.00000000</v>
  </separator>
  <separator name="response functions" >
   <i type="logical" name="LADDER"> F  </i>
   <i type="logical" name="LRPAFORCE"> F  </i>
   <i type="logical" name="LFXC"> F  </i>
   <i type="logical" name="LHARTREE"> T  </i>
   <i type="int" name="IBSE">     0</i>
   <v type="int" name="KPOINT">    -1     0     0     0</v>
   <i type="logical" name="LTCTE"> F  </i>
   <i type="logical" name="LTETE"> F  </i>
   <i type="logical" name="LTRIPLET"> F  </i>
   <i type="logical" name="LFXCEPS"> F  </i>
   <i type="logical" name="LFXHEG"> F  </i>
   <i type="int" name="NATURALO">     2</i>
   <i type="logical" name="L2ORDER"> F  </i>
   <i type="logical" name="LMP2LT"> F  </i>
   <i type="logical" name="LUSEW"> F  </i>
   <i name="ENCUTGW">     -2.00000000</i>
   <i name="ENCUTGWSOFT">     -2.00000000</i>
   <i name="ENCUTLF">     -1.00000000</i>
   <i type="int" name="LMAXMP2">    -1</i>
   <i name="SCISSOR">      0.00000000</i>
   <i type="int" name="NOMEGA">     0</i>
   <i type="int" name="NOMEGAR">     0</i>
   <i type="int" name="NBANDSGW">    -1</i>
   <i type="int" name="NBANDSO">    -1</i>
   <i type="int" name="NBANDSV">    -1</i>
   <i type="int" name="NELM">     1</i>
   <i type="int" name="NELMHF">     1</i>
   <i type="int" name="DIM">     3</i>
   <i type="int" name="ANTIRES">     0</i>
   <i name="OMEGAMAX">    -30.00000000</i>
   <i name="OMEGAMIN">    -30.00000000</i>
   <i name="OMEGATL">   -200.00000000</i>
   <i type="int" name="OMEGAGRID">   140</i>
   <i name="CSHIFT">     -0.10000000</i>
   <i type="logical" name="SELFENERGY"> F  </i>
   <i type="logical" name="LSPECTRAL"> F  </i>
   <i type="logical" name="LSPECTRALGW"> F  </i>
   <i type="logical" name="LSINGLES"> F  </i>
   <i type="logical" name="LFERMIGW"> F  </i>
   <i type="logical" name="ODDONLYGW"> F  </i>
   <i type="logical" name="EVENONLYGW"> F  </i>
   <i type="int" name="NKREDLFX">     1</i>
   <i type="int" name="NKREDLFY">     1</i>
   <i type="int" name="NKREDLFZ">     1</i>
   <i type="int" name="MAXMEM">  2800</i>
   <i type="int" name="TELESCOPE">     0</i>
   <i type="int" name="TAUPAR">     1</i>
   <i type="int" name="OMEGAPAR">    -1</i>
   <i name="LAMBDA">      1.00000000</i>
  </separator>
  <separator name="External order field" >
   <i name="OFIELD_KAPPA">      0.00000000</i>
   <v name="OFIELD_K">      0.00000000      0.00000000      0.00000000</v>
   <i name="OFIELD_Q6_NEAR">      0.00000000</i>
   <i name="OFIELD_Q6_FAR">      0.00000000</i>
   <i name="OFIELD_A">      0.00000000</i>
  </separator>
 </parameters>
 <atominfo>
  <atoms>       5 </atoms>
  <types>       2 </types>
  <array name="atoms" >
   <dimension dim="1">ion</dimension>
   <field type="string">element</field>
   <field type="int">atomtype</field>
   <set>
    <rc><c>H </c><c>   1</c></rc>
    <rc><c>H </c><c>   1</c></rc>
    <rc><c>H </c><c>   1</c></rc>
    <rc><c>H </c><c>   1</c></rc>
    <rc><c>C </c><c>   2</c></rc>
   </set>
  </array>
  <array name="atomtypes" >
   <dimension dim="1">type</dimension>
   <field type="int">atomspertype</field>
   <field type="string">element</field>
   <field>mass</field>
   <field>valence</field>
   <field type="string">pseudopotential</field>
   <set>
    <rc><c>   4</c><c>H </c><c>      1.00000000</c><c>      1.00000000</c><c>  PAW_PBE H 15Jun2001                   </c></rc>
    <rc><c>   1</c><c>C </c><c>     12.01100000</c><c>      4.00000000</c><c>  PAW_PBE C 08Apr2002                   </c></rc>
   </set>
  </array>
 </atominfo>
 <structure name="initialpos" >
  <crystal>
   <varray name="basis" >
    <v>       9.90575820       0.00000000       0.00000000 </v>
    <v>       0.18656002      10.09148776       0.00000000 </v>
    <v>      -0.03276051      -0.06924931      10.14326075 </v>
   </varray>
   <i name="volume">   1013.95927077 </i>
   <varray name="rec_basis" >
    <v>       0.10095138      -0.00186628       0.00031331 </v>
    <v>      -0.00000000       0.09909342       0.00067652 </v>
    <v>       0.00000000       0.00000000       0.09858763 </v>
   </varray>
  </crystal>
  <varray name="positions" >
   <v>       0.53777834       0.40636306       0.36084851 </v>
   <v>       0.39424537       0.48062904       0.43814584 </v>
   <v>       0.55200563       0.56550221       0.44266280 </v>
   <v>       0.52817585       0.41611025       0.54008403 </v>
   <v>       0.50310956       0.46711383       0.44546440 </v>
  </varray>
  <varray name="velocities" >
   <v>      -0.00017412      -0.00138028      -0.00021838 </v>
   <v>       0.00062878       0.00035018       0.00108937 </v>
   <v>      -0.00065500       0.00124080      -0.00272977 </v>
   <v>       0.00007832      -0.00235356       0.00058034 </v>
   <v>       0.00001016       0.00017841       0.00010644 </v>
  </varray>
 </structure>
 <calculation>
  <scstep>
   <time name="dav">    3.10    3.11</time>
   <time name="total">    4.87    4.88</time>
   <energy>
    <i name="alphaZ">      0.23891570 </i>
    <i name="ewald">    127.39906788 </i>
    <i name="hartreedc">   -243.56275524 </i>
    <i name="XCdc">     21.96350359 </i>
    <i name="pawpsdc">    117.05815612 </i>
    <i name="pawaedc">   -117.66307307 </i>
    <i name="eentropy">      0.00314639 </i>
    <i name="bandstr">    -92.83150214 </i>
    <i name="atom">    197.04175453 </i>
    <i name="e_fr_energy">      9.64721378 </i>
    <i name="e_wo_entrp">      9.64406739 </i>
    <i name="e_0_energy">      9.64616498 </i>
   </energy>
  </scstep>
  <scstep>
   <time name="dav">    2.43    2.44</time>
   <time name="total">    2.43    2.44</time>
   <energy>
    <i name="e_fr_energy">    -23.66404258 </i>
    <i name="e_wo_entrp">    -23.66694159 </i>
    <i name="e_0_energy">    -23.66500892 </i>
   </energy>
  </scstep>
  <scstep>
   <time name="dav">    2.21    2.21</time>
   <time name="total">    2.21    2.21</time>
   <energy>
    <i name="e_fr_energy">    -27.28353393 </i>
    <i name="e_wo_entrp">    -27.32331011 </i>
    <i name="e_0_energy">    -27.29679266 </i>
   </energy>
  </scstep>
  <scstep>
   <time name="dav">    3.96    3.97</time>
   <time name="total">    3.96    3.97</time>
   <energy>
    <i name="e_fr_energy">    -27.42908753 </i>
    <i name="e_wo_entrp">    -27.46846420 </i>
    <i name="e_0_energy">    -27.44221308 </i>
   </energy>
  </scstep>
  <scstep>
   <time name="dav">    2.83    2.83</time>
   <time name="total">    3.09    3.10</time>
   <energy>
    <i name="e_fr_energy">    -27.42914652 </i>
    <i name="e_wo_entrp">    -27.46852286 </i>
    <i name="e_0_energy">    -27.44227197 </i>
   </energy>
  </scstep>
  <scstep>
   <time name="diag">    0.47    0.47</time>
   <time name="diis">    1.55    1.56</time>
   <time name="orth">    0.01    0.01</time>
   <time name="total">    4.18    4.19</time>
   <energy>
    <i name="e_fr_energy">    -24.62232307 </i>
    <i name="e_wo_entrp">    -24.66000646 </i>
    <i name="e_0_energy">    -24.63488420 </i>
   </energy>
  </scstep>
  <scstep>
   <time name="diag">    0.48    0.48</time>
   <time name="diis">    1.53    1.54</time>
   <time name="orth">    0.01    0.01</time>
   <time name="total">    4.17    4.18</time>
   <energy>
    <i name="e_fr_energy">    -24.15420223 </i>
    <i name="e_wo_entrp">    -24.19318812 </i>
    <i name="e_0_energy">    -24.16719753 </i>
   </energy>
  </scstep>
  <scstep>
   <time name="diag">    0.47    0.47</time>
   <time name="diis">    1.55    1.55</time>
   <time name="orth">    0.01    0.01</time>
   <time name="total">    4.21    4.22</time>
   <energy>
    <i name="e_fr_energy">    -24.03975599 </i>
    <i name="e_wo_entrp">    -24.07960665 </i>
    <i name="e_0_energy">    -24.05303955 </i>
   </energy>
  </scstep>
  <scstep>
   <time name="diag">    0.47    0.47</time>
   <time name="diis">    1.58    1.59</time>
   <time name="orth">    0.01    0.01</time>
   <time name="total">    4.23    4.24</time>
   <energy>
    <i name="e_fr_energy">    -23.99571247 </i>
    <i name="e_wo_entrp">    -24.03116745 </i>
    <i name="e_0_energy">    -24.00753080 </i>
   </energy>
  </scstep>
  <scstep>
   <time name="diag">    0.45    0.45</time>
   <time name="diis">    1.64    1.65</time>
   <time name="orth">    0.01    0.01</time>
   <time name="total">    4.28    4.29</time>
   <energy>
    <i name="e_fr_energy">    -23.99379697 </i>
    <i name="e_wo_entrp">    -24.02926886 </i>
    <i name="e_0_energy">    -24.00562093 </i>
   </energy>
  </scstep>
  <scstep>
   <time name="diag">    0.46    0.46</time>
   <time name="diis">    1.66    1.67</time>
   <time name="orth">    0.01    0.01</time>
   <time name="total">    4.28    4.29</time>
   <energy>
    <i name="e_fr_energy">    -23.99301889 </i>
    <i name="e_wo_entrp">    -24.02856691 </i>
    <i name="e_0_energy">    -24.00486823 </i>
   </energy>
  </scstep>
  <scstep>
   <time name="diag">    0.47    0.47</time>
   <time name="diis">    1.66    1.66</time>
   <time name="orth">    0.01    0.01</time>
   <time name="total">    4.20    4.21</time>
   <energy>
    <i name="e_fr_energy">    -23.98816278 </i>
    <i name="e_wo_entrp">    -24.02375021 </i>
    <i name="e_0_energy">    -24.00002526 </i>
   </energy>
  </scstep>
  <scstep>
   <time name="diag">    0.49    0.49</time>
   <time name="diis">    1.61    1.62</time>
   <time name="orth">    0.01    0.01</time>
   <time name="total">    4.16    4.17</time>
   <energy>
    <i name="e_fr_energy">    -23.99053049 </i>
    <i name="e_wo_entrp">    -24.02606702 </i>
    <i name="e_0_energy">    -24.00237600 </i>
   </energy>
  </scstep>
  <scstep>
   <time name="diag">    0.48    0.48</time>
   <time name="diis">    1.61    1.62</time>
   <time name="orth">    0.01    0.01</time>
   <time name="total">    4.12    4.13</time>
   <energy>
    <i name="e_fr_energy">    -23.99492260 </i>
    <i name="e_wo_entrp">    -24.03037742 </i>
    <i name="e_0_energy">    -24.00674088 </i>
   </energy>
  </scstep>
  <scstep>
   <time name="diag">    0.47    0.47</time>
   <time name="diis">    1.63    1.63</time>
   <time name="orth">    0.01    0.01</time>
   <time name="total">    4.07    4.08</time>
   <energy>
    <i name="e_fr_energy">    -23.99807185 </i>
    <i name="e_wo_entrp">    -24.03352258 </i>
    <i name="e_0_energy">    -24.00988876 </i>
   </energy>
  </scstep>
  <scstep>
   <time name="diag">    0.46    0.46</time>
   <time name="diis">    1.66    1.66</time>
   <time name="orth">    0.01    0.01</time>
   <time name="total">    4.09    4.10</time>
   <energy>
    <i name="e_fr_energy">    -24.00067513 </i>
    <i name="e_wo_entrp">    -24.03630809 </i>
    <i name="e_0_energy">    -24.01255278 </i>
   </energy>
  </scstep>
  <scstep>
   <time name="diag">    0.47    0.47</time>
   <time name="diis">    1.66    1.66</time>
   <time name="orth">    0.01    0.01</time>
   <time name="total">    4.08    4.09</time>
   <energy>
    <i name="e_fr_energy">    -24.00051957 </i>
    <i name="e_wo_entrp">    -24.03605050 </i>
    <i name="e_0_energy">    -24.01236322 </i>
   </energy>
  </scstep>
  <scstep>
   <time name="diag">    0.47    0.47</time>
   <time name="diis">    1.64    1.64</time>
   <time name="orth">    0.01    0.01</time>
   <time name="total">    4.02    4.03</time>
   <energy>
    <i name="e_fr_energy">    -24.00084859 </i>
    <i name="e_wo_entrp">    -24.03634455 </i>
    <i name="e_0_energy">    -24.01268058 </i>
   </energy>
  </scstep>
  <scstep>
   <time name="diag">    0.48    0.48</time>
   <time name="diis">    1.62    1.63</time>
   <time name="orth">    0.01    0.01</time>
   <time name="total">    4.00    4.01</time>
   <energy>
    <i name="e_fr_energy">    -24.00097249 </i>
    <i name="e_wo_entrp">    -24.03645029 </i>
    <i name="e_0_energy">    -24.01279842 </i>
   </energy>
  </scstep>
  <scstep>
   <time name="diag">    0.47    0.48</time>
   <time name="diis">    1.50    1.50</time>
   <time name="orth">    0.01    0.01</time>
   <time name="total">    3.90    3.91</time>
   <energy>
    <i name="e_fr_energy">    -24.00103470 </i>
    <i name="e_wo_entrp">    -24.03651822 </i>
    <i name="e_0_energy">    -24.01286254 </i>
   </energy>
  </scstep>
  <scstep>
   <time name="diag">    0.44    0.44</time>
   <time name="diis">    1.22    1.22</time>
   <time name="orth">    0.01    0.01</time>
   <time name="total">    3.64    3.65</time>
   <energy>
    <i name="e_fr_energy">    -24.00104212 </i>
    <i name="e_wo_entrp">    -24.03652247 </i>
    <i name="e_0_energy">    -24.01286891 </i>
   </energy>
  </scstep>
  <scstep>
   <time name="diag">    0.44    0.44</time>
   <time name="diis">    1.25    1.25</time>
   <time name="orth">    0.01    0.01</time>
   <time name="total">    3.71    3.72</time>
   <energy>
    <i name="e_fr_energy">    -24.00104750 </i>
    <i name="e_wo_entrp">    -24.03653000 </i>
    <i name="e_0_energy">    -24.01287500 </i>
   </energy>
  </scstep>
  <scstep>
   <time name="diag">    0.46    0.47</time>
   <time name="diis">    1.23    1.23</time>
   <time name="orth">    0.01    0.01</time>
   <time name="total">    3.72    3.72</time>
   <energy>
    <i name="e_fr_energy">    -24.00104870 </i>
    <i name="e_wo_entrp">    -24.03652996 </i>
    <i name="e_0_energy">    -24.01287578 </i>
   </energy>
  </scstep>
  <scstep>
   <time name="diag">    0.47    0.47</time>
   <time name="diis">    1.02    1.02</time>
   <time name="orth">    0.01    0.01</time>
   <time name="total">    3.30    3.30</time>
   <energy>
    <i name="alphaZ">      0.23891570 </i>
    <i name="ewald">    127.39906788 </i>
    <i name="hartreedc">   -283.42297292 </i>
    <i name="XCdc">     24.65445970 </i>
    <i name="pawpsdc">    441.49259813 </i>
    <i name="pawaedc">   -442.27479040 </i>
    <i name="eentropy">      0.03548160 </i>
    <i name="bandstr">    -89.16556389 </i>
    <i name="atom">    197.04175453 </i>
    <i name="e_fr_energy">    -24.00104966 </i>
    <i name="e_wo_entrp">    -24.03653126 </i>
    <i name="e_0_energy">    -24.01287686 </i>
   </energy>
  </scstep>
  <structure>
   <crystal>
    <varray name="basis" >
     <v>       9.90575820       0.00000000       0.00000000 </v>
     <v>       0.18656002      10.09148776       0.00000000 </v>
     <v>      -0.03276051      -0.06924931      10.14326075 </v>
    </varray>
    <i name="volume">   1013.95927077 </i>
    <varray name="rec_basis" >
     <v>       0.10095138      -0.00186628       0.00031331 </v>
     <v>      -0.00000000       0.09909342       0.00067652 </v>
     <v>       0.00000000       0.00000000       0.09858763 </v>
    </varray>
   </crystal>
   <varray name="positions" >
    <v>       0.53777834       0.40636306       0.36084851 </v>
    <v>       0.39424537       0.48062904       0.43814584 </v>
    <v>       0.55200563       0.56550221       0.44266280 </v>
    <v>       0.52817585       0.41611025       0.54008403 </v>
    <v>       0.50310956       0.46711383       0.44546440 </v>
   </varray>
  </structure>
  <varray name="forces" >
   <v>       0.28481539      -0.14694481      -0.30354277 </v>
   <v>       0.13124273       0.33457320       0.78694656 </v>
   <v>      -0.03132355      -0.59939912       0.18221396 </v>
   <v>      -0.24876575       0.52822313      -0.60143329 </v>
   <v>       0.20548086       1.56419741       0.19848722 </v>
  </varray>
  <varray name="stress" >
   <v>      -0.49290562       0.17846193      -0.45908822 </v>
   <v>       0.17846192      -1.97127672       0.37157515 </v>
   <v>      -0.45908823       0.37157516      -1.76407741 </v>
  </varray>
  <energy>
   <i name="e_fr_energy">    -24.00104966 </i>
   <i name="e_wo_entrp">    -24.01287686 </i>
   <i name="e_0_energy">      0.03548160 </i>
   <i name="kinetic">      0.02938294 </i>
   <i name="lattice kinetic">      0.00000000 </i>
   <i name="nosepot">      0.00000000 </i>
   <i name="nosekinetic">      0.00000149 </i>
   <i name="total">    -23.97166523 </i>
  </energy>
  <dos>
   <i name="efermi">     -9.08172560 </i>
   <total>
    <array>
     <dimension dim="1">gridpoints</dimension>
     <dimension dim="2">spin</dimension>
     <field>energy</field>
     <field>total</field>
     <field>integrated</field>
     <set>
      <set comment="spin 1">
       <r>   -18.8261     0.0000     0.0000 </r>
       <r>   -18.7543     0.0000     0.0000 </r>
       <r>   -18.6826     0.0000     0.0000 </r>
       <r>   -18.6109     0.0000     0.0000 </r>
       <r>   -18.5391     0.0000     0.0000 </r>
       <r>   -18.4674    -0.0000    -0.0000 </r>
       <r>   -18.3957    -0.0000    -0.0000 </r>
       <r>   -18.3239    -0.0000    -0.0000 </r>
       <r>   -18.2522    -0.0000    -0.0000 </r>
       <r>   -18.1805    -0.0000    -0.0000 </r>
       <r>   -18.1087    -0.0000    -0.0000 </r>
       <r>   -18.0370    -0.0000    -0.0000 </r>
       <r>   -17.9653    -0.0000    -0.0000 </r>
       <r>   -17.8935    -0.0000    -0.0000 </r>
       <r>   -17.8218    -0.0000    -0.0000 </r>
       <r>   -17.7501    -0.0000    -0.0000 </r>
       <r>   -17.6783    -0.0000    -0.0000 </r>
       <r>   -17.6066    -0.0000    -0.0000 </r>
       <r>   -17.5349    -0.0001    -0.0000 </r>
       <r>   -17.4631    -0.0008    -0.0001 </r>
       <r>   -17.3914    -0.0057    -0.0005 </r>
       <r>   -17.3197    -0.0306    -0.0027 </r>
       <r>   -17.2479    -0.1169    -0.0111 </r>
       <r>   -17.1762    -0.3030    -0.0328 </r>
       <r>   -17.1045    -0.4367    -0.0641 </r>
       <r>   -17.0327     0.1061    -0.0565 </r>
       <r>   -16.9610     2.1613     0.0985 </r>
       <r>   -16.8893     5.5067     0.4935 </r>
       <r>   -16.8175     8.0649     1.0721 </r>
       <r>   -16.7458     7.6713     1.6224 </r>
       <r>   -16.6741     4.6813     1.9582 </r>
       <r>   -16.6023     1.5162     2.0669 </r>
       <r>   -16.5306    -0.1341     2.0573 </r>
       <r>   -16.4589    -0.4339     2.0262 </r>
       <r>   -16.3871    -0.2518     2.0081 </r>
       <r>   -16.3154    -0.0877     2.0018 </r>
       <r>   -16.2437    -0.0211     2.0003 </r>
       <r>   -16.1719    -0.0037     2.0000 </r>
       <r>   -16.1002    -0.0005     2.0000 </r>
       <r>   -16.0285    -0.0000     2.0000 </r>
       <r>   -15.9567    -0.0000     2.0000 </r>
       <r>   -15.8850    -0.0000     2.0000 </r>
       <r>   -15.8133    -0.0000     2.0000 </r>
       <r>   -15.7415    -0.0000     2.0000 </r>
       <r>   -15.6698    -0.0000     2.0000 </r>
       <r>   -15.5981    -0.0000     2.0000 </r>
       <r>   -15.5263     0.0000     2.0000 </r>
       <r>   -15.4546     0.0000     2.0000 </r>
       <r>   -15.3829     0.0000     2.0000 </r>
       <r>   -15.3111     0.0000     2.0000 </r>
       <r>   -15.2394     0.0000     2.0000 </r>
       <r>   -15.1677     0.0000     2.0000 </r>
       <r>   -15.0959     0.0000     2.0000 </r>
       <r>   -15.0242     0.0000     2.0000 </r>
       <r>   -14.9525     0.0000     2.0000 </r>
       <r>   -14.8807     0.0000     2.0000 </r>
       <r>   -14.8090     0.0000     2.0000 </r>
       <r>   -14.7372     0.0000     2.0000 </r>
       <r>   -14.6655     0.0000     2.0000 </r>
       <r>   -14.5938     0.0000     2.0000 </r>
       <r>   -14.5220     0.0000     2.0000 </r>
       <r>   -14.4503     0.0000     2.0000 </r>
       <r>   -14.3786     0.0000     2.0000 </r>
       <r>   -14.3068     0.0000     2.0000 </r>
       <r>   -14.2351     0.0000     2.0000 </r>
       <r>   -14.1634     0.0000     2.0000 </r>
       <r>   -14.0916     0.0000     2.0000 </r>
       <r>   -14.0199     0.0000     2.0000 </r>
       <r>   -13.9482     0.0000     2.0000 </r>
       <r>   -13.8764     0.0000     2.0000 </r>
       <r>   -13.8047     0.0000     2.0000 </r>
       <r>   -13.7330     0.0000     2.0000 </r>
       <r>   -13.6612     0.0000     2.0000 </r>
       <r>   -13.5895     0.0000     2.0000 </r>
       <r>   -13.5178     0.0000     2.0000 </r>
       <r>   -13.4460     0.0000     2.0000 </r>
       <r>   -13.3743     0.0000     2.0000 </r>
       <r>   -13.3026     0.0000     2.0000 </r>
       <r>   -13.2308     0.0000     2.0000 </r>
       <r>   -13.1591     0.0000     2.0000 </r>
       <r>   -13.0874     0.0000     2.0000 </r>
       <r>   -13.0156     0.0000     2.0000 </r>
       <r>   -12.9439     0.0000     2.0000 </r>
       <r>   -12.8722     0.0000     2.0000 </r>
       <r>   -12.8004     0.0000     2.0000 </r>
       <r>   -12.7287     0.0000     2.0000 </r>
       <r>   -12.6570     0.0000     2.0000 </r>
       <r>   -12.5852     0.0000     2.0000 </r>
       <r>   -12.5135     0.0000     2.0000 </r>
       <r>   -12.4418     0.0000     2.0000 </r>
       <r>   -12.3700     0.0000     2.0000 </r>
       <r>   -12.2983     0.0000     2.0000 </r>
       <r>   -12.2266     0.0000     2.0000 </r>
       <r>   -12.1548     0.0000     2.0000 </r>
       <r>   -12.0831     0.0000     2.0000 </r>
       <r>   -12.0114     0.0000     2.0000 </r>
       <r>   -11.9396     0.0000     2.0000 </r>
       <r>   -11.8679     0.0000     2.0000 </r>
       <r>   -11.7962     0.0000     2.0000 </r>
       <r>   -11.7244     0.0000     2.0000 </r>
       <r>   -11.6527     0.0000     2.0000 </r>
       <r>   -11.5810     0.0000     2.0000 </r>
       <r>   -11.5092     0.0000     2.0000 </r>
       <r>   -11.4375     0.0000     2.0000 </r>
       <r>   -11.3658     0.0000     2.0000 </r>
       <r>   -11.2940     0.0000     2.0000 </r>
       <r>   -11.2223     0.0000     2.0000 </r>
       <r>   -11.1506     0.0000     2.0000 </r>
       <r>   -11.0788     0.0000     2.0000 </r>
       <r>   -11.0071     0.0000     2.0000 </r>
       <r>   -10.9354     0.0000     2.0000 </r>
       <r>   -10.8636    -0.0000     2.0000 </r>
       <r>   -10.7919    -0.0000     2.0000 </r>
       <r>   -10.7202    -0.0000     2.0000 </r>
       <r>   -10.6484    -0.0000     2.0000 </r>
       <r>   -10.5767    -0.0000     2.0000 </r>
       <r>   -10.5050    -0.0000     2.0000 </r>
       <r>   -10.4332    -0.0000     2.0000 </r>
       <r>   -10.3615    -0.0000     2.0000 </r>
       <r>   -10.2898    -0.0000     2.0000 </r>
       <r>   -10.2180    -0.0000     2.0000 </r>
       <r>   -10.1463    -0.0000     2.0000 </r>
       <r>   -10.0746    -0.0000     2.0000 </r>
       <r>   -10.0028    -0.0001     2.0000 </r>
       <r>    -9.9311    -0.0007     1.9999 </r>
       <r>    -9.8594    -0.0060     1.9995 </r>
       <r>    -9.7876    -0.0375     1.9968 </r>
       <r>    -9.7159    -0.1715     1.9845 </r>
       <r>    -9.6442    -0.5547     1.9447 </r>
       <r>    -9.5724    -1.1539     1.8620 </r>
       <r>    -9.5007    -0.9825     1.7915 </r>
       <r>    -9.4290     2.3381     1.9592 </r>
       <r>    -9.3572    10.4703     2.7103 </r>
       <r>    -9.2855    20.3538     4.1703 </r>
       <r>    -9.2138    24.7381     5.9449 </r>
       <r>    -9.1420    19.7697     7.3630 </r>
       <r>    -9.0703     9.7972     8.0658 </r>
       <r>    -8.9986     1.9696     8.2071 </r>
       <r>    -8.9268    -1.0555     8.1314 </r>
       <r>    -8.8551    -1.1162     8.0513 </r>
       <r>    -8.7834    -0.5190     8.0141 </r>
       <r>    -8.7116    -0.1568     8.0028 </r>
       <r>    -8.6399    -0.0337     8.0004 </r>
       <r>    -8.5682    -0.0053     8.0000 </r>
       <r>    -8.4964    -0.0006     8.0000 </r>
       <r>    -8.4247    -0.0001     8.0000 </r>
       <r>    -8.3530    -0.0000     8.0000 </r>
       <r>    -8.2812    -0.0000     8.0000 </r>
       <r>    -8.2095    -0.0000     8.0000 </r>
       <r>    -8.1378    -0.0000     8.0000 </r>
       <r>    -8.0660    -0.0000     8.0000 </r>
       <r>    -7.9943    -0.0000     8.0000 </r>
       <r>    -7.9226     0.0000     8.0000 </r>
       <r>    -7.8508     0.0000     8.0000 </r>
       <r>    -7.7791     0.0000     8.0000 </r>
       <r>    -7.7074     0.0000     8.0000 </r>
       <r>    -7.6356     0.0000     8.0000 </r>
       <r>    -7.5639     0.0000     8.0000 </r>
       <r>    -7.4922     0.0000     8.0000 </r>
       <r>    -7.4204     0.0000     8.0000 </r>
       <r>    -7.3487     0.0000     8.0000 </r>
       <r>    -7.2770     0.0000     8.0000 </r>
       <r>    -7.2052     0.0000     8.0000 </r>
       <r>    -7.1335     0.0000     8.0000 </r>
       <r>    -7.0618     0.0000     8.0000 </r>
       <r>    -6.9900     0.0000     8.0000 </r>
       <r>    -6.9183     0.0000     8.0000 </r>
       <r>    -6.8466     0.0000     8.0000 </r>
       <r>    -6.7748     0.0000     8.0000 </r>
       <r>    -6.7031     0.0000     8.0000 </r>
       <r>    -6.6314     0.0000     8.0000 </r>
       <r>    -6.5596     0.0000     8.0000 </r>
       <r>    -6.4879     0.0000     8.0000 </r>
       <r>    -6.4161     0.0000     8.0000 </r>
       <r>    -6.3444     0.0000     8.0000 </r>
       <r>    -6.2727     0.0000     8.0000 </r>
       <r>    -6.2009     0.0000     8.0000 </r>
       <r>    -6.1292     0.0000     8.0000 </r>
       <r>    -6.0575     0.0000     8.0000 </r>
       <r>    -5.9857     0.0000     8.0000 </r>
       <r>    -5.9140     0.0000     8.0000 </r>
       <r>    -5.8423     0.0000     8.0000 </r>
       <r>    -5.7705     0.0000     8.0000 </r>
       <r>    -5.6988     0.0000     8.0000 </r>
       <r>    -5.6271     0.0000     8.0000 </r>
       <r>    -5.5553     0.0000     8.0000 </r>
       <r>    -5.4836     0.0000     8.0000 </r>
       <r>    -5.4119     0.0000     8.0000 </r>
       <r>    -5.3401     0.0000     8.0000 </r>
       <r>    -5.2684     0.0000     8.0000 </r>
       <r>    -5.1967     0.0000     8.0000 </r>
       <r>    -5.1249     0.0000     8.0000 </r>
       <r>    -5.0532     0.0000     8.0000 </r>
       <r>    -4.9815     0.0000     8.0000 </r>
       <r>    -4.9097     0.0000     8.0000 </r>
       <r>    -4.8380     0.0000     8.0000 </r>
       <r>    -4.7663     0.0000     8.0000 </r>
       <r>    -4.6945     0.0000     8.0000 </r>
       <r>    -4.6228     0.0000     8.0000 </r>
       <r>    -4.5511     0.0000     8.0000 </r>
       <r>    -4.4793     0.0000     8.0000 </r>
       <r>    -4.4076     0.0000     8.0000 </r>
       <r>    -4.3359     0.0000     8.0000 </r>
       <r>    -4.2641     0.0000     8.0000 </r>
       <r>    -4.1924     0.0000     8.0000 </r>
       <r>    -4.1207     0.0000     8.0000 </r>
       <r>    -4.0489     0.0000     8.0000 </r>
       <r>    -3.9772     0.0000     8.0000 </r>
       <r>    -3.9055     0.0000     8.0000 </r>
       <r>    -3.8337     0.0000     8.0000 </r>
       <r>    -3.7620     0.0000     8.0000 </r>
       <r>    -3.6903     0.0000     8.0000 </r>
       <r>    -3.6185     0.0000     8.0000 </r>
       <r>    -3.5468     0.0000     8.0000 </r>
       <r>    -3.4751     0.0000     8.0000 </r>
       <r>    -3.4033     0.0000     8.0000 </r>
       <r>    -3.3316     0.0000     8.0000 </r>
       <r>    -3.2599     0.0000     8.0000 </r>
       <r>    -3.1881     0.0000     8.0000 </r>
       <r>    -3.1164     0.0000     8.0000 </r>
       <r>    -3.0447     0.0000     8.0000 </r>
       <r>    -2.9729     0.0000     8.0000 </r>
       <r>    -2.9012     0.0000     8.0000 </r>
       <r>    -2.8295     0.0000     8.0000 </r>
       <r>    -2.7577     0.0000     8.0000 </r>
       <r>    -2.6860     0.0000     8.0000 </r>
       <r>    -2.6143     0.0000     8.0000 </r>
       <r>    -2.5425     0.0000     8.0000 </r>
       <r>    -2.4708     0.0000     8.0000 </r>
       <r>    -2.3991     0.0000     8.0000 </r>
       <r>    -2.3273     0.0000     8.0000 </r>
       <r>    -2.2556     0.0000     8.0000 </r>
       <r>    -2.1839     0.0000     8.0000 </r>
       <r>    -2.1121     0.0000     8.0000 </r>
       <r>    -2.0404     0.0000     8.0000 </r>
       <r>    -1.9687    -0.0000     8.0000 </r>
       <r>    -1.8969    -0.0000     8.0000 </r>
       <r>    -1.8252    -0.0000     8.0000 </r>
       <r>    -1.7535    -0.0000     8.0000 </r>
       <r>    -1.6817    -0.0000     8.0000 </r>
       <r>    -1.6100    -0.0000     8.0000 </r>
       <r>    -1.5383    -0.0000     8.0000 </r>
       <r>    -1.4665    -0.0000     8.0000 </r>
       <r>    -1.3948    -0.0000     8.0000 </r>
       <r>    -1.3231    -0.0000     8.0000 </r>
       <r>    -1.2513    -0.0000     8.0000 </r>
       <r>    -1.1796    -0.0000     8.0000 </r>
       <r>    -1.1079    -0.0000     8.0000 </r>
       <r>    -1.0361    -0.0001     8.0000 </r>
       <r>    -0.9644    -0.0008     7.9999 </r>
       <r>    -0.8927    -0.0058     7.9995 </r>
       <r>    -0.8209    -0.0307     7.9973 </r>
       <r>    -0.7492    -0.1172     7.9889 </r>
       <r>    -0.6775    -0.3035     7.9671 </r>
       <r>    -0.6057    -0.4364     7.9358 </r>
       <r>    -0.5340     0.1090     7.9437 </r>
       <r>    -0.4623     2.1676     8.0991 </r>
       <r>    -0.3905     5.5133     8.4946 </r>
       <r>    -0.3188     8.0665     9.0733 </r>
       <r>    -0.2471     7.6665     9.6232 </r>
       <r>    -0.1753     4.6741     9.9585 </r>
       <r>    -0.1036     1.5111    10.0669 </r>
       <r>    -0.0319    -0.1394    10.0569 </r>
       <r>     0.0399    -0.4572    10.0241 </r>
       <r>     0.1116    -0.3535     9.9987 </r>
       <r>     0.1833    -0.4065     9.9696 </r>
       <r>     0.2551    -0.6922     9.9199 </r>
       <r>     0.3268    -0.7220     9.8681 </r>
       <r>     0.3985     0.7196     9.9198 </r>
       <r>     0.4703     5.0111    10.2792 </r>
       <r>     0.5420    12.0507    11.1437 </r>
       <r>     0.6137    18.9724    12.5046 </r>
       <r>     0.6855    21.4219    14.0413 </r>
       <r>     0.7572    17.3624    15.2868 </r>
       <r>     0.8289     9.4901    15.9675 </r>
       <r>     0.9007     2.6972    16.1610 </r>
       <r>     0.9724    -0.4993    16.1252 </r>
       <r>     1.0441    -0.9655    16.0559 </r>
       <r>     1.1159    -0.5383    16.0173 </r>
       <r>     1.1876    -0.1867    16.0039 </r>
       <r>     1.2593    -0.0454    16.0007 </r>
       <r>     1.3311    -0.0081    16.0001 </r>
       <r>     1.4028    -0.0011    16.0000 </r>
       <r>     1.4745    -0.0001    16.0000 </r>
       <r>     1.5463    -0.0000    16.0000 </r>
       <r>     1.6180    -0.0000    16.0000 </r>
       <r>     1.6897    -0.0000    16.0000 </r>
       <r>     1.7615    -0.0000    16.0000 </r>
       <r>     1.8332    -0.0000    16.0000 </r>
       <r>     1.9050    -0.0000    16.0000 </r>
       <r>     1.9767    -0.0000    16.0000 </r>
       <r>     2.0484     0.0000    16.0000 </r>
       <r>     2.1202     0.0000    16.0000 </r>
       <r>     2.1919     0.0000    16.0000 </r>
       <r>     2.2636     0.0000    16.0000 </r>
       <r>     2.3354     0.0000    16.0000 </r>
       <r>     2.4071     0.0000    16.0000 </r>
       <r>     2.4788     0.0000    16.0000 </r>
       <r>     2.5506     0.0000    16.0000 </r>
       <r>     2.6223     0.0000    16.0000 </r>
       <r>     2.6940     0.0000    16.0000 </r>
      </set>
     </set>
    </array>
   </total>
  </dos>
  <time name="totalsc">  101.25  101.49</time>
 </calculation>
 <calculation>
  <scstep>
   <time name="dav">    2.20    2.21</time>
   <time name="total">    4.28    4.29</time>
   <energy>
    <i name="alphaZ">      0.23891570 </i>
    <i name="ewald">    128.24429870 </i>
    <i name="hartreedc">   -283.88251367 </i>
    <i name="XCdc">     24.67755444 </i>
    <i name="pawpsdc">    441.48959818 </i>
    <i name="pawaedc">   -442.27179648 </i>
    <i name="eentropy">      0.01629282 </i>
    <i name="bandstr">    -89.55861473 </i>
    <i name="atom">    197.04175453 </i>
    <i name="e_fr_energy">    -24.00451051 </i>
    <i name="e_wo_entrp">    -24.02080333 </i>
    <i name="e_0_energy">    -24.00994145 </i>
   </energy>
  </scstep>
  <scstep>
   <time name="diag">    0.49    0.49</time>
   <time name="diis">    1.57    1.57</time>
   <time name="orth">    0.01    0.01</time>
   <time name="total">    4.06    4.07</time>
   <energy>
    <i name="e_fr_energy">    -24.00827575 </i>
    <i name="e_wo_entrp">    -24.02733399 </i>
    <i name="e_0_energy">    -24.01462849 </i>
   </energy>
  </scstep>
  <scstep>
   <time name="diag">    0.47    0.47</time>
   <time name="diis">    1.59    1.60</time>
   <time name="orth">    0.01    0.01</time>
   <time name="total">    4.11    4.12</time>
   <energy>
    <i name="e_fr_energy">    -24.00500563 </i>
    <i name="e_wo_entrp">    -24.02804541 </i>
    <i name="e_0_energy">    -24.01268555 </i>
   </energy>
  </scstep>
  <scstep>
   <time name="diag">    0.46    0.47</time>
   <time name="diis">    1.62    1.63</time>
   <time name="orth">    0.01    0.01</time>
   <time name="total">    4.08    4.09</time>
   <energy>
    <i name="e_fr_energy">    -24.00324997 </i>
    <i name="e_wo_entrp">    -24.02696606 </i>
    <i name="e_0_energy">    -24.01115533 </i>
   </energy>
  </scstep>
  <scstep>
   <time name="diag">    0.48    0.48</time>
   <time name="diis">    1.61    1.61</time>
   <time name="orth">    0.01    0.01</time>
   <time name="total">    4.09    4.10</time>
   <energy>
    <i name="e_fr_energy">    -24.00326476 </i>
    <i name="e_wo_entrp">    -24.02774380 </i>
    <i name="e_0_energy">    -24.01142444 </i>
   </energy>
  </scstep>
  <scstep>
   <time name="diag">    0.48    0.48</time>
   <time name="diis">    1.56    1.56</time>
   <time name="orth">    0.01    0.01</time>
   <time name="total">    4.03    4.04</time>
   <energy>
    <i name="e_fr_energy">    -24.00314134 </i>
    <i name="e_wo_entrp">    -24.02903033 </i>
    <i name="e_0_energy">    -24.01177100 </i>
   </energy>
  </scstep>
  <scstep>
   <time name="diag">    0.46    0.46</time>
   <time name="diis">    1.55    1.55</time>
   <time name="orth">    0.01    0.01</time>
   <time name="total">    4.08    4.09</time>
   <energy>
    <i name="e_fr_energy">    -24.00299366 </i>
    <i name="e_wo_entrp">    -24.02981684 </i>
    <i name="e_0_energy">    -24.01193472 </i>
   </energy>
  </scstep>
  <scstep>
   <time name="diag">    0.47    0.47</time>
   <time name="diis">    1.59    1.59</time>
   <time name="orth">    0.01    0.01</time>
   <time name="total">    4.10    4.11</time>
   <energy>
    <i name="e_fr_energy">    -24.00286123 </i>
    <i name="e_wo_entrp">    -24.03036720 </i>
    <i name="e_0_energy">    -24.01202989 </i>
   </energy>
  </scstep>
  <scstep>
   <time name="diag">    0.46    0.46</time>
   <time name="diis">    1.60    1.60</time>
   <time name="orth">    0.01    0.01</time>
   <time name="total">    4.10    4.11</time>
   <energy>
    <i name="e_fr_energy">    -24.00279931 </i>
    <i name="e_wo_entrp">    -24.03097835 </i>
    <i name="e_0_energy">    -24.01219232 </i>
   </energy>
  </scstep>
  <scstep>
   <time name="diag">    0.45    0.45</time>
   <time name="diis">    1.59    1.59</time>
   <time name="orth">    0.01    0.01</time>
   <time name="total">    4.06    4.07</time>
   <energy>
    <i name="e_fr_energy">    -24.00280868 </i>
    <i name="e_wo_entrp">    -24.03093985 </i>
    <i name="e_0_energy">    -24.01218574 </i>
   </energy>
  </scstep>
  <scstep>
   <time name="diag">    0.47    0.47</time>
   <time name="diis">    1.63    1.63</time>
   <time name="orth">    0.01    0.01</time>
   <time name="total">    4.09    4.10</time>
   <energy>
    <i name="e_fr_energy">    -24.00281015 </i>
    <i name="e_wo_entrp">    -24.03085310 </i>
    <i name="e_0_energy">    -24.01215780 </i>
   </energy>
  </scstep>
  <scstep>
   <time name="diag">    0.47    0.47</time>
   <time name="diis">    1.60    1.60</time>
   <time name="orth">    0.01    0.01</time>
   <time name="total">    4.07    4.08</time>
   <energy>
    <i name="e_fr_energy">    -24.00280837 </i>
    <i name="e_wo_entrp">    -24.03088374 </i>
    <i name="e_0_energy">    -24.01216683 </i>
   </energy>
  </scstep>
  <scstep>
   <time name="diag">    0.49    0.49</time>
   <time name="diis">    1.56    1.56</time>
   <time name="orth">    0.01    0.01</time>
   <time name="total">    4.04    4.05</time>
   <energy>
    <i name="e_fr_energy">    -24.00280840 </i>
    <i name="e_wo_entrp">    -24.03090669 </i>
    <i name="e_0_energy">    -24.01217449 </i>
   </energy>
  </scstep>
  <scstep>
   <time name="diag">    0.48    0.48</time>
   <time name="diis">    1.55    1.55</time>
   <time name="orth">    0.01    0.01</time>
   <time name="total">    4.11    4.12</time>
   <energy>
    <i name="e_fr_energy">    -24.00280927 </i>
    <i name="e_wo_entrp">    -24.03095548 </i>
    <i name="e_0_energy">    -24.01219134 </i>
   </energy>
  </scstep>
  <scstep>
   <time name="diag">    0.47    0.47</time>
   <time name="diis">    1.22    1.22</time>
   <time name="orth">    0.01    0.01</time>
   <time name="total">    3.80    3.81</time>
   <energy>
    <i name="e_fr_energy">    -24.00281309 </i>
    <i name="e_wo_entrp">    -24.03092919 </i>
    <i name="e_0_energy">    -24.01218512 </i>
   </energy>
  </scstep>
  <scstep>
   <time name="diag">    0.47    0.48</time>
   <time name="diis">    1.20    1.20</time>
   <time name="orth">    0.01    0.01</time>
   <time name="total">    3.51    3.52</time>
   <energy>
    <i name="alphaZ">      0.23891570 </i>
    <i name="ewald">    128.24429870 </i>
    <i name="hartreedc">   -284.14704600 </i>
    <i name="XCdc">     24.69361163 </i>
    <i name="pawpsdc">    439.31585260 </i>
    <i name="pawaedc">   -440.10077373 </i>
    <i name="eentropy">      0.02813197 </i>
    <i name="bandstr">    -89.31755948 </i>
    <i name="atom">    197.04175453 </i>
    <i name="e_fr_energy">    -24.00281407 </i>
    <i name="e_wo_entrp">    -24.03094604 </i>
    <i name="e_0_energy">    -24.01219140 </i>
   </energy>
  </scstep>
  <structure>
   <crystal>
    <varray name="basis" >
     <v>       9.90575820       0.00000000       0.00000000 </v>
     <v>       0.18656002      10.09148776       0.00000000 </v>
     <v>      -0.03276051      -0.06924931      10.14326075 </v>
    </varray>
    <i name="volume">   1013.95927077 </i>
    <varray name="rec_basis" >
     <v>       0.10095138      -0.00186628       0.00031331 </v>
     <v>      -0.00000000       0.09909342       0.00067652 </v>
     <v>       0.00000000       0.00000000       0.09858763 </v>
    </varray>
   </crystal>
   <varray name="positions" >
    <v>       0.53864480       0.40401257       0.35941345 </v>
    <v>       0.39529447       0.48187678       0.44216489 </v>
    <v>       0.55119886       0.56405363       0.44056595 </v>
    <v>       0.52716430       0.41536057       0.53831406 </v>
    <v>       0.50310147       0.46738866       0.44557121 </v>
   </varray>
  </structure>
  <varray name="forces" >
   <v>      -0.16236012       0.41675071       0.80384547 </v>
   <v>      -0.52266640      -0.04360672       0.19688865 </v>
   <v>       0.50570081       0.44783038       0.60080911 </v>
   <v>       0.19573864      -0.02177445      -0.08656537 </v>
   <v>      -0.00025620       0.67757266      -0.85177621 </v>
  </varray>
  <varray name="stress" >
   <v>       0.92531385       0.71403870       0.49322766 </v>
   <v>       0.71403870      -0.66656886      -0.40608560 </v>
   <v>       0.49322766      -0.40608559      -2.07403714 </v>
  </varray>
  <energy>
   <i name="e_fr_energy">    -24.00281407 </i>
   <i name="e_wo_entrp">    -24.01219140 </i>
   <i name="e_0_energy">      0.02813197 </i>
   <i name="kinetic">      0.04024675 </i>
   <i name="lattice kinetic">      0.00000000 </i>
   <i name="nosepot">      0.00008708 </i>
   <i name="nosekinetic">      0.00005516 </i>
   <i name="total">    -23.96242508 </i>
  </energy>
  <dos>
   <i name="efermi">     -8.98208773 </i>
   <total>
    <array>
     <dimension dim="1">gridpoints</dimension>
     <dimension dim="2">spin</dimension>
     <field>energy</field>
     <field>total</field>
     <field>integrated</field>
     <set>
      <set comment="spin 1">
       <r>   -18.8576     0.0000     0.0000 </r>
       <r>   -18.7858     0.0000     0.0000 </r>
       <r>   -18.7139     0.0000     0.0000 </r>
       <r>   -18.6421     0.0000     0.0000 </r>
       <r>   -18.5702     0.0000     0.0000 </r>
       <r>   -18.4983    -0.0000    -0.0000 </r>
       <r>   -18.4265    -0.0000    -0.0000 </r>
       <r>   -18.3546    -0.0000    -0.0000 </r>
       <r>   -18.2827    -0.0000    -0.0000 </r>
       <r>   -18.2109    -0.0000    -0.0000 </r>
       <r>   -18.1390    -0.0000    -0.0000 </r>
       <r>   -18.0671    -0.0000    -0.0000 </r>
       <r>   -17.9953    -0.0000    -0.0000 </r>
       <r>   -17.9234    -0.0000    -0.0000 </r>
       <r>   -17.8515    -0.0000    -0.0000 </r>
       <r>   -17.7797    -0.0000    -0.0000 </r>
       <r>   -17.7078    -0.0000    -0.0000 </r>
       <r>   -17.6360    -0.0000    -0.0000 </r>
       <r>   -17.5641    -0.0001    -0.0000 </r>
       <r>   -17.4922    -0.0009    -0.0001 </r>
       <r>   -17.4204    -0.0061    -0.0005 </r>
       <r>   -17.3485    -0.0323    -0.0028 </r>
       <r>   -17.2766    -0.1223    -0.0116 </r>
       <r>   -17.2048    -0.3120    -0.0340 </r>
       <r>   -17.1329    -0.4336    -0.0652 </r>
       <r>   -17.0610     0.1613    -0.0536 </r>
       <r>   -16.9892     2.2979     0.1115 </r>
       <r>   -16.9173     5.6703     0.5190 </r>
       <r>   -16.8454     8.1249     1.1029 </r>
       <r>   -16.7736     7.5630     1.6464 </r>
       <r>   -16.7017     4.4925     1.9693 </r>
       <r>   -16.6299     1.3790     2.0684 </r>
       <r>   -16.5580    -0.1796     2.0555 </r>
       <r>   -16.4861    -0.4289     2.0246 </r>
       <r>   -16.4143    -0.2390     2.0075 </r>
       <r>   -16.3424    -0.0811     2.0016 </r>
       <r>   -16.2705    -0.0191     2.0003 </r>
       <r>   -16.1987    -0.0033     2.0000 </r>
       <r>   -16.1268    -0.0004     2.0000 </r>
       <r>   -16.0549    -0.0000     2.0000 </r>
       <r>   -15.9831    -0.0000     2.0000 </r>
       <r>   -15.9112    -0.0000     2.0000 </r>
       <r>   -15.8393    -0.0000     2.0000 </r>
       <r>   -15.7675    -0.0000     2.0000 </r>
       <r>   -15.6956    -0.0000     2.0000 </r>
       <r>   -15.6238    -0.0000     2.0000 </r>
       <r>   -15.5519     0.0000     2.0000 </r>
       <r>   -15.4800     0.0000     2.0000 </r>
       <r>   -15.4082     0.0000     2.0000 </r>
       <r>   -15.3363     0.0000     2.0000 </r>
       <r>   -15.2644     0.0000     2.0000 </r>
       <r>   -15.1926     0.0000     2.0000 </r>
       <r>   -15.1207     0.0000     2.0000 </r>
       <r>   -15.0488     0.0000     2.0000 </r>
       <r>   -14.9770     0.0000     2.0000 </r>
       <r>   -14.9051     0.0000     2.0000 </r>
       <r>   -14.8332     0.0000     2.0000 </r>
       <r>   -14.7614     0.0000     2.0000 </r>
       <r>   -14.6895     0.0000     2.0000 </r>
       <r>   -14.6177     0.0000     2.0000 </r>
       <r>   -14.5458     0.0000     2.0000 </r>
       <r>   -14.4739     0.0000     2.0000 </r>
       <r>   -14.4021     0.0000     2.0000 </r>
       <r>   -14.3302     0.0000     2.0000 </r>
       <r>   -14.2583     0.0000     2.0000 </r>
       <r>   -14.1865     0.0000     2.0000 </r>
       <r>   -14.1146     0.0000     2.0000 </r>
       <r>   -14.0427     0.0000     2.0000 </r>
       <r>   -13.9709     0.0000     2.0000 </r>
       <r>   -13.8990     0.0000     2.0000 </r>
       <r>   -13.8271     0.0000     2.0000 </r>
       <r>   -13.7553     0.0000     2.0000 </r>
       <r>   -13.6834     0.0000     2.0000 </r>
       <r>   -13.6116     0.0000     2.0000 </r>
       <r>   -13.5397     0.0000     2.0000 </r>
       <r>   -13.4678     0.0000     2.0000 </r>
       <r>   -13.3960     0.0000     2.0000 </r>
       <r>   -13.3241     0.0000     2.0000 </r>
       <r>   -13.2522     0.0000     2.0000 </r>
       <r>   -13.1804     0.0000     2.0000 </r>
       <r>   -13.1085     0.0000     2.0000 </r>
       <r>   -13.0366     0.0000     2.0000 </r>
       <r>   -12.9648     0.0000     2.0000 </r>
       <r>   -12.8929     0.0000     2.0000 </r>
       <r>   -12.8210     0.0000     2.0000 </r>
       <r>   -12.7492     0.0000     2.0000 </r>
       <r>   -12.6773     0.0000     2.0000 </r>
       <r>   -12.6055     0.0000     2.0000 </r>
       <r>   -12.5336     0.0000     2.0000 </r>
       <r>   -12.4617     0.0000     2.0000 </r>
       <r>   -12.3899     0.0000     2.0000 </r>
       <r>   -12.3180     0.0000     2.0000 </r>
       <r>   -12.2461     0.0000     2.0000 </r>
       <r>   -12.1743     0.0000     2.0000 </r>
       <r>   -12.1024     0.0000     2.0000 </r>
       <r>   -12.0305     0.0000     2.0000 </r>
       <r>   -11.9587     0.0000     2.0000 </r>
       <r>   -11.8868     0.0000     2.0000 </r>
       <r>   -11.8149     0.0000     2.0000 </r>
       <r>   -11.7431     0.0000     2.0000 </r>
       <r>   -11.6712     0.0000     2.0000 </r>
       <r>   -11.5994     0.0000     2.0000 </r>
       <r>   -11.5275     0.0000     2.0000 </r>
       <r>   -11.4556     0.0000     2.0000 </r>
       <r>   -11.3838     0.0000     2.0000 </r>
       <r>   -11.3119     0.0000     2.0000 </r>
       <r>   -11.2400     0.0000     2.0000 </r>
       <r>   -11.1682     0.0000     2.0000 </r>
       <r>   -11.0963     0.0000     2.0000 </r>
       <r>   -11.0244    -0.0000     2.0000 </r>
       <r>   -10.9526    -0.0000     2.0000 </r>
       <r>   -10.8807    -0.0000     2.0000 </r>
       <r>   -10.8088    -0.0000     2.0000 </r>
       <r>   -10.7370    -0.0000     2.0000 </r>
       <r>   -10.6651    -0.0000     2.0000 </r>
       <r>   -10.5933    -0.0000     2.0000 </r>
       <r>   -10.5214    -0.0000     2.0000 </r>
       <r>   -10.4495    -0.0000     2.0000 </r>
       <r>   -10.3777    -0.0000     2.0000 </r>
       <r>   -10.3058    -0.0000     2.0000 </r>
       <r>   -10.2339    -0.0000     2.0000 </r>
       <r>   -10.1621    -0.0000     2.0000 </r>
       <r>   -10.0902    -0.0003     2.0000 </r>
       <r>   -10.0183    -0.0026     1.9998 </r>
       <r>    -9.9465    -0.0158     1.9987 </r>
       <r>    -9.8746    -0.0704     1.9936 </r>
       <r>    -9.8027    -0.2224     1.9776 </r>
       <r>    -9.7309    -0.4559     1.9448 </r>
       <r>    -9.6590    -0.4160     1.9149 </r>
       <r>    -9.5872     0.7012     1.9653 </r>
       <r>    -9.5153     3.4687     2.2146 </r>
       <r>    -9.4434     7.2411     2.7350 </r>
       <r>    -9.3716    10.6038     3.4970 </r>
       <r>    -9.2997    12.9498     4.4276 </r>
       <r>    -9.2278    14.4260     5.4644 </r>
       <r>    -9.1560    14.4327     6.5016 </r>
       <r>    -9.0841    11.9125     7.3576 </r>
       <r>    -9.0122     7.3068     7.8827 </r>
       <r>    -8.9404     2.7796     8.0825 </r>
       <r>    -8.8685     0.1358     8.0922 </r>
       <r>    -8.7967    -0.5980     8.0493 </r>
       <r>    -8.7248    -0.4401     8.0176 </r>
       <r>    -8.6529    -0.1820     8.0046 </r>
       <r>    -8.5811    -0.0513     8.0009 </r>
       <r>    -8.5092    -0.0104     8.0001 </r>
       <r>    -8.4373    -0.0016     8.0000 </r>
       <r>    -8.3655    -0.0002     8.0000 </r>
       <r>    -8.2936    -0.0000     8.0000 </r>
       <r>    -8.2217    -0.0000     8.0000 </r>
       <r>    -8.1499    -0.0000     8.0000 </r>
       <r>    -8.0780    -0.0000     8.0000 </r>
       <r>    -8.0061    -0.0000     8.0000 </r>
       <r>    -7.9343    -0.0000     8.0000 </r>
       <r>    -7.8624    -0.0000     8.0000 </r>
       <r>    -7.7906     0.0000     8.0000 </r>
       <r>    -7.7187     0.0000     8.0000 </r>
       <r>    -7.6468     0.0000     8.0000 </r>
       <r>    -7.5750     0.0000     8.0000 </r>
       <r>    -7.5031     0.0000     8.0000 </r>
       <r>    -7.4312     0.0000     8.0000 </r>
       <r>    -7.3594     0.0000     8.0000 </r>
       <r>    -7.2875     0.0000     8.0000 </r>
       <r>    -7.2156     0.0000     8.0000 </r>
       <r>    -7.1438     0.0000     8.0000 </r>
       <r>    -7.0719     0.0000     8.0000 </r>
       <r>    -7.0000     0.0000     8.0000 </r>
       <r>    -6.9282     0.0000     8.0000 </r>
       <r>    -6.8563     0.0000     8.0000 </r>
       <r>    -6.7845     0.0000     8.0000 </r>
       <r>    -6.7126     0.0000     8.0000 </r>
       <r>    -6.6407     0.0000     8.0000 </r>
       <r>    -6.5689     0.0000     8.0000 </r>
       <r>    -6.4970     0.0000     8.0000 </r>
       <r>    -6.4251     0.0000     8.0000 </r>
       <r>    -6.3533     0.0000     8.0000 </r>
       <r>    -6.2814     0.0000     8.0000 </r>
       <r>    -6.2095     0.0000     8.0000 </r>
       <r>    -6.1377     0.0000     8.0000 </r>
       <r>    -6.0658     0.0000     8.0000 </r>
       <r>    -5.9939     0.0000     8.0000 </r>
       <r>    -5.9221     0.0000     8.0000 </r>
       <r>    -5.8502     0.0000     8.0000 </r>
       <r>    -5.7784     0.0000     8.0000 </r>
       <r>    -5.7065     0.0000     8.0000 </r>
       <r>    -5.6346     0.0000     8.0000 </r>
       <r>    -5.5628     0.0000     8.0000 </r>
       <r>    -5.4909     0.0000     8.0000 </r>
       <r>    -5.4190     0.0000     8.0000 </r>
       <r>    -5.3472     0.0000     8.0000 </r>
       <r>    -5.2753     0.0000     8.0000 </r>
       <r>    -5.2034     0.0000     8.0000 </r>
       <r>    -5.1316     0.0000     8.0000 </r>
       <r>    -5.0597     0.0000     8.0000 </r>
       <r>    -4.9878     0.0000     8.0000 </r>
       <r>    -4.9160     0.0000     8.0000 </r>
       <r>    -4.8441     0.0000     8.0000 </r>
       <r>    -4.7723     0.0000     8.0000 </r>
       <r>    -4.7004     0.0000     8.0000 </r>
       <r>    -4.6285     0.0000     8.0000 </r>
       <r>    -4.5567     0.0000     8.0000 </r>
       <r>    -4.4848     0.0000     8.0000 </r>
       <r>    -4.4129     0.0000     8.0000 </r>
       <r>    -4.3411     0.0000     8.0000 </r>
       <r>    -4.2692     0.0000     8.0000 </r>
       <r>    -4.1973     0.0000     8.0000 </r>
       <r>    -4.1255     0.0000     8.0000 </r>
       <r>    -4.0536     0.0000     8.0000 </r>
       <r>    -3.9817     0.0000     8.0000 </r>
       <r>    -3.9099     0.0000     8.0000 </r>
       <r>    -3.8380     0.0000     8.0000 </r>
       <r>    -3.7662     0.0000     8.0000 </r>
       <r>    -3.6943     0.0000     8.0000 </r>
       <r>    -3.6224     0.0000     8.0000 </r>
       <r>    -3.5506     0.0000     8.0000 </r>
       <r>    -3.4787     0.0000     8.0000 </r>
       <r>    -3.4068     0.0000     8.0000 </r>
       <r>    -3.3350     0.0000     8.0000 </r>
       <r>    -3.2631     0.0000     8.0000 </r>
       <r>    -3.1912     0.0000     8.0000 </r>
       <r>    -3.1194     0.0000     8.0000 </r>
       <r>    -3.0475     0.0000     8.0000 </r>
       <r>    -2.9756     0.0000     8.0000 </r>
       <r>    -2.9038     0.0000     8.0000 </r>
       <r>    -2.8319     0.0000     8.0000 </r>
       <r>    -2.7601     0.0000     8.0000 </r>
       <r>    -2.6882     0.0000     8.0000 </r>
       <r>    -2.6163     0.0000     8.0000 </r>
       <r>    -2.5445     0.0000     8.0000 </r>
       <r>    -2.4726     0.0000     8.0000 </r>
       <r>    -2.4007     0.0000     8.0000 </r>
       <r>    -2.3289     0.0000     8.0000 </r>
       <r>    -2.2570     0.0000     8.0000 </r>
       <r>    -2.1851     0.0000     8.0000 </r>
       <r>    -2.1133     0.0000     8.0000 </r>
       <r>    -2.0414     0.0000     8.0000 </r>
       <r>    -1.9695    -0.0000     8.0000 </r>
       <r>    -1.8977    -0.0000     8.0000 </r>
       <r>    -1.8258    -0.0000     8.0000 </r>
       <r>    -1.7540    -0.0000     8.0000 </r>
       <r>    -1.6821    -0.0000     8.0000 </r>
       <r>    -1.6102    -0.0000     8.0000 </r>
       <r>    -1.5384    -0.0000     8.0000 </r>
       <r>    -1.4665    -0.0000     8.0000 </r>
       <r>    -1.3946    -0.0000     8.0000 </r>
       <r>    -1.3228    -0.0000     8.0000 </r>
       <r>    -1.2509    -0.0000     8.0000 </r>
       <r>    -1.1790    -0.0000     8.0000 </r>
       <r>    -1.1072    -0.0000     8.0000 </r>
       <r>    -1.0353    -0.0001     8.0000 </r>
       <r>    -0.9634    -0.0007     7.9999 </r>
       <r>    -0.8916    -0.0053     7.9996 </r>
       <r>    -0.8197    -0.0285     7.9975 </r>
       <r>    -0.7479    -0.1109     7.9896 </r>
       <r>    -0.6760    -0.2935     7.9685 </r>
       <r>    -0.6041    -0.4382     7.9370 </r>
       <r>    -0.5323     0.0604     7.9413 </r>
       <r>    -0.4604     2.0523     8.0888 </r>
       <r>    -0.3885     5.3816     8.4755 </r>
       <r>    -0.3167     8.0165     9.0516 </r>
       <r>    -0.2448     7.7340     9.6074 </r>
       <r>    -0.1729     4.7898     9.9517 </r>
       <r>    -0.1011     1.5907    10.0660 </r>
       <r>    -0.0292    -0.1142    10.0578 </r>
       <r>     0.0427    -0.4601    10.0247 </r>
       <r>     0.1145    -0.3627     9.9986 </r>
       <r>     0.1864    -0.4161     9.9687 </r>
       <r>     0.2582    -0.6946     9.9188 </r>
       <r>     0.3301    -0.6907     9.8692 </r>
       <r>     0.4020     0.8188     9.9280 </r>
       <r>     0.4738     5.1733    10.2998 </r>
       <r>     0.5457    12.2021    11.1767 </r>
       <r>     0.6176    19.0126    12.5430 </r>
       <r>     0.6894    21.3077    14.0743 </r>
       <r>     0.7613    17.1495    15.3067 </r>
       <r>     0.8332     9.2910    15.9744 </r>
       <r>     0.9050     2.5886    16.1604 </r>
       <r>     0.9769    -0.5230    16.1228 </r>
       <r>     1.0488    -0.9528    16.0544 </r>
       <r>     1.1206    -0.5243    16.0167 </r>
       <r>     1.1925    -0.1801    16.0037 </r>
       <r>     1.2643    -0.0434    16.0006 </r>
       <r>     1.3362    -0.0076    16.0001 </r>
       <r>     1.4081    -0.0010    16.0000 </r>
       <r>     1.4799    -0.0001    16.0000 </r>
       <r>     1.5518    -0.0000    16.0000 </r>
       <r>     1.6237    -0.0000    16.0000 </r>
       <r>     1.6955    -0.0000    16.0000 </r>
       <r>     1.7674    -0.0000    16.0000 </r>
       <r>     1.8393    -0.0000    16.0000 </r>
       <r>     1.9111    -0.0000    16.0000 </r>
       <r>     1.9830    -0.0000    16.0000 </r>
       <r>     2.0549     0.0000    16.0000 </r>
       <r>     2.1267     0.0000    16.0000 </r>
       <r>     2.1986     0.0000    16.0000 </r>
       <r>     2.2704     0.0000    16.0000 </r>
       <r>     2.3423     0.0000    16.0000 </r>
       <r>     2.4142     0.0000    16.0000 </r>
       <r>     2.4860     0.0000    16.0000 </r>
       <r>     2.5579     0.0000    16.0000 </r>
       <r>     2.6298     0.0000    16.0000 </r>
       <r>     2.7016     0.0000    16.0000 </r>
      </set>
     </set>
    </array>
   </total>
  </dos>
  <time name="totalsc">   73.01   73.19</time>
 </calculation>
 <calculation>
  <scstep>
   <time name="dav">    2.18    2.18</time>
   <time name="total">    4.24    4.25</time>
   <energy>
    <i name="alphaZ">      0.23891570 </i>
    <i name="ewald">    128.45748668 </i>
    <i name="hartreedc">   -284.46250387 </i>
    <i name="XCdc">     24.71229969 </i>
    <i name="pawpsdc">    438.09332165 </i>
    <i name="pawaedc">   -438.87993467 </i>
    <i name="eentropy">      0.01236674 </i>
    <i name="bandstr">    -89.22185505 </i>
    <i name="atom">    197.04175453 </i>
    <i name="e_fr_energy">    -24.00814859 </i>
    <i name="e_wo_entrp">    -24.02051533 </i>
    <i name="e_0_energy">    -24.01227084 </i>
   </energy>
  </scstep>
  <scstep>
   <time name="diag">    0.48    0.48</time>
   <time name="diis">    1.57    1.57</time>
   <time name="orth">    0.01    0.01</time>
   <time name="total">    4.09    4.10</time>
   <energy>
    <i name="e_fr_energy">    -24.01273611 </i>
    <i name="e_wo_entrp">    -24.02474905 </i>
    <i name="e_0_energy">    -24.01674042 </i>
   </energy>
  </scstep>
  <scstep>
   <time name="diag">    0.48    0.48</time>
   <time name="diis">    1.60    1.60</time>
   <time name="orth">    0.01    0.01</time>
   <time name="total">    4.15    4.16</time>
   <energy>
    <i name="e_fr_energy">    -24.00302301 </i>
    <i name="e_wo_entrp">    -24.01475865 </i>
    <i name="e_0_energy">    -24.00693489 </i>
   </energy>
  </scstep>
  <scstep>
   <time name="diag">    0.46    0.46</time>
   <time name="diis">    1.62    1.62</time>
   <time name="orth">    0.01    0.01</time>
   <time name="total">    4.15    4.15</time>
   <energy>
    <i name="e_fr_energy">    -24.00234735 </i>
    <i name="e_wo_entrp">    -24.01402427 </i>
    <i name="e_0_energy">    -24.00623966 </i>
   </energy>
  </scstep>
  <scstep>
   <time name="diag">    0.49    0.49</time>
   <time name="diis">    1.62    1.62</time>
   <time name="orth">    0.01    0.01</time>
   <time name="total">    4.15    4.16</time>
   <energy>
    <i name="e_fr_energy">    -24.00028504 </i>
    <i name="e_wo_entrp">    -24.01200109 </i>
    <i name="e_0_energy">    -24.00419039 </i>
   </energy>
  </scstep>
  <scstep>
   <time name="diag">    0.49    0.49</time>
   <time name="diis">    1.56    1.57</time>
   <time name="orth">    0.01    0.01</time>
   <time name="total">    4.12    4.13</time>
   <energy>
    <i name="e_fr_energy">    -24.00018500 </i>
    <i name="e_wo_entrp">    -24.01192578 </i>
    <i name="e_0_energy">    -24.00409859 </i>
   </energy>
  </scstep>
  <scstep>
   <time name="diag">    0.47    0.47</time>
   <time name="diis">    1.58    1.58</time>
   <time name="orth">    0.01    0.01</time>
   <time name="total">    4.16    4.17</time>
   <energy>
    <i name="e_fr_energy">    -24.00022084 </i>
    <i name="e_wo_entrp">    -24.01195198 </i>
    <i name="e_0_energy">    -24.00413122 </i>
   </energy>
  </scstep>
  <scstep>
   <time name="diag">    0.46    0.47</time>
   <time name="diis">    1.59    1.59</time>
   <time name="orth">    0.01    0.01</time>
   <time name="total">    4.20    4.21</time>
   <energy>
    <i name="e_fr_energy">    -24.00013083 </i>
    <i name="e_wo_entrp">    -24.01188132 </i>
    <i name="e_0_energy">    -24.00404766 </i>
   </energy>
  </scstep>
  <scstep>
   <time name="diag">    0.47    0.47</time>
   <time name="diis">    1.61    1.61</time>
   <time name="orth">    0.01    0.01</time>
   <time name="total">    4.18    4.19</time>
   <energy>
    <i name="e_fr_energy">    -24.00012039 </i>
    <i name="e_wo_entrp">    -24.01188619 </i>
    <i name="e_0_energy">    -24.00404233 </i>
   </energy>
  </scstep>
  <scstep>
   <time name="diag">    0.49    0.49</time>
   <time name="diis">    1.59    1.60</time>
   <time name="orth">    0.01    0.01</time>
   <time name="total">    4.20    4.21</time>
   <energy>
    <i name="e_fr_energy">    -24.00013529 </i>
    <i name="e_wo_entrp">    -24.01189903 </i>
    <i name="e_0_energy">    -24.00405654 </i>
   </energy>
  </scstep>
  <scstep>
   <time name="diag">    0.48    0.48</time>
   <time name="diis">    1.59    1.59</time>
   <time name="orth">    0.01    0.01</time>
   <time name="total">    4.22    4.23</time>
   <energy>
    <i name="e_fr_energy">    -24.00014956 </i>
    <i name="e_wo_entrp">    -24.01191280 </i>
    <i name="e_0_energy">    -24.00407064 </i>
   </energy>
  </scstep>
  <scstep>
   <time name="diag">    0.48    0.49</time>
   <time name="diis">    1.46    1.46</time>
   <time name="orth">    0.01    0.01</time>
   <time name="total">    4.08    4.09</time>
   <energy>
    <i name="e_fr_energy">    -24.00016091 </i>
    <i name="e_wo_entrp">    -24.01192418 </i>
    <i name="e_0_energy">    -24.00408200 </i>
   </energy>
  </scstep>
  <scstep>
   <time name="diag">    0.49    0.49</time>
   <time name="diis">    1.30    1.30</time>
   <time name="orth">    0.01    0.01</time>
   <time name="total">    3.93    3.94</time>
   <energy>
    <i name="e_fr_energy">    -24.00016345 </i>
    <i name="e_wo_entrp">    -24.01192660 </i>
    <i name="e_0_energy">    -24.00408450 </i>
   </energy>
  </scstep>
  <scstep>
   <time name="diag">    0.49    0.49</time>
   <time name="diis">    1.22    1.23</time>
   <time name="orth">    0.01    0.01</time>
   <time name="total">    3.87    3.88</time>
   <energy>
    <i name="e_fr_energy">    -24.00016514 </i>
    <i name="e_wo_entrp">    -24.01192729 </i>
    <i name="e_0_energy">    -24.00408586 </i>
   </energy>
  </scstep>
  <scstep>
   <time name="diag">    0.49    0.49</time>
   <time name="diis">    1.23    1.23</time>
   <time name="orth">    0.01    0.01</time>
   <time name="total">    3.55    3.56</time>
   <energy>
    <i name="alphaZ">      0.23891570 </i>
    <i name="ewald">    128.45748668 </i>
    <i name="hartreedc">   -284.30497276 </i>
    <i name="XCdc">     24.70000218 </i>
    <i name="pawpsdc">    436.18395044 </i>
    <i name="pawaedc">   -436.96916331 </i>
    <i name="eentropy">      0.01176188 </i>
    <i name="bandstr">    -89.35990108 </i>
    <i name="atom">    197.04175453 </i>
    <i name="e_fr_energy">    -24.00016573 </i>
    <i name="e_wo_entrp">    -24.01192761 </i>
    <i name="e_0_energy">    -24.00408636 </i>
   </energy>
  </scstep>
  <structure>
   <crystal>
    <varray name="basis" >
     <v>       9.90575820       0.00000000       0.00000000 </v>
     <v>       0.18656002      10.09148776       0.00000000 </v>
     <v>      -0.03276051      -0.06924931      10.14326075 </v>
    </varray>
    <i name="volume">   1013.95927077 </i>
    <varray name="rec_basis" >
     <v>       0.10095138      -0.00186628       0.00031331 </v>
     <v>      -0.00000000       0.09909342       0.00067652 </v>
     <v>       0.00000000       0.00000000       0.09858763 </v>
    </varray>
   </crystal>
   <varray name="positions" >
    <v>       0.53885782       0.40293188       0.36087926 </v>
    <v>       0.39431475       0.48260399       0.44675339 </v>
    <v>       0.55233872       0.56398349       0.44060279 </v>
    <v>       0.52692132       0.41417649       0.53606742 </v>
    <v>       0.50309063       0.46752252       0.44525112 </v>
   </varray>
  </structure>
  <varray name="forces" >
   <v>      -0.55646714       0.42626072       0.44520962 </v>
   <v>      -0.25345421       0.40890699      -0.55677965 </v>
   <v>       0.09557989      -0.02754711       0.58568331 </v>
   <v>       0.48351547       0.31043569       0.33737700 </v>
   <v>      -0.05069932       0.88771453      -0.71711366 </v>
  </varray>
  <varray name="stress" >
   <v>      -0.08319865       0.68977687       1.25228791 </v>
   <v>       0.68977687      -1.19477659      -0.58103201 </v>
   <v>       1.25228791      -0.58103201      -0.94101461 </v>
  </varray>
  <energy>
   <i name="e_fr_energy">    -24.00016573 </i>
   <i name="e_wo_entrp">    -24.00408636 </i>
   <i name="e_0_energy">      0.01176188 </i>
   <i name="kinetic">      0.04146352 </i>
   <i name="lattice kinetic">      0.00000000 </i>
   <i name="nosepot">      0.00052873 </i>
   <i name="nosekinetic">      0.00031735 </i>
   <i name="total">    -23.95785613 </i>
  </energy>
  <dos>
   <i name="efermi">     -8.79494137 </i>
   <total>
    <array>
     <dimension dim="1">gridpoints</dimension>
     <dimension dim="2">spin</dimension>
     <field>energy</field>
     <field>total</field>
     <field>integrated</field>
     <set>
      <set comment="spin 1">
       <r>   -18.8725     0.0000     0.0000 </r>
       <r>   -18.8006     0.0000     0.0000 </r>
       <r>   -18.7287     0.0000     0.0000 </r>
       <r>   -18.6568     0.0000     0.0000 </r>
       <r>   -18.5849     0.0000     0.0000 </r>
       <r>   -18.5130    -0.0000    -0.0000 </r>
       <r>   -18.4410    -0.0000    -0.0000 </r>
       <r>   -18.3691    -0.0000    -0.0000 </r>
       <r>   -18.2972    -0.0000    -0.0000 </r>
       <r>   -18.2253    -0.0000    -0.0000 </r>
       <r>   -18.1534    -0.0000    -0.0000 </r>
       <r>   -18.0814    -0.0000    -0.0000 </r>
       <r>   -18.0095    -0.0000    -0.0000 </r>
       <r>   -17.9376    -0.0000    -0.0000 </r>
       <r>   -17.8657    -0.0000    -0.0000 </r>
       <r>   -17.7938    -0.0000    -0.0000 </r>
       <r>   -17.7219    -0.0000    -0.0000 </r>
       <r>   -17.6499    -0.0000    -0.0000 </r>
       <r>   -17.5780    -0.0001    -0.0000 </r>
       <r>   -17.5061    -0.0009    -0.0001 </r>
       <r>   -17.4342    -0.0063    -0.0005 </r>
       <r>   -17.3623    -0.0331    -0.0029 </r>
       <r>   -17.2904    -0.1246    -0.0119 </r>
       <r>   -17.2184    -0.3156    -0.0346 </r>
       <r>   -17.1465    -0.4320    -0.0656 </r>
       <r>   -17.0746     0.1849    -0.0523 </r>
       <r>   -17.0027     2.3551     0.1170 </r>
       <r>   -16.9308     5.7371     0.5296 </r>
       <r>   -16.8588     8.1472     1.1156 </r>
       <r>   -16.7869     7.5162     1.6561 </r>
       <r>   -16.7150     4.4148     1.9736 </r>
       <r>   -16.6431     1.3241     2.0689 </r>
       <r>   -16.5712    -0.1970     2.0547 </r>
       <r>   -16.4993    -0.4264     2.0240 </r>
       <r>   -16.4273    -0.2338     2.0072 </r>
       <r>   -16.3554    -0.0784     2.0016 </r>
       <r>   -16.2835    -0.0183     2.0003 </r>
       <r>   -16.2116    -0.0031     2.0000 </r>
       <r>   -16.1397    -0.0004     2.0000 </r>
       <r>   -16.0677    -0.0000     2.0000 </r>
       <r>   -15.9958    -0.0000     2.0000 </r>
       <r>   -15.9239    -0.0000     2.0000 </r>
       <r>   -15.8520    -0.0000     2.0000 </r>
       <r>   -15.7801    -0.0000     2.0000 </r>
       <r>   -15.7082    -0.0000     2.0000 </r>
       <r>   -15.6362    -0.0000     2.0000 </r>
       <r>   -15.5643     0.0000     2.0000 </r>
       <r>   -15.4924     0.0000     2.0000 </r>
       <r>   -15.4205     0.0000     2.0000 </r>
       <r>   -15.3486     0.0000     2.0000 </r>
       <r>   -15.2766     0.0000     2.0000 </r>
       <r>   -15.2047     0.0000     2.0000 </r>
       <r>   -15.1328     0.0000     2.0000 </r>
       <r>   -15.0609     0.0000     2.0000 </r>
       <r>   -14.9890     0.0000     2.0000 </r>
       <r>   -14.9171     0.0000     2.0000 </r>
       <r>   -14.8451     0.0000     2.0000 </r>
       <r>   -14.7732     0.0000     2.0000 </r>
       <r>   -14.7013     0.0000     2.0000 </r>
       <r>   -14.6294     0.0000     2.0000 </r>
[...]
       <r>     0.2558    -0.6641     9.9269 </r>
       <r>     0.3278    -0.8261     9.8675 </r>
       <r>     0.3997     0.3142     9.8901 </r>
       <r>     0.4716     4.3286    10.2015 </r>
       <r>     0.5435    11.4484    11.0249 </r>
       <r>     0.6155    18.8564    12.3811 </r>
       <r>     0.6874    21.8237    13.9508 </r>
       <r>     0.7593    17.9449    15.2415 </r>
       <r>     0.8312     9.9205    15.9550 </r>
       <r>     0.9032     2.8844    16.1625 </r>
       <r>     0.9751    -0.4684    16.1288 </r>
       <r>     1.0470    -0.9842    16.0580 </r>
       <r>     1.1189    -0.5553    16.0180 </r>
       <r>     1.1909    -0.1939    16.0041 </r>
       <r>     1.2628    -0.0473    16.0007 </r>
       <r>     1.3347    -0.0084    16.0001 </r>
       <r>     1.4066    -0.0011    16.0000 </r>
       <r>     1.4786    -0.0001    16.0000 </r>
       <r>     1.5505    -0.0000    16.0000 </r>
       <r>     1.6224    -0.0000    16.0000 </r>
       <r>     1.6943    -0.0000    16.0000 </r>
       <r>     1.7663    -0.0000    16.0000 </r>
       <r>     1.8382    -0.0000    16.0000 </r>
       <r>     1.9101    -0.0000    16.0000 </r>
       <r>     1.9820    -0.0000    16.0000 </r>
       <r>     2.0540     0.0000    16.0000 </r>
       <r>     2.1259     0.0000    16.0000 </r>
       <r>     2.1978     0.0000    16.0000 </r>
       <r>     2.2697     0.0000    16.0000 </r>
       <r>     2.3417     0.0000    16.0000 </r>
       <r>     2.4136     0.0000    16.0000 </r>
       <r>     2.4855     0.0000    16.0000 </r>
       <r>     2.5574     0.0000    16.0000 </r>
       <r>     2.6294     0.0000    16.0000 </r>
       <r>     2.7013     0.0000    16.0000 </r>
      </set>
     </set>
    </array>
   </total>
  </dos>
  <time name="totalsc">  144.33  144.69</time>
  <eigenvalues>
   <array>
    <dimension dim="1">band</dimension>
    <dimension dim="2">kpoint</dimension>
    <dimension dim="3">spin</dimension>
    <field>eigene</field>
    <field>occ</field>
    <set>
     <set comment="spin 1">
      <set comment="kpoint 1">
       <r>  -16.5418    1.0000 </r>
       <r>   -9.1962    1.0067 </r>
       <r>   -9.0049    1.0326 </r>
       <r>   -8.9257    0.9606 </r>
       <r>   -0.3508    0.0000 </r>
       <r>    0.5322    0.0000 </r>
       <r>    0.6599    0.0000 </r>
       <r>    0.7015    0.0000 </r>
      </set>
      <set comment="kpoint 2">
       <r>  -16.5417    1.0000 </r>
       <r>   -9.1961    1.0067 </r>
       <r>   -9.0049    1.0325 </r>
       <r>   -8.9258    0.9608 </r>
       <r>   -0.3484    0.0000 </r>
       <r>    0.5396    0.0000 </r>
       <r>    0.6404    0.0000 </r>
       <r>    0.6857    0.0000 </r>
      </set>
      <set comment="kpoint 3">
       <r>  -16.5417    1.0000 </r>
       <r>   -9.1961    1.0067 </r>
       <r>   -9.0046    1.0325 </r>
       <r>   -8.9259    0.9609 </r>
       <r>   -0.3491    0.0000 </r>
       <r>    0.5295    0.0000 </r>
       <r>    0.6517    0.0000 </r>
       <r>    0.6939    0.0000 </r>
      </set>
      <set comment="kpoint 4">
       <r>  -16.5418    1.0000 </r>
       <r>   -9.1962    1.0067 </r>
       <r>   -9.0047    1.0325 </r>
       <r>   -8.9258    0.9609 </r>
       <r>   -0.3531    0.0000 </r>
       <r>    0.5472    0.0000 </r>
       <r>    0.6565    0.0000 </r>
       <r>    0.7031    0.0000 </r>
      </set>
     </set>
    </set>
   </array>
  </eigenvalues>
  <separator name="orbital magnetization" >
   <v name="MAGDIPOLOUT">      0.00000000      0.00000000      0.00000000</v>
  </separator>
  <dos>
   <i name="efermi">     -8.78525316 </i>
   <total>
    <array>
     <dimension dim="1">gridpoints</dimension>
     <dimension dim="2">spin</dimension>
     <field>energy</field>
     <field>total</field>
     <field>integrated</field>
     <set>
      <set comment="spin 1">
       <r>   -18.5418     0.0000     0.0000 </r>
       <r>   -18.4710     0.0000     0.0000 </r>
       <r>   -18.4002     0.0000     0.0000 </r>
       <r>   -18.3293     0.0000     0.0000 </r>
       <r>   -18.2585     0.0000     0.0000 </r>
       <r>   -18.1877    -0.0000    -0.0000 </r>
       <r>   -18.1169    -0.0000    -0.0000 </r>
       <r>   -18.0461    -0.0000    -0.0000 </r>
       <r>   -17.9753    -0.0000    -0.0000 </r>
       <r>   -17.9044    -0.0000    -0.0000 </r>
       <r>   -17.8336    -0.0000    -0.0000 </r>
       <r>   -17.7628    -0.0000    -0.0000 </r>
       <r>   -17.6920    -0.0000    -0.0000 </r>
       <r>   -17.6212    -0.0000    -0.0000 </r>
       <r>   -17.5504    -0.0000    -0.0000 </r>
       <r>   -17.4795    -0.0000    -0.0000 </r>
       <r>   -17.4087    -0.0000    -0.0000 </r>
       <r>   -17.3379    -0.0000    -0.0000 </r>
       <r>   -17.2671    -0.0000    -0.0000 </r>
       <r>   -17.1963    -0.0005    -0.0000 </r>
       <r>   -17.1255    -0.0036    -0.0003 </r>
       <r>   -17.0546    -0.0203    -0.0017 </r>
       <r>   -16.9838    -0.0836    -0.0076 </r>
       <r>   -16.9130    -0.2411    -0.0247 </r>
       <r>   -16.8422    -0.4290    -0.0551 </r>
       <r>   -16.7714    -0.1951    -0.0689 </r>
       <r>   -16.7006     1.2973     0.0230 </r>
       <r>   -16.6298     4.3245     0.3292 </r>
       <r>   -16.5589     7.4268     0.8551 </r>
       <r>   -16.4881     8.2060     1.4363 </r>
       <r>   -16.4173     5.9763     1.8595 </r>
       <r>   -16.3465     2.6195     2.0450 </r>
       <r>   -16.2757     0.3243     2.0679 </r>
       <r>   -16.2049    -0.4164     2.0385 </r>
       <r>   -16.1340    -0.3441     2.0141 </r>
       <r>   -16.0632    -0.1468     2.0037 </r>
       <r>   -15.9924    -0.0420     2.0007 </r>
       <r>   -15.9216    -0.0086     2.0001 </r>
       <r>   -15.8508    -0.0013     2.0000 </r>
       <r>   -15.7800    -0.0002     2.0000 </r>
       <r>   -15.7091    -0.0000     2.0000 </r>
       <r>   -15.6383    -0.0000     2.0000 </r>
       <r>   -15.5675    -0.0000     2.0000 </r>
       <r>   -15.4967    -0.0000     2.0000 </r>
       <r>   -15.4259    -0.0000     2.0000 </r>
       <r>   -15.3551    -0.0000     2.0000 </r>
       <r>   -15.2842    -0.0000     2.0000 </r>
       <r>   -15.2134     0.0000     2.0000 </r>
       <r>   -15.1426     0.0000     2.0000 </r>
       <r>   -15.0718     0.0000     2.0000 </r>
       <r>   -15.0010     0.0000     2.0000 </r>
       <r>   -14.9302     0.0000     2.0000 </r>
       <r>   -14.8593     0.0000     2.0000 </r>
       <r>   -14.7885     0.0000     2.0000 </r>
       <r>   -14.7177     0.0000     2.0000 </r>
       <r>   -14.6469     0.0000     2.0000 </r>
       <r>   -14.5761     0.0000     2.0000 </r>
       <r>   -14.5053     0.0000     2.0000 </r>
       <r>   -14.4344     0.0000     2.0000 </r>
       <r>   -14.3636     0.0000     2.0000 </r>
       <r>   -14.2928     0.0000     2.0000 </r>
       <r>   -14.2220     0.0000     2.0000 </r>
       <r>   -14.1512     0.0000     2.0000 </r>
       <r>   -14.0804     0.0000     2.0000 </r>
       <r>   -14.0095     0.0000     2.0000 </r>
       <r>   -13.9387     0.0000     2.0000 </r>
       <r>   -13.8679     0.0000     2.0000 </r>
       <r>   -13.7971     0.0000     2.0000 </r>
       <r>   -13.7263     0.0000     2.0000 </r>
       <r>   -13.6555     0.0000     2.0000 </r>
       <r>   -13.5846     0.0000     2.0000 </r>
       <r>   -13.5138     0.0000     2.0000 </r>
       <r>   -13.4430     0.0000     2.0000 </r>
       <r>   -13.3722     0.0000     2.0000 </r>
       <r>   -13.3014     0.0000     2.0000 </r>
       <r>   -13.2306     0.0000     2.0000 </r>
       <r>   -13.1597     0.0000     2.0000 </r>
       <r>   -13.0889     0.0000     2.0000 </r>
       <r>   -13.0181     0.0000     2.0000 </r>
       <r>   -12.9473     0.0000     2.0000 </r>
       <r>   -12.8765     0.0000     2.0000 </r>
       <r>   -12.8057     0.0000     2.0000 </r>
       <r>   -12.7349     0.0000     2.0000 </r>
       <r>   -12.6640     0.0000     2.0000 </r>
       <r>   -12.5932     0.0000     2.0000 </r>
       <r>   -12.5224     0.0000     2.0000 </r>
       <r>   -12.4516     0.0000     2.0000 </r>
       <r>   -12.3808     0.0000     2.0000 </r>
       <r>   -12.3100     0.0000     2.0000 </r>
       <r>   -12.2391     0.0000     2.0000 </r>
       <r>   -12.1683     0.0000     2.0000 </r>
       <r>   -12.0975     0.0000     2.0000 </r>
       <r>   -12.0267     0.0000     2.0000 </r>
       <r>   -11.9559     0.0000     2.0000 </r>
       <r>   -11.8851     0.0000     2.0000 </r>
       <r>   -11.8142     0.0000     2.0000 </r>
       <r>   -11.7434     0.0000     2.0000 </r>
       <r>   -11.6726     0.0000     2.0000 </r>
       <r>   -11.6018     0.0000     2.0000 </r>
       <r>   -11.5310     0.0000     2.0000 </r>
       <r>   -11.4602     0.0000     2.0000 </r>
       <r>   -11.3893     0.0000     2.0000 </r>
       <r>   -11.3185     0.0000     2.0000 </r>
       <r>   -11.2477     0.0000     2.0000 </r>
       <r>   -11.1769     0.0000     2.0000 </r>
       <r>   -11.1061     0.0000     2.0000 </r>
       <r>   -11.0353     0.0000     2.0000 </r>
       <r>   -10.9644     0.0000     2.0000 </r>
       <r>   -10.8936     0.0000     2.0000 </r>
       <r>   -10.8228    -0.0000     2.0000 </r>
       <r>   -10.7520    -0.0000     2.0000 </r>
       <r>   -10.6812    -0.0000     2.0000 </r>
       <r>   -10.6104    -0.0000     2.0000 </r>
       <r>   -10.5395    -0.0000     2.0000 </r>
       <r>   -10.4687    -0.0000     2.0000 </r>
       <r>   -10.3979    -0.0000     2.0000 </r>
       <r>   -10.3271    -0.0000     2.0000 </r>
       <r>   -10.2563    -0.0000     2.0000 </r>
       <r>   -10.1855    -0.0000     2.0000 </r>
       <r>   -10.1146    -0.0000     2.0000 </r>
       <r>   -10.0438    -0.0000     2.0000 </r>
       <r>    -9.9730    -0.0000     2.0000 </r>
       <r>    -9.9022    -0.0001     2.0000 </r>
       <r>    -9.8314    -0.0009     1.9999 </r>
       <r>    -9.7606    -0.0060     1.9995 </r>
       <r>    -9.6897    -0.0310     1.9973 </r>
       <r>    -9.6189    -0.1177     1.9890 </r>
       <r>    -9.5481    -0.3102     1.9670 </r>
       <r>    -9.4773    -0.4943     1.9320 </r>
       <r>    -9.4065    -0.1476     1.9216 </r>
       <r>    -9.3357     1.4930     2.0273 </r>
       <r>    -9.2648     4.5315     2.3482 </r>
       <r>    -9.1940     7.9821     2.9135 </r>
       <r>    -9.1232    11.0178     3.6937 </r>
       <r>    -9.0524    13.8324     4.6733 </r>
       <r>    -8.9816    15.9756     5.8046 </r>
       <r>    -8.9108    15.3918     6.8946 </r>
       <r>    -8.8400    11.0880     7.6798 </r>
       <r>    -8.7691     5.2500     8.0516 </r>
       <r>    -8.6983     1.0098     8.1231 </r>
       <r>    -8.6275    -0.6200     8.0792 </r>
       <r>    -8.5567    -0.6611     8.0324 </r>
       <r>    -8.4859    -0.3233     8.0095 </r>
       <r>    -8.4151    -0.1046     8.0021 </r>
       <r>    -8.3442    -0.0243     8.0003 </r>
       <r>    -8.2734    -0.0042     8.0000 </r>
       <r>    -8.2026    -0.0005     8.0000 </r>
       <r>    -8.1318    -0.0001     8.0000 </r>
       <r>    -8.0610    -0.0000     8.0000 </r>
       <r>    -7.9902    -0.0000     8.0000 </r>
       <r>    -7.9193    -0.0000     8.0000 </r>
       <r>    -7.8485    -0.0000     8.0000 </r>
       <r>    -7.7777    -0.0000     8.0000 </r>
       <r>    -7.7069    -0.0000     8.0000 </r>
       <r>    -7.6361    -0.0000     8.0000 </r>
       <r>    -7.5653     0.0000     8.0000 </r>
       <r>    -7.4944     0.0000     8.0000 </r>
       <r>    -7.4236     0.0000     8.0000 </r>
       <r>    -7.3528     0.0000     8.0000 </r>
       <r>    -7.2820     0.0000     8.0000 </r>
       <r>    -7.2112     0.0000     8.0000 </r>
       <r>    -7.1404     0.0000     8.0000 </r>
       <r>    -7.0695     0.0000     8.0000 </r>
       <r>    -6.9987     0.0000     8.0000 </r>
       <r>    -6.9279     0.0000     8.0000 </r>
       <r>    -6.8571     0.0000     8.0000 </r>
       <r>    -6.7863     0.0000     8.0000 </r>
       <r>    -6.7155     0.0000     8.0000 </r>
       <r>    -6.6446     0.0000     8.0000 </r>
       <r>    -6.5738     0.0000     8.0000 </r>
       <r>    -6.5030     0.0000     8.0000 </r>
       <r>    -6.4322     0.0000     8.0000 </r>
       <r>    -6.3614     0.0000     8.0000 </r>
       <r>    -6.2906     0.0000     8.0000 </r>
       <r>    -6.2197     0.0000     8.0000 </r>
       <r>    -6.1489     0.0000     8.0000 </r>
       <r>    -6.0781     0.0000     8.0000 </r>
       <r>    -6.0073     0.0000     8.0000 </r>
       <r>    -5.9365     0.0000     8.0000 </r>
       <r>    -5.8657     0.0000     8.0000 </r>
       <r>    -5.7948     0.0000     8.0000 </r>
       <r>    -5.7240     0.0000     8.0000 </r>
       <r>    -5.6532     0.0000     8.0000 </r>
       <r>    -5.5824     0.0000     8.0000 </r>
       <r>    -5.5116     0.0000     8.0000 </r>
       <r>    -5.4408     0.0000     8.0000 </r>
       <r>    -5.3699     0.0000     8.0000 </r>
       <r>    -5.2991     0.0000     8.0000 </r>
       <r>    -5.2283     0.0000     8.0000 </r>
       <r>    -5.1575     0.0000     8.0000 </r>
       <r>    -5.0867     0.0000     8.0000 </r>
       <r>    -5.0159     0.0000     8.0000 </r>
       <r>    -4.9451     0.0000     8.0000 </r>
       <r>    -4.8742     0.0000     8.0000 </r>
       <r>    -4.8034     0.0000     8.0000 </r>
       <r>    -4.7326     0.0000     8.0000 </r>
       <r>    -4.6618     0.0000     8.0000 </r>
       <r>    -4.5910     0.0000     8.0000 </r>
       <r>    -4.5202     0.0000     8.0000 </r>
       <r>    -4.4493     0.0000     8.0000 </r>
       <r>    -4.3785     0.0000     8.0000 </r>
       <r>    -4.3077     0.0000     8.0000 </r>
       <r>    -4.2369     0.0000     8.0000 </r>
       <r>    -4.1661     0.0000     8.0000 </r>
       <r>    -4.0953     0.0000     8.0000 </r>
       <r>    -4.0244     0.0000     8.0000 </r>
       <r>    -3.9536     0.0000     8.0000 </r>
       <r>    -3.8828     0.0000     8.0000 </r>
       <r>    -3.8120     0.0000     8.0000 </r>
       <r>    -3.7412     0.0000     8.0000 </r>
       <r>    -3.6704     0.0000     8.0000 </r>
       <r>    -3.5995     0.0000     8.0000 </r>
       <r>    -3.5287     0.0000     8.0000 </r>
       <r>    -3.4579     0.0000     8.0000 </r>
       <r>    -3.3871     0.0000     8.0000 </r>
       <r>    -3.3163     0.0000     8.0000 </r>
       <r>    -3.2455     0.0000     8.0000 </r>
       <r>    -3.1746     0.0000     8.0000 </r>
       <r>    -3.1038     0.0000     8.0000 </r>
       <r>    -3.0330     0.0000     8.0000 </r>
       <r>    -2.9622     0.0000     8.0000 </r>
       <r>    -2.8914     0.0000     8.0000 </r>
       <r>    -2.8206     0.0000     8.0000 </r>
       <r>    -2.7497     0.0000     8.0000 </r>
       <r>    -2.6789     0.0000     8.0000 </r>
       <r>    -2.6081     0.0000     8.0000 </r>
       <r>    -2.5373     0.0000     8.0000 </r>
       <r>    -2.4665     0.0000     8.0000 </r>
       <r>    -2.3957     0.0000     8.0000 </r>
       <r>    -2.3248     0.0000     8.0000 </r>
       <r>    -2.2540     0.0000     8.0000 </r>
       <r>    -2.1832     0.0000     8.0000 </r>
       <r>    -2.1124     0.0000     8.0000 </r>
       <r>    -2.0416     0.0000     8.0000 </r>
       <r>    -1.9708    -0.0000     8.0000 </r>
       <r>    -1.8999    -0.0000     8.0000 </r>
       <r>    -1.8291    -0.0000     8.0000 </r>
       <r>    -1.7583    -0.0000     8.0000 </r>
       <r>    -1.6875    -0.0000     8.0000 </r>
       <r>    -1.6167    -0.0000     8.0000 </r>
       <r>    -1.5459    -0.0000     8.0000 </r>
       <r>    -1.4750    -0.0000     8.0000 </r>
       <r>    -1.4042    -0.0000     8.0000 </r>
       <r>    -1.3334    -0.0000     8.0000 </r>
       <r>    -1.2626    -0.0000     8.0000 </r>
       <r>    -1.1918    -0.0000     8.0000 </r>
       <r>    -1.1210    -0.0000     8.0000 </r>
       <r>    -1.0502    -0.0001     8.0000 </r>
       <r>    -0.9793    -0.0010     7.9999 </r>
       <r>    -0.9085    -0.0070     7.9994 </r>
       <r>    -0.8377    -0.0351     7.9969 </r>
       <r>    -0.7669    -0.1282     7.9879 </r>
       <r>    -0.6961    -0.3179     7.9654 </r>
       <r>    -0.6253    -0.4331     7.9347 </r>
       <r>    -0.5544     0.1573     7.9458 </r>
       <r>    -0.4836     2.2477     8.1050 </r>
       <r>    -0.4128     5.5657     8.4991 </r>
       <r>    -0.3420     8.0729     9.0708 </r>
       <r>    -0.2712     7.6903     9.6154 </r>
       <r>    -0.2004     4.7557     9.9522 </r>
       <r>    -0.1295     1.6011    10.0656 </r>
       <r>    -0.0587    -0.0973    10.0587 </r>
       <r>     0.0121    -0.4543    10.0265 </r>
       <r>     0.0829    -0.3417    10.0023 </r>
       <r>     0.1537    -0.3433     9.9780 </r>
       <r>     0.2245    -0.5872     9.9364 </r>
       <r>     0.2954    -0.7474     9.8835 </r>
       <r>     0.3662     0.1297     9.8927 </r>
       <r>     0.4370     3.3385    10.1291 </r>
       <r>     0.5078     9.2943    10.7873 </r>
       <r>     0.5786    16.2549    11.9384 </r>
       <r>     0.6494    20.6105    13.3980 </r>
       <r>     0.7203    19.3726    14.7699 </r>
       <r>     0.7911    13.0746    15.6958 </r>
       <r>     0.8619     5.6436    16.0954 </r>
       <r>     0.9327     0.7754    16.1503 </r>
       <r>     1.0035    -0.8657    16.0890 </r>
       <r>     1.0743    -0.7706    16.0345 </r>
       <r>     1.1452    -0.3508    16.0096 </r>
       <r>     1.2160    -0.1075    16.0020 </r>
       <r>     1.2868    -0.0238    16.0003 </r>
       <r>     1.3576    -0.0039    16.0000 </r>
       <r>     1.4284    -0.0005    16.0000 </r>
       <r>     1.4992    -0.0000    16.0000 </r>
       <r>     1.5701    -0.0000    16.0000 </r>
       <r>     1.6409    -0.0000    16.0000 </r>
       <r>     1.7117    -0.0000    16.0000 </r>
       <r>     1.7825    -0.0000    16.0000 </r>
       <r>     1.8533    -0.0000    16.0000 </r>
       <r>     1.9241    -0.0000    16.0000 </r>
       <r>     1.9950    -0.0000    16.0000 </r>
       <r>     2.0658     0.0000    16.0000 </r>
       <r>     2.1366     0.0000    16.0000 </r>
       <r>     2.2074     0.0000    16.0000 </r>
       <r>     2.2782     0.0000    16.0000 </r>
       <r>     2.3490     0.0000    16.0000 </r>
       <r>     2.4199     0.0000    16.0000 </r>
       <r>     2.4907     0.0000    16.0000 </r>
       <r>     2.5615     0.0000    16.0000 </r>
       <r>     2.6323     0.0000    16.0000 </r>
       <r>     2.7031     0.0000    16.0000 </r>
      </set>
     </set>
    </array>
   </total>
  </dos>
 </calculation>
 <structure name="finalpos" >
  <crystal>
   <varray name="basis" >
    <v>       9.90575820       0.00000000       0.00000000 </v>
    <v>       0.18656002      10.09148776       0.00000000 </v>
    <v>      -0.03276051      -0.06924931      10.14326075 </v>
   </varray>
   <i name="volume">   1013.95927077 </i>
   <varray name="rec_basis" >
    <v>       0.10095138      -0.00186628       0.00031331 </v>
    <v>      -0.00000000       0.09909342       0.00067652 </v>
    <v>       0.00000000       0.00000000       0.09858763 </v>
   </varray>
  </crystal>
  <varray name="positions" >
   <v>       0.53001222       0.40203290       0.35716647 </v>
   <v>       0.39231870       0.49361169       0.44484641 </v>
   <v>       0.56822145       0.55760355       0.44569171 </v>
   <v>       0.53019034       0.41106126       0.53590486 </v>
   <v>       0.50239876       0.46747143       0.44530885 </v>
  </varray>
  <varray name="velocities" >
   <v>       0.00158773      -0.00242720      -0.00254925 </v>
   <v>      -0.00046559       0.00117649      -0.00196207 </v>
   <v>       0.00488964       0.00068491       0.00091509 </v>
   <v>      -0.00122947      -0.00175273       0.00197622 </v>
   <v>      -0.00039816       0.00019303       0.00013488 </v>
  </varray>
 </structure>
</modeling>
