unknown system                          
           1
     9.905758    0.000000    0.000000
     0.186560   10.091488    0.000000
    -0.032761   -0.069249   10.143261
   H    C 
   4   1
Direct configuration=     1
   0.53777834  0.40636306  0.36084851
   0.39424537  0.48062904  0.43814584
   0.55200563  0.56550221  0.44266280
   0.52817585  0.41611025  0.54008403
   0.50310956  0.46711383  0.44546440
Direct configuration=     2
   0.53864480  0.40401257  0.35941345
   0.39529447  0.48187678  0.44216489
   0.55119886  0.56405363  0.44056595
   0.52716430  0.41536057  0.53831406
   0.50310147  0.46738866  0.44557121
Direct configuration=     3
   0.53885782  0.40293188  0.36087926
   0.39431475  0.48260399  0.44675339
   0.55233872  0.56398349  0.44060279
   0.52692132  0.41417649  0.53606742
   0.50309063  0.46752252  0.44525112
Direct configuration=     4
   0.53696525  0.40301986  0.36398847
   0.39240658  0.48438581  0.44915795
   0.55392076  0.56334837  0.44283174
   0.52861244  0.41371930  0.53510180
   0.50313456  0.46745778  0.44468688
Direct configuration=     5
   0.53547158  0.40094844  0.36413759
   0.39108105  0.48591839  0.44956233
   0.55607787  0.56444300  0.44524505
   0.53067394  0.41439283  0.53672465
   0.50301804  0.46735544  0.44430476
Direct configuration=     6
   0.53262410  0.39836088  0.36216806
   0.39104634  0.48498306  0.44839617
   0.55821880  0.56380527  0.44629358
   0.53219093  0.41641049  0.53777917
   0.50295346  0.46753385  0.44439073
Direct configuration=     7
   0.52875681  0.40045626  0.36155464
   0.39341110  0.48549040  0.44686208
   0.55772068  0.56020087  0.44508605
   0.53258710  0.41737086  0.53777501
   0.50308704  0.46753729  0.44467041
Direct configuration=     8
   0.52599409  0.40375405  0.36185121
   0.39619170  0.48684802  0.44493035
   0.55851667  0.55861462  0.44483763
   0.53308850  0.41617613  0.53733385
   0.50297754  0.46738123  0.44486396
Direct configuration=     9
   0.52614723  0.40495905  0.36148887
   0.39575700  0.48934150  0.44571070
   0.56027206  0.55770487  0.44457509
   0.53306972  0.41408916  0.53590066
   0.50285639  0.46732281  0.44497034
Direct configuration=    10
   0.52842448  0.40446010  0.35971572
   0.39278429  0.49243520  0.44680848
   0.56333181  0.55691865  0.44477662
   0.53141981  0.41281399  0.53392864
   0.50279692  0.46727840  0.44517398
