   5   5   0   0
  0.1953783E+03  0.9735729E-09  0.1000683E-08  0.1003569E-08  0.2000000E-14
   50.000000000000000     
  CAR 
 unknown system                          
      2.73242507    -18.94674756  301     -9.13668991      1.00000000
    -18.947  0.0000E+00  0.0000E+00
    -18.874  0.0000E+00  0.0000E+00
    -18.802  0.0000E+00  0.0000E+00
    -18.730  0.0000E+00  0.0000E+00
    -18.658  0.0000E+00  0.0000E+00
    -18.585 -0.4466E-27 -0.3227E-28
    -18.513 -0.1392E-24 -0.1009E-25
    -18.441 -0.3343E-22 -0.2426E-23
    -18.369 -0.6166E-20 -0.4480E-21
    -18.296 -0.8733E-18 -0.6356E-19
    -18.224 -0.9496E-16 -0.6925E-17
    -18.152 -0.7921E-14 -0.5793E-15
    -18.080 -0.4913E-12 -0.3608E-13
    -18.007 -0.2396E-10 -0.1767E-11
    -17.935 -0.8939E-09 -0.6637E-10
    -17.863 -0.2546E-07 -0.1906E-08
    -17.791 -0.5527E-06 -0.4184E-07
    -17.718 -0.9113E-05 -0.7004E-06
    -17.646 -0.1137E-03 -0.8917E-05
    -17.574 -0.1067E-02 -0.8604E-04
    -17.501 -0.7465E-02 -0.6255E-03
    -17.429 -0.3831E-01 -0.3394E-02
    -17.357 -0.1399E+00 -0.1351E-01
    -17.285 -0.3388E+00 -0.3799E-01
    -17.212 -0.4160E+00 -0.6805E-01
    -17.140  0.3500E+00 -0.4275E-01
    -17.068  0.2733E+01  0.1548E+00
    -16.996  0.6155E+01  0.5995E+00
    -16.923  0.8257E+01  0.1196E+01
    -16.851  0.7189E+01  0.1716E+01
    -16.779  0.3919E+01  0.1999E+01
    -16.707  0.9938E+00  0.2071E+01
    -16.634 -0.2918E+00  0.2050E+01
    -16.562 -0.4058E+00  0.2020E+01
    -16.490 -0.2018E+00  0.2006E+01
    -16.418 -0.6311E-01  0.2001E+01
    -16.345 -0.1380E-01  0.2000E+01
    -16.273 -0.2197E-02  0.2000E+01
    -16.201 -0.2593E-03  0.2000E+01
    -16.128 -0.2297E-04  0.2000E+01
    -16.056 -0.1536E-05  0.2000E+01
    -15.984 -0.7798E-07  0.2000E+01
    -15.912 -0.3013E-08  0.2000E+01
    -15.839 -0.8882E-10  0.2000E+01
    -15.767 -0.1999E-11  0.2000E+01
    -15.695 -0.3687E-13  0.2000E+01
    -15.623  0.0000E+00  0.2000E+01
    -15.550  0.0000E+00  0.2000E+01
    -15.478  0.0000E+00  0.2000E+01
    -15.406  0.0000E+00  0.2000E+01
    -15.334  0.0000E+00  0.2000E+01
    -15.261  0.0000E+00  0.2000E+01
    -15.189  0.0000E+00  0.2000E+01
    -15.117  0.0000E+00  0.2000E+01
    -15.044  0.0000E+00  0.2000E+01
    -14.972  0.0000E+00  0.2000E+01
    -14.900  0.0000E+00  0.2000E+01
    -14.828  0.0000E+00  0.2000E+01
    -14.755  0.0000E+00  0.2000E+01
    -14.683  0.0000E+00  0.2000E+01
    -14.611  0.0000E+00  0.2000E+01
    -14.539  0.0000E+00  0.2000E+01
    -14.466  0.0000E+00  0.2000E+01
    -14.394  0.0000E+00  0.2000E+01
    -14.322  0.0000E+00  0.2000E+01
    -14.250  0.0000E+00  0.2000E+01
    -14.177  0.0000E+00  0.2000E+01
    -14.105  0.0000E+00  0.2000E+01
    -14.033  0.0000E+00  0.2000E+01
    -13.961  0.0000E+00  0.2000E+01
    -13.888  0.0000E+00  0.2000E+01
    -13.816  0.0000E+00  0.2000E+01
    -13.744  0.0000E+00  0.2000E+01
    -13.671  0.0000E+00  0.2000E+01
    -13.599  0.0000E+00  0.2000E+01
    -13.527  0.0000E+00  0.2000E+01
    -13.455  0.0000E+00  0.2000E+01
    -13.382  0.0000E+00  0.2000E+01
    -13.310  0.0000E+00  0.2000E+01
    -13.238  0.0000E+00  0.2000E+01
    -13.166  0.0000E+00  0.2000E+01
    -13.093  0.0000E+00  0.2000E+01
    -13.021  0.0000E+00  0.2000E+01
    -12.949  0.0000E+00  0.2000E+01
    -12.877  0.0000E+00  0.2000E+01
    -12.804  0.0000E+00  0.2000E+01
    -12.732  0.0000E+00  0.2000E+01
    -12.660  0.0000E+00  0.2000E+01
    -12.588  0.0000E+00  0.2000E+01
    -12.515  0.0000E+00  0.2000E+01
    -12.443  0.0000E+00  0.2000E+01
    -12.371  0.0000E+00  0.2000E+01
    -12.298  0.0000E+00  0.2000E+01
    -12.226  0.0000E+00  0.2000E+01
    -12.154  0.0000E+00  0.2000E+01
    -12.082  0.0000E+00  0.2000E+01
    -12.009  0.0000E+00  0.2000E+01
    -11.937  0.0000E+00  0.2000E+01
    -11.865  0.0000E+00  0.2000E+01
    -11.793  0.0000E+00  0.2000E+01
    -11.720  0.0000E+00  0.2000E+01
    -11.648  0.0000E+00  0.2000E+01
    -11.576  0.0000E+00  0.2000E+01
    -11.504  0.0000E+00  0.2000E+01
    -11.431  0.0000E+00  0.2000E+01
    -11.359  0.0000E+00  0.2000E+01
    -11.287  0.0000E+00  0.2000E+01
    -11.215  0.0000E+00  0.2000E+01
    -11.142  0.0000E+00  0.2000E+01
    -11.070  0.0000E+00  0.2000E+01
    -10.998 -0.1435E-27  0.2000E+01
    -10.925 -0.4923E-25  0.2000E+01
    -10.853 -0.1253E-22  0.2000E+01
    -10.781 -0.2453E-20  0.2000E+01
    -10.709 -0.3695E-18  0.2000E+01
    -10.636 -0.4280E-16  0.2000E+01
    -10.564 -0.3813E-14  0.2000E+01
    -10.492 -0.2534E-12  0.2000E+01
    -10.420 -0.1328E-10  0.2000E+01
    -10.347 -0.5341E-09  0.2000E+01
    -10.275 -0.1648E-07  0.2000E+01
    -10.203 -0.3893E-06  0.2000E+01
    -10.131 -0.7033E-05  0.2000E+01
    -10.058 -0.9686E-04  0.2000E+01
     -9.986 -0.1013E-02  0.2000E+01
     -9.914 -0.7990E-02  0.1999E+01
     -9.841 -0.4703E-01  0.1996E+01
     -9.769 -0.2025E+00  0.1981E+01
     -9.697 -0.6116E+00  0.1937E+01
     -9.625 -0.1155E+01  0.1854E+01
     -9.552 -0.6766E+00  0.1805E+01
     -9.480  0.3203E+01  0.2036E+01
     -9.408  0.1165E+02  0.2878E+01
     -9.336  0.2099E+02  0.4395E+01
     -9.263  0.2417E+02  0.6142E+01
     -9.191  0.1839E+02  0.7471E+01
     -9.119  0.8590E+01  0.8092E+01
     -9.047  0.1442E+01  0.8196E+01
     -8.974 -0.1091E+01  0.8117E+01
     -8.902 -0.1014E+01  0.8044E+01
     -8.830 -0.4486E+00  0.8012E+01
     -8.758 -0.1305E+00  0.8002E+01
     -8.685 -0.2701E-01  0.8000E+01
     -8.613 -0.4113E-02  0.8000E+01
     -8.541 -0.4679E-03  0.8000E+01
     -8.468 -0.4015E-04  0.8000E+01
     -8.396 -0.2614E-05  0.8000E+01
     -8.324 -0.1296E-06  0.8000E+01
     -8.252 -0.4907E-08  0.8000E+01
     -8.179 -0.1421E-09  0.8000E+01
     -8.107 -0.3159E-11  0.8000E+01
     -8.035 -0.5531E-13  0.8000E+01
     -7.963  0.0000E+00  0.8000E+01
     -7.890  0.0000E+00  0.8000E+01
     -7.818  0.0000E+00  0.8000E+01
     -7.746  0.0000E+00  0.8000E+01
     -7.674  0.0000E+00  0.8000E+01
     -7.601  0.0000E+00  0.8000E+01
     -7.529  0.0000E+00  0.8000E+01
     -7.457  0.0000E+00  0.8000E+01
     -7.385  0.0000E+00  0.8000E+01
     -7.312  0.0000E+00  0.8000E+01
     -7.240  0.0000E+00  0.8000E+01
     -7.168  0.0000E+00  0.8000E+01
     -7.095  0.0000E+00  0.8000E+01
     -7.023  0.0000E+00  0.8000E+01
     -6.951  0.0000E+00  0.8000E+01
     -6.879  0.0000E+00  0.8000E+01
     -6.806  0.0000E+00  0.8000E+01
     -6.734  0.0000E+00  0.8000E+01
     -6.662  0.0000E+00  0.8000E+01
     -6.590  0.0000E+00  0.8000E+01
     -6.517  0.0000E+00  0.8000E+01
     -6.445  0.0000E+00  0.8000E+01
     -6.373  0.0000E+00  0.8000E+01
     -6.301  0.0000E+00  0.8000E+01
     -6.228  0.0000E+00  0.8000E+01
     -6.156  0.0000E+00  0.8000E+01
     -6.084  0.0000E+00  0.8000E+01
     -6.012  0.0000E+00  0.8000E+01
     -5.939  0.0000E+00  0.8000E+01
     -5.867  0.0000E+00  0.8000E+01
     -5.795  0.0000E+00  0.8000E+01
     -5.722  0.0000E+00  0.8000E+01
     -5.650  0.0000E+00  0.8000E+01
     -5.578  0.0000E+00  0.8000E+01
     -5.506  0.0000E+00  0.8000E+01
     -5.433  0.0000E+00  0.8000E+01
     -5.361  0.0000E+00  0.8000E+01
     -5.289  0.0000E+00  0.8000E+01
     -5.217  0.0000E+00  0.8000E+01
     -5.144  0.0000E+00  0.8000E+01
     -5.072  0.0000E+00  0.8000E+01
     -5.000  0.0000E+00  0.8000E+01
     -4.928  0.0000E+00  0.8000E+01
     -4.855  0.0000E+00  0.8000E+01
     -4.783  0.0000E+00  0.8000E+01
     -4.711  0.0000E+00  0.8000E+01
     -4.638  0.0000E+00  0.8000E+01
     -4.566  0.0000E+00  0.8000E+01
     -4.494  0.0000E+00  0.8000E+01
     -4.422  0.0000E+00  0.8000E+01
     -4.349  0.0000E+00  0.8000E+01
     -4.277  0.0000E+00  0.8000E+01
     -4.205  0.0000E+00  0.8000E+01
     -4.133  0.0000E+00  0.8000E+01
     -4.060  0.0000E+00  0.8000E+01
     -3.988  0.0000E+00  0.8000E+01
     -3.916  0.0000E+00  0.8000E+01
     -3.844  0.0000E+00  0.8000E+01
     -3.771  0.0000E+00  0.8000E+01
     -3.699  0.0000E+00  0.8000E+01
     -3.627  0.0000E+00  0.8000E+01
     -3.555  0.0000E+00  0.8000E+01
     -3.482  0.0000E+00  0.8000E+01
     -3.410  0.0000E+00  0.8000E+01
     -3.338  0.0000E+00  0.8000E+01
     -3.265  0.0000E+00  0.8000E+01
     -3.193  0.0000E+00  0.8000E+01
     -3.121  0.0000E+00  0.8000E+01
     -3.049  0.0000E+00  0.8000E+01
     -2.976  0.0000E+00  0.8000E+01
     -2.904  0.0000E+00  0.8000E+01
     -2.832  0.0000E+00  0.8000E+01
     -2.760  0.0000E+00  0.8000E+01
     -2.687  0.0000E+00  0.8000E+01
     -2.615  0.0000E+00  0.8000E+01
     -2.543  0.0000E+00  0.8000E+01
     -2.471  0.0000E+00  0.8000E+01
     -2.398  0.0000E+00  0.8000E+01
     -2.326  0.0000E+00  0.8000E+01
     -2.254  0.0000E+00  0.8000E+01
     -2.182  0.0000E+00  0.8000E+01
     -2.109  0.0000E+00  0.8000E+01
     -2.037  0.0000E+00  0.8000E+01
     -1.965 -0.6985E-28  0.8000E+01
     -1.892 -0.2359E-25  0.8000E+01
     -1.820 -0.6139E-23  0.8000E+01
     -1.748 -0.1227E-20  0.8000E+01
     -1.676 -0.1885E-18  0.8000E+01
     -1.603 -0.2224E-16  0.8000E+01
     -1.531 -0.2013E-14  0.8000E+01
     -1.459 -0.1360E-12  0.8000E+01
     -1.387 -0.7191E-11  0.8000E+01
     -1.314 -0.2917E-09  0.8000E+01
     -1.242 -0.9042E-08  0.8000E+01
     -1.170 -0.2137E-06  0.8000E+01
     -1.098 -0.3843E-05  0.8000E+01
     -1.025 -0.5238E-04  0.8000E+01
     -0.953 -0.5383E-03  0.8000E+01
     -0.881 -0.4138E-02  0.8000E+01
     -0.809 -0.2348E-01  0.7998E+01
     -0.736 -0.9606E-01  0.7991E+01
     -0.664 -0.2687E+00  0.7972E+01
     -0.592 -0.4373E+00  0.7940E+01
     -0.519 -0.4665E-01  0.7937E+01
     -0.447  0.1782E+01  0.8065E+01
     -0.375  0.5059E+01  0.8431E+01
     -0.303  0.7878E+01  0.9000E+01
     -0.230  0.7876E+01  0.9569E+01
     -0.158  0.5056E+01  0.9935E+01
     -0.086  0.1779E+01  0.1006E+02
     -0.014 -0.5105E-01  0.1006E+02
      0.059 -0.4577E+00  0.1003E+02
      0.131 -0.3602E+00  0.1000E+02
      0.203 -0.3943E+00  0.9972E+01
      0.275 -0.6798E+00  0.9923E+01
      0.348 -0.7637E+00  0.9868E+01
      0.420  0.5779E+00  0.9910E+01
      0.492  0.4818E+01  0.1026E+02
      0.565  0.1194E+02  0.1112E+02
      0.637  0.1899E+02  0.1249E+02
      0.709  0.2145E+02  0.1404E+02
      0.781  0.1730E+02  0.1529E+02
      0.854  0.9373E+01  0.1597E+02
      0.926  0.2616E+01  0.1616E+02
      0.998 -0.5126E+00  0.1612E+02
      1.070 -0.9452E+00  0.1605E+02
      1.143 -0.5191E+00  0.1602E+02
      1.215 -0.1777E+00  0.1600E+02
      1.287 -0.4258E-01  0.1600E+02
      1.359 -0.7448E-02  0.1600E+02
      1.432 -0.9700E-03  0.1600E+02
      1.504 -0.9509E-04  0.1600E+02
      1.576 -0.7066E-05  0.1600E+02
      1.648 -0.3997E-06  0.1600E+02
      1.721 -0.1727E-07  0.1600E+02
      1.793 -0.5708E-09  0.1600E+02
      1.865 -0.1446E-10  0.1600E+02
      1.938 -0.2796E-12  0.1600E+02
      2.010 -0.3073E-14  0.1600E+02
      2.082  0.0000E+00  0.1600E+02
      2.154  0.0000E+00  0.1600E+02
      2.227  0.0000E+00  0.1600E+02
      2.299  0.0000E+00  0.1600E+02
      2.371  0.0000E+00  0.1600E+02
      2.443  0.0000E+00  0.1600E+02
      2.516  0.0000E+00  0.1600E+02
      2.588  0.0000E+00  0.1600E+02
      2.660  0.0000E+00  0.1600E+02
      2.732  0.0000E+00  0.1600E+02
      2.72946097    -18.77385960  301     -8.81885150      1.00000000
    -18.774  0.0000E+00  0.0000E+00
    -18.702  0.0000E+00  0.0000E+00
    -18.631  0.0000E+00  0.0000E+00
    -18.559  0.0000E+00  0.0000E+00
    -18.487  0.0000E+00  0.0000E+00
    -18.415 -0.3544E-27 -0.2541E-28
    -18.344 -0.1067E-24 -0.7672E-26
    -18.272 -0.2484E-22 -0.1788E-23
    -18.200 -0.4463E-20 -0.3217E-21
    -18.129 -0.6183E-18 -0.4464E-19
    -18.057 -0.6604E-16 -0.4778E-17
    -17.985 -0.5435E-14 -0.3943E-15
    -17.914 -0.3336E-12 -0.2431E-13
    -17.842 -0.1622E-10 -0.1187E-11
    -17.770 -0.6049E-09 -0.4455E-10
    -17.699 -0.1730E-07 -0.1285E-08
    -17.627 -0.3789E-06 -0.2845E-07
    -17.555 -0.6335E-05 -0.4825E-06
    -17.484 -0.8054E-04 -0.6255E-05
    -17.412 -0.7746E-03 -0.6177E-04
    -17.340 -0.5587E-02 -0.4623E-03
    -17.269 -0.2981E-01 -0.2599E-02
    -17.197 -0.1146E+00 -0.1081E-01
    -17.125 -0.2992E+00 -0.3225E-01
    -17.054 -0.4377E+00 -0.6363E-01
    -16.982  0.8315E-01 -0.5767E-01
    -16.910  0.2103E+01  0.9307E-01
    -16.839  0.5435E+01  0.4827E+00
    -16.767  0.8036E+01  0.1059E+01
    -16.695  0.7716E+01  0.1612E+01
    -16.624  0.4763E+01  0.1953E+01
    -16.552  0.1577E+01  0.2066E+01
    -16.480 -0.1130E+00  0.2058E+01
    -16.408 -0.4356E+00  0.2027E+01
    -16.337 -0.2574E+00  0.2008E+01
    -16.265 -0.9075E-01  0.2002E+01
    -16.193 -0.2209E-01  0.2000E+01
    -16.122 -0.3900E-02  0.2000E+01
    -16.050 -0.5109E-03  0.2000E+01
    -15.978 -0.5030E-04  0.2000E+01
    -15.907 -0.3751E-05  0.2000E+01
    -15.835 -0.2129E-06  0.2000E+01
    -15.763 -0.9231E-08  0.2000E+01
    -15.692 -0.3065E-09  0.2000E+01
    -15.620 -0.7807E-11  0.2000E+01
    -15.548 -0.1549E-12  0.2000E+01
    -15.477  0.0000E+00  0.2000E+01
    -15.405  0.0000E+00  0.2000E+01
    -15.333  0.0000E+00  0.2000E+01
    -15.262  0.0000E+00  0.2000E+01
    -15.190  0.0000E+00  0.2000E+01
    -15.118  0.0000E+00  0.2000E+01
    -15.047  0.0000E+00  0.2000E+01
    -14.975  0.0000E+00  0.2000E+01
    -14.903  0.0000E+00  0.2000E+01
    -14.832  0.0000E+00  0.2000E+01
    -14.760  0.0000E+00  0.2000E+01
    -14.688  0.0000E+00  0.2000E+01
    -14.617  0.0000E+00  0.2000E+01
    -14.545  0.0000E+00  0.2000E+01
    -14.473  0.0000E+00  0.2000E+01
    -14.402  0.0000E+00  0.2000E+01
    -14.330  0.0000E+00  0.2000E+01
    -14.258  0.0000E+00  0.2000E+01
    -14.186  0.0000E+00  0.2000E+01
    -14.115  0.0000E+00  0.2000E+01
    -14.043  0.0000E+00  0.2000E+01
    -13.971  0.0000E+00  0.2000E+01
    -13.900  0.0000E+00  0.2000E+01
    -13.828  0.0000E+00  0.2000E+01
    -13.756  0.0000E+00  0.2000E+01
    -13.685  0.0000E+00  0.2000E+01
    -13.613  0.0000E+00  0.2000E+01
    -13.541  0.0000E+00  0.2000E+01
    -13.470  0.0000E+00  0.2000E+01
    -13.398  0.0000E+00  0.2000E+01
    -13.326  0.0000E+00  0.2000E+01
    -13.255  0.0000E+00  0.2000E+01
    -13.183  0.0000E+00  0.2000E+01
    -13.111  0.0000E+00  0.2000E+01
    -13.040  0.0000E+00  0.2000E+01
    -12.968  0.0000E+00  0.2000E+01
    -12.896  0.0000E+00  0.2000E+01
    -12.825  0.0000E+00  0.2000E+01
    -12.753  0.0000E+00  0.2000E+01
    -12.681  0.0000E+00  0.2000E+01
    -12.610  0.0000E+00  0.2000E+01
    -12.538  0.0000E+00  0.2000E+01
    -12.466  0.0000E+00  0.2000E+01
    -12.395  0.0000E+00  0.2000E+01
    -12.323  0.0000E+00  0.2000E+01
    -12.251  0.0000E+00  0.2000E+01
    -12.180  0.0000E+00  0.2000E+01
    -12.108  0.0000E+00  0.2000E+01
    -12.036  0.0000E+00  0.2000E+01
    -11.964  0.0000E+00  0.2000E+01
    -11.893  0.0000E+00  0.2000E+01
    -11.821  0.0000E+00  0.2000E+01
    -11.749  0.0000E+00  0.2000E+01
    -11.678  0.0000E+00  0.2000E+01
    -11.606  0.0000E+00  0.2000E+01
    -11.534  0.0000E+00  0.2000E+01
    -11.463  0.0000E+00  0.2000E+01
    -11.391  0.0000E+00  0.2000E+01
    -11.319  0.0000E+00  0.2000E+01
    -11.248  0.0000E+00  0.2000E+01
    -11.176  0.0000E+00  0.2000E+01
    -11.104  0.0000E+00  0.2000E+01
    -11.033 -0.1589E-27  0.2000E+01
    -10.961 -0.4969E-25  0.2000E+01
    -10.889 -0.1200E-22  0.2000E+01
    -10.818 -0.2236E-20  0.2000E+01
    -10.746 -0.3214E-18  0.2000E+01
    -10.674 -0.3563E-16  0.2000E+01
    -10.603 -0.3046E-14  0.2000E+01
    -10.531 -0.1945E-12  0.2000E+01
    -10.459 -0.9840E-11  0.2000E+01
    -10.388 -0.3825E-09  0.2000E+01
    -10.316 -0.1143E-07  0.2000E+01
    -10.244 -0.2619E-06  0.2000E+01
    -10.173 -0.4598E-05  0.2000E+01
    -10.101 -0.6167E-04  0.2000E+01
    -10.029 -0.6295E-03  0.2000E+01
     -9.957 -0.4862E-02  0.2000E+01
     -9.886 -0.2813E-01  0.1998E+01
     -9.814 -0.1198E+00  0.1989E+01
     -9.742 -0.3616E+00  0.1963E+01
     -9.671 -0.6984E+00  0.1913E+01
     -9.599 -0.4993E+00  0.1877E+01
     -9.527  0.1612E+01  0.1993E+01
     -9.456  0.6520E+01  0.2460E+01
     -9.384  0.1246E+02  0.3353E+01
     -9.312  0.1532E+02  0.4451E+01
     -9.241  0.1288E+02  0.5375E+01
     -9.169  0.7919E+01  0.5942E+01
     -9.097  0.5259E+01  0.6319E+01
     -9.026  0.6182E+01  0.6762E+01
     -8.954  0.7583E+01  0.7306E+01
     -8.882  0.6490E+01  0.7771E+01
     -8.811  0.3425E+01  0.8017E+01
     -8.739  0.7650E+00  0.8071E+01
     -8.667 -0.3408E+00  0.8047E+01
     -8.596 -0.3939E+00  0.8019E+01
     -8.524 -0.1885E+00  0.8005E+01
     -8.452 -0.5798E-01  0.8001E+01
     -8.381 -0.1259E-01  0.8000E+01
     -8.309 -0.2002E-02  0.8000E+01
     -8.237 -0.2374E-03  0.8000E+01
     -8.166 -0.2123E-04  0.8000E+01
     -8.094 -0.1440E-05  0.8000E+01
     -8.022 -0.7447E-07  0.8000E+01
     -7.951 -0.2945E-08  0.8000E+01
     -7.879 -0.8923E-10  0.8000E+01
     -7.807 -0.2077E-11  0.8000E+01
     -7.735 -0.3717E-13  0.8000E+01
     -7.664  0.0000E+00  0.8000E+01
     -7.592  0.0000E+00  0.8000E+01
     -7.520  0.0000E+00  0.8000E+01
     -7.449  0.0000E+00  0.8000E+01
     -7.377  0.0000E+00  0.8000E+01
     -7.305  0.0000E+00  0.8000E+01
     -7.234  0.0000E+00  0.8000E+01
     -7.162  0.0000E+00  0.8000E+01
     -7.090  0.0000E+00  0.8000E+01
     -7.019  0.0000E+00  0.8000E+01
     -6.947  0.0000E+00  0.8000E+01
     -6.875  0.0000E+00  0.8000E+01
     -6.804  0.0000E+00  0.8000E+01
     -6.732  0.0000E+00  0.8000E+01
     -6.660  0.0000E+00  0.8000E+01
     -6.589  0.0000E+00  0.8000E+01
     -6.517  0.0000E+00  0.8000E+01
     -6.445  0.0000E+00  0.8000E+01
     -6.374  0.0000E+00  0.8000E+01
     -6.302  0.0000E+00  0.8000E+01
     -6.230  0.0000E+00  0.8000E+01
     -6.159  0.0000E+00  0.8000E+01
     -6.087  0.0000E+00  0.8000E+01
     -6.015  0.0000E+00  0.8000E+01
     -5.944  0.0000E+00  0.8000E+01
     -5.872  0.0000E+00  0.8000E+01
     -5.800  0.0000E+00  0.8000E+01
     -5.729  0.0000E+00  0.8000E+01
     -5.657  0.0000E+00  0.8000E+01
     -5.585  0.0000E+00  0.8000E+01
     -5.513  0.0000E+00  0.8000E+01
     -5.442  0.0000E+00  0.8000E+01
     -5.370  0.0000E+00  0.8000E+01
     -5.298  0.0000E+00  0.8000E+01
     -5.227  0.0000E+00  0.8000E+01
     -5.155  0.0000E+00  0.8000E+01
     -5.083  0.0000E+00  0.8000E+01
     -5.012  0.0000E+00  0.8000E+01
     -4.940  0.0000E+00  0.8000E+01
     -4.868  0.0000E+00  0.8000E+01
     -4.797  0.0000E+00  0.8000E+01
     -4.725  0.0000E+00  0.8000E+01
     -4.653  0.0000E+00  0.8000E+01
     -4.582  0.0000E+00  0.8000E+01
     -4.510  0.0000E+00  0.8000E+01
     -4.438  0.0000E+00  0.8000E+01
     -4.367  0.0000E+00  0.8000E+01
     -4.295  0.0000E+00  0.8000E+01
     -4.223  0.0000E+00  0.8000E+01
     -4.152  0.0000E+00  0.8000E+01
     -4.080  0.0000E+00  0.8000E+01
     -4.008  0.0000E+00  0.8000E+01
     -3.937  0.0000E+00  0.8000E+01
     -3.865  0.0000E+00  0.8000E+01
     -3.793  0.0000E+00  0.8000E+01
     -3.722  0.0000E+00  0.8000E+01
     -3.650  0.0000E+00  0.8000E+01
     -3.578  0.0000E+00  0.8000E+01
     -3.507  0.0000E+00  0.8000E+01
     -3.435  0.0000E+00  0.8000E+01
     -3.363  0.0000E+00  0.8000E+01
     -3.291  0.0000E+00  0.8000E+01
     -3.220  0.0000E+00  0.8000E+01
     -3.148  0.0000E+00  0.8000E+01
     -3.076  0.0000E+00  0.8000E+01
     -3.005  0.0000E+00  0.8000E+01
     -2.933  0.0000E+00  0.8000E+01
     -2.861  0.0000E+00  0.8000E+01
     -2.790  0.0000E+00  0.8000E+01
     -2.718  0.0000E+00  0.8000E+01
     -2.646  0.0000E+00  0.8000E+01
     -2.575  0.0000E+00  0.8000E+01
     -2.503  0.0000E+00  0.8000E+01
     -2.431  0.0000E+00  0.8000E+01
     -2.360  0.0000E+00  0.8000E+01
     -2.288  0.0000E+00  0.8000E+01
     -2.216  0.0000E+00  0.8000E+01
     -2.145  0.0000E+00  0.8000E+01
     -2.073  0.0000E+00  0.8000E+01
     -2.001 -0.4605E-28  0.8000E+01
     -1.930 -0.1513E-25  0.8000E+01
     -1.858 -0.3844E-23  0.8000E+01
     -1.786 -0.7539E-21  0.8000E+01
     -1.715 -0.1141E-18  0.8000E+01
     -1.643 -0.1331E-16  0.8000E+01
     -1.571 -0.1198E-14  0.8000E+01
     -1.500 -0.8106E-13  0.8000E+01
     -1.428 -0.4282E-11  0.8000E+01
     -1.356 -0.1750E-09  0.8000E+01
     -1.284 -0.5486E-08  0.8000E+01
     -1.213 -0.1318E-06  0.8000E+01
     -1.141 -0.2421E-05  0.8000E+01
     -1.069 -0.3387E-04  0.8000E+01
     -0.998 -0.3594E-03  0.8000E+01
     -0.926 -0.2870E-02  0.8000E+01
     -0.854 -0.1706E-01  0.7999E+01
     -0.783 -0.7391E-01  0.7993E+01
     -0.711 -0.2236E+00  0.7977E+01
     -0.639 -0.4198E+00  0.7947E+01
     -0.568 -0.2348E+00  0.7930E+01
     -0.496  0.1185E+01  0.8015E+01
     -0.424  0.4191E+01  0.8316E+01
     -0.353  0.7358E+01  0.8843E+01
     -0.281  0.8210E+01  0.9432E+01
     -0.209  0.5981E+01  0.9860E+01
     -0.138  0.2593E+01  0.1005E+02
     -0.066  0.2961E+00  0.1007E+02
      0.006 -0.4280E+00  0.1004E+02
      0.077 -0.3748E+00  0.1001E+02
      0.149 -0.2952E+00  0.9989E+01
      0.221 -0.4711E+00  0.9955E+01
      0.292 -0.7734E+00  0.9899E+01
      0.364 -0.4716E+00  0.9866E+01
      0.436  0.1827E+01  0.9997E+01
      0.507  0.7199E+01  0.1051E+02
      0.579  0.1462E+02  0.1156E+02
      0.651  0.2041E+02  0.1302E+02
      0.722  0.2063E+02  0.1450E+02
      0.794  0.1485E+02  0.1557E+02
      0.866  0.6946E+01  0.1606E+02
      0.938  0.1313E+01  0.1616E+02
      1.009 -0.8056E+00  0.1610E+02
      1.081 -0.8407E+00  0.1604E+02
      1.153 -0.4015E+00  0.1601E+02
      1.224 -0.1262E+00  0.1600E+02
      1.296 -0.2836E-01  0.1600E+02
      1.368 -0.4712E-02  0.1600E+02
      1.439 -0.5884E-03  0.1600E+02
      1.511 -0.5576E-04  0.1600E+02
      1.583 -0.4033E-05  0.1600E+02
      1.654 -0.2235E-06  0.1600E+02
      1.726 -0.9522E-08  0.1600E+02
      1.798 -0.3123E-09  0.1600E+02
      1.869 -0.7895E-11  0.1600E+02
      1.941 -0.1564E-12  0.1600E+02
      2.013 -0.1549E-14  0.1600E+02
      2.084  0.0000E+00  0.1600E+02
      2.156  0.0000E+00  0.1600E+02
      2.228  0.0000E+00  0.1600E+02
      2.299  0.0000E+00  0.1600E+02
      2.371  0.0000E+00  0.1600E+02
      2.443  0.0000E+00  0.1600E+02
      2.514  0.0000E+00  0.1600E+02
      2.586  0.0000E+00  0.1600E+02
      2.658  0.0000E+00  0.1600E+02
      2.729  0.0000E+00  0.1600E+02
      2.72309704    -18.62588285  301     -8.70518041      1.00000000
    -18.626  0.0000E+00  0.0000E+00
    -18.555  0.0000E+00  0.0000E+00
    -18.484  0.0000E+00  0.0000E+00
    -18.412  0.0000E+00  0.0000E+00
    -18.341  0.0000E+00  0.0000E+00
    -18.270 -0.2893E-27 -0.2059E-28
    -18.199 -0.8443E-25 -0.6029E-26
    -18.128 -0.1914E-22 -0.1368E-23
    -18.057 -0.3358E-20 -0.2403E-21
    -17.985 -0.4562E-18 -0.3270E-19
    -17.914 -0.4795E-16 -0.3445E-17
    -17.843 -0.3898E-14 -0.2809E-15
    -17.772 -0.2372E-12 -0.1716E-13
    -17.701 -0.1149E-10 -0.8347E-12
    -17.630 -0.4282E-09 -0.3131E-10
    -17.558 -0.1229E-07 -0.9059E-09
    -17.487 -0.2711E-06 -0.2020E-07
    -17.416 -0.4584E-05 -0.3464E-06
    -17.345 -0.5922E-04 -0.4561E-05
    -17.274 -0.5814E-03 -0.4593E-04
    -17.203 -0.4305E-02 -0.3523E-03
    -17.131 -0.2373E-01 -0.2041E-02
    -17.060 -0.9518E-01 -0.8814E-02
    -16.989 -0.2642E+00 -0.2761E-01
    -16.918 -0.4373E+00 -0.5873E-01
    -16.847 -0.9830E-01 -0.6573E-01
    -16.776  0.1603E+01  0.4835E-01
    -16.704  0.4775E+01  0.3881E+00
    -16.633  0.7710E+01  0.9368E+00
    -16.562  0.8053E+01  0.1510E+01
    -16.491  0.5498E+01  0.1901E+01
    -16.420  0.2175E+01  0.2056E+01
    -16.349  0.1209E+00  0.2065E+01
    -16.277 -0.4358E+00  0.2034E+01
    -16.206 -0.3094E+00  0.2012E+01
    -16.135 -0.1219E+00  0.2003E+01
    -16.064 -0.3265E-01  0.2001E+01
    -15.993 -0.6317E-02  0.2000E+01
    -15.922 -0.9065E-03  0.2000E+01
    -15.851 -0.9789E-04  0.2000E+01
    -15.779 -0.8024E-05  0.2000E+01
    -15.708 -0.5020E-06  0.2000E+01
    -15.637 -0.2406E-07  0.2000E+01
    -15.566 -0.8857E-09  0.2000E+01
    -15.495 -0.2510E-10  0.2000E+01
    -15.424 -0.5429E-12  0.2000E+01
    -15.352 -0.1248E-13  0.2000E+01
    -15.281  0.0000E+00  0.2000E+01
    -15.210  0.0000E+00  0.2000E+01
    -15.139  0.0000E+00  0.2000E+01
    -15.068  0.0000E+00  0.2000E+01
    -14.997  0.0000E+00  0.2000E+01
    -14.925  0.0000E+00  0.2000E+01
    -14.854  0.0000E+00  0.2000E+01
    -14.783  0.0000E+00  0.2000E+01
    -14.712  0.0000E+00  0.2000E+01
    -14.641  0.0000E+00  0.2000E+01
    -14.570  0.0000E+00  0.2000E+01
    -14.498  0.0000E+00  0.2000E+01
    -14.427  0.0000E+00  0.2000E+01
    -14.356  0.0000E+00  0.2000E+01
    -14.285  0.0000E+00  0.2000E+01
    -14.214  0.0000E+00  0.2000E+01
    -14.143  0.0000E+00  0.2000E+01
    -14.071  0.0000E+00  0.2000E+01
    -14.000  0.0000E+00  0.2000E+01
    -13.929  0.0000E+00  0.2000E+01
    -13.858  0.0000E+00  0.2000E+01
    -13.787  0.0000E+00  0.2000E+01
    -13.716  0.0000E+00  0.2000E+01
    -13.644  0.0000E+00  0.2000E+01
    -13.573  0.0000E+00  0.2000E+01
    -13.502  0.0000E+00  0.2000E+01
    -13.431  0.0000E+00  0.2000E+01
    -13.360  0.0000E+00  0.2000E+01
    -13.289  0.0000E+00  0.2000E+01
    -13.217  0.0000E+00  0.2000E+01
    -13.146  0.0000E+00  0.2000E+01
    -13.075  0.0000E+00  0.2000E+01
    -13.004  0.0000E+00  0.2000E+01
    -12.933  0.0000E+00  0.2000E+01
    -12.862  0.0000E+00  0.2000E+01
    -12.790  0.0000E+00  0.2000E+01
    -12.719  0.0000E+00  0.2000E+01
    -12.648  0.0000E+00  0.2000E+01
    -12.577  0.0000E+00  0.2000E+01
    -12.506  0.0000E+00  0.2000E+01
    -12.435  0.0000E+00  0.2000E+01
    -12.364  0.0000E+00  0.2000E+01
    -12.292  0.0000E+00  0.2000E+01
    -12.221  0.0000E+00  0.2000E+01
    -12.150  0.0000E+00  0.2000E+01
    -12.079  0.0000E+00  0.2000E+01
    -12.008  0.0000E+00  0.2000E+01
    -11.937  0.0000E+00  0.2000E+01
    -11.865  0.0000E+00  0.2000E+01
    -11.794  0.0000E+00  0.2000E+01
    -11.723  0.0000E+00  0.2000E+01
    -11.652  0.0000E+00  0.2000E+01
    -11.581  0.0000E+00  0.2000E+01
    -11.510  0.0000E+00  0.2000E+01
    -11.438  0.0000E+00  0.2000E+01
    -11.367  0.0000E+00  0.2000E+01
    -11.296  0.0000E+00  0.2000E+01
    -11.225  0.0000E+00  0.2000E+01
    -11.154  0.0000E+00  0.2000E+01
    -11.083  0.0000E+00  0.2000E+01
    -11.011 -0.3589E-27  0.2000E+01
    -10.940 -0.1038E-24  0.2000E+01
    -10.869 -0.2329E-22  0.2000E+01
    -10.798 -0.4049E-20  0.2000E+01
    -10.727 -0.5448E-18  0.2000E+01
    -10.656 -0.5672E-16  0.2000E+01
    -10.584 -0.4568E-14  0.2000E+01
    -10.513 -0.2750E-12  0.2000E+01
    -10.442 -0.1320E-10  0.2000E+01
    -10.371 -0.4874E-09  0.2000E+01
    -10.300 -0.1385E-07  0.2000E+01
    -10.229 -0.3026E-06  0.2000E+01
    -10.157 -0.5067E-05  0.2000E+01
    -10.086 -0.6482E-04  0.2000E+01
    -10.015 -0.6302E-03  0.2000E+01
     -9.944 -0.4623E-02  0.2000E+01
     -9.873 -0.2527E-01  0.1998E+01
     -9.802 -0.1008E+00  0.1991E+01
     -9.730 -0.2801E+00  0.1971E+01
     -9.659 -0.4785E+00  0.1937E+01
     -9.588 -0.2061E+00  0.1922E+01
     -9.517  0.1360E+01  0.2019E+01
     -9.446  0.4479E+01  0.2338E+01
     -9.375  0.8054E+01  0.2911E+01
     -9.303  0.1048E+02  0.3657E+01
     -9.232  0.1105E+02  0.4443E+01
     -9.161  0.9832E+01  0.5142E+01
     -9.090  0.7436E+01  0.5672E+01
     -9.019  0.5565E+01  0.6068E+01
     -8.948  0.5875E+01  0.6486E+01
     -8.877  0.7458E+01  0.7016E+01
     -8.805  0.7544E+01  0.7553E+01
     -8.734  0.5129E+01  0.7918E+01
     -8.663  0.1988E+01  0.8060E+01
     -8.592  0.5780E-01  0.8064E+01
     -8.521 -0.4413E+00  0.8032E+01
     -8.450 -0.3018E+00  0.8011E+01
     -8.378 -0.1169E+00  0.8003E+01
     -8.307 -0.3089E-01  0.8000E+01
     -8.236 -0.5907E-02  0.8000E+01
     -8.165 -0.8386E-03  0.8000E+01
     -8.094 -0.8962E-04  0.8000E+01
     -8.023 -0.7271E-05  0.8000E+01
     -7.951 -0.4504E-06  0.8000E+01
     -7.880 -0.2137E-07  0.8000E+01
     -7.809 -0.7792E-09  0.8000E+01
     -7.738 -0.2186E-10  0.8000E+01
     -7.667 -0.4758E-12  0.8000E+01
     -7.596 -0.6240E-14  0.8000E+01
     -7.524  0.0000E+00  0.8000E+01
     -7.453  0.0000E+00  0.8000E+01
     -7.382  0.0000E+00  0.8000E+01
     -7.311  0.0000E+00  0.8000E+01
     -7.240  0.0000E+00  0.8000E+01
     -7.169  0.0000E+00  0.8000E+01
     -7.097  0.0000E+00  0.8000E+01
     -7.026  0.0000E+00  0.8000E+01
     -6.955  0.0000E+00  0.8000E+01
     -6.884  0.0000E+00  0.8000E+01
     -6.813  0.0000E+00  0.8000E+01
     -6.742  0.0000E+00  0.8000E+01
     -6.670  0.0000E+00  0.8000E+01
     -6.599  0.0000E+00  0.8000E+01
     -6.528  0.0000E+00  0.8000E+01
     -6.457  0.0000E+00  0.8000E+01
     -6.386  0.0000E+00  0.8000E+01
     -6.315  0.0000E+00  0.8000E+01
     -6.243  0.0000E+00  0.8000E+01
     -6.172  0.0000E+00  0.8000E+01
     -6.101  0.0000E+00  0.8000E+01
     -6.030  0.0000E+00  0.8000E+01
     -5.959  0.0000E+00  0.8000E+01
     -5.888  0.0000E+00  0.8000E+01
     -5.816  0.0000E+00  0.8000E+01
     -5.745  0.0000E+00  0.8000E+01
     -5.674  0.0000E+00  0.8000E+01
     -5.603  0.0000E+00  0.8000E+01
     -5.532  0.0000E+00  0.8000E+01
     -5.461  0.0000E+00  0.8000E+01
     -5.390  0.0000E+00  0.8000E+01
     -5.318  0.0000E+00  0.8000E+01
     -5.247  0.0000E+00  0.8000E+01
     -5.176  0.0000E+00  0.8000E+01
     -5.105  0.0000E+00  0.8000E+01
     -5.034  0.0000E+00  0.8000E+01
     -4.963  0.0000E+00  0.8000E+01
     -4.891  0.0000E+00  0.8000E+01
     -4.820  0.0000E+00  0.8000E+01
     -4.749  0.0000E+00  0.8000E+01
     -4.678  0.0000E+00  0.8000E+01
     -4.607  0.0000E+00  0.8000E+01
     -4.536  0.0000E+00  0.8000E+01
     -4.464  0.0000E+00  0.8000E+01
     -4.393  0.0000E+00  0.8000E+01
     -4.322  0.0000E+00  0.8000E+01
     -4.251  0.0000E+00  0.8000E+01
     -4.180  0.0000E+00  0.8000E+01
     -4.109  0.0000E+00  0.8000E+01
     -4.037  0.0000E+00  0.8000E+01
     -3.966  0.0000E+00  0.8000E+01
     -3.895  0.0000E+00  0.8000E+01
     -3.824  0.0000E+00  0.8000E+01
     -3.753  0.0000E+00  0.8000E+01
     -3.682  0.0000E+00  0.8000E+01
     -3.610  0.0000E+00  0.8000E+01
     -3.539  0.0000E+00  0.8000E+01
     -3.468  0.0000E+00  0.8000E+01
     -3.397  0.0000E+00  0.8000E+01
     -3.326  0.0000E+00  0.8000E+01
     -3.255  0.0000E+00  0.8000E+01
     -3.183  0.0000E+00  0.8000E+01
     -3.112  0.0000E+00  0.8000E+01
     -3.041  0.0000E+00  0.8000E+01