    5    5    1    1
  0.1953783E+03  0.9735729E-09  0.1000683E-08  0.1003569E-08  0.2000000E-14
   50.000000000000000     
  CAR 
 unknown system                          
      8      4      8

  0.2500000E+00  0.2500000E+00  0.2500000E+00  0.2500000E+00
    1      -16.655536   1.000000
    2       -9.314279   1.000028
    3       -9.085680   1.006443
    4       -8.835513   0.993586
    5       -0.320706   0.000000
    6        0.569797   0.000000
    7        0.664717   0.000000
    8        0.708828   0.000000

 -0.2500000E+00  0.2500000E+00  0.2500000E+00  0.2500000E+00
    1      -16.655566   1.000000
    2       -9.314513   1.000028
    3       -9.085874   1.006422
    4       -8.835567   0.993652
    5       -0.329370   0.000000
    6        0.585855   0.000000
    7        0.687604   0.000000
    8        0.721416   0.000000

  0.2500000E+00 -0.2500000E+00  0.2500000E+00  0.2500000E+00
    1      -16.655592   1.000000
    2       -9.314452   1.000028
    3       -9.086053   1.006403
    4       -8.835498   0.993568
    5       -0.316936   0.000000
    6        0.537130   0.000000
    7        0.668976   0.000000
    8        0.709691   0.000000

 -0.2500000E+00 -0.2500000E+00  0.2500000E+00  0.2500000E+00
    1      -16.655626   1.000000
    2       -9.314417   1.000028
    3       -9.086009   1.006407
    4       -8.835365   0.993407
    5       -0.320423   0.000000
    6        0.570085   0.000000
    7        0.673817   0.000000
    8        0.691252   0.000000
