       N       E                     dE             d eps       ncg     rms          rms(c)
DAV:   1     0.221378957286E+02    0.22138E+02   -0.18831E+03    88   0.406E+02
DAV:   2    -0.195211136933E+02   -0.41659E+02   -0.37872E+02    72   0.108E+02
DAV:   3    -0.272168776694E+02   -0.76958E+01   -0.76966E+01    64   0.497E+01
DAV:   4    -0.276707185302E+02   -0.45384E+00   -0.46337E+00   112   0.135E+01
DAV:   5    -0.276806196142E+02   -0.99011E-02   -0.99017E-02   104   0.112E+00    0.891E+00
RMM:   6    -0.246597809287E+02    0.30208E+01   -0.56530E+00    64   0.146E+01    0.438E+00
RMM:   7    -0.241489846219E+02    0.51080E+00   -0.13124E+00    64   0.664E+00    0.234E+00
RMM:   8    -0.240155108139E+02    0.13347E+00   -0.15712E-01    64   0.277E+00    0.756E-01
RMM:   9    -0.239980952439E+02    0.17416E-01   -0.14467E-02    64   0.860E-01    0.414E-01
RMM:  10    -0.239945887820E+02    0.35065E-02   -0.46236E-03    64   0.410E-01    0.168E-01
RMM:  11    -0.239938087017E+02    0.78008E-03   -0.33414E-03    64   0.315E-01    0.162E-01
RMM:  12    -0.239899860517E+02    0.38227E-02   -0.33732E-03    64   0.396E-01    0.221E-01
RMM:  13    -0.239920835764E+02   -0.20975E-02   -0.10911E-03    64   0.201E-01    0.175E-01
RMM:  14    -0.239971345519E+02   -0.50510E-02   -0.10714E-03    64   0.187E-01    0.420E-02
RMM:  15    -0.239997247965E+02   -0.25902E-02   -0.54375E-04    64   0.142E-01    0.108E-01
RMM:  16    -0.240006770574E+02   -0.95226E-03   -0.18394E-04    64   0.843E-02    0.221E-02
RMM:  17    -0.240018203485E+02   -0.11433E-02   -0.21379E-04    64   0.835E-02    0.941E-02
RMM:  18    -0.240018600993E+02   -0.39751E-04   -0.66253E-05    64   0.526E-02    0.772E-03
RMM:  19    -0.240020255743E+02   -0.16547E-03   -0.15968E-05    64   0.275E-02    0.180E-02
RMM:  20    -0.240020721258E+02   -0.46551E-04   -0.29368E-06    60   0.116E-02    0.351E-03
RMM:  21    -0.240020827007E+02   -0.10575E-04   -0.89713E-07    48   0.601E-03    0.295E-03
RMM:  22    -0.240020875297E+02   -0.48290E-05   -0.19154E-07    44   0.305E-03    0.696E-04
RMM:  23    -0.240020883575E+02   -0.82783E-06   -0.43980E-08    40   0.179E-03
    1 T=   110. E= -.23945188E+02 F= -.24002088E+02 E0= -.24014212E+02  EK= 0.56785E-01 SP= 0.00E+00 SK= 0.12E-03
       N       E                     dE             d eps       ncg     rms          rms(c)
DAV:   1    -0.240006260797E+02    0.14614E-02   -0.38168E+00    64   0.187E+01    0.891E-01
RMM:   2    -0.239886241965E+02    0.12002E-01   -0.15756E-01    64   0.286E+00    0.483E-01
RMM:   3    -0.240045250575E+02   -0.15901E-01   -0.31986E-02    64   0.124E+00    0.640E-01
RMM:   4    -0.239962809092E+02    0.82441E-02   -0.10385E-02    64   0.625E-01    0.461E-01
RMM:   5    -0.239918006942E+02    0.44802E-02   -0.47940E-03    64   0.428E-01    0.291E-01
RMM:   6    -0.239912109756E+02    0.58972E-03   -0.64092E-04    64   0.170E-01    0.253E-01
RMM:   7    -0.239903209984E+02    0.88998E-03   -0.62271E-04    64   0.156E-01    0.201E-01
RMM:   8    -0.239898752379E+02    0.44576E-03   -0.26484E-04    64   0.107E-01    0.164E-01
RMM:   9    -0.239892477110E+02    0.62753E-03   -0.63254E-04    64   0.160E-01    0.101E-01
RMM:  10    -0.239891005110E+02    0.14720E-03   -0.13766E-04    64   0.768E-02    0.793E-02
RMM:  11    -0.239889533183E+02    0.14719E-03   -0.22200E-04    64   0.947E-02    0.452E-02
RMM:  12    -0.239889321448E+02    0.21174E-04   -0.50279E-05    64   0.469E-02    0.321E-02
RMM:  13    -0.239889186832E+02    0.13462E-04   -0.58463E-05    64   0.494E-02    0.144E-02
RMM:  14    -0.239889198480E+02   -0.11648E-05   -0.12993E-05    64   0.241E-02    0.784E-03
RMM:  15    -0.239889261128E+02   -0.62648E-05   -0.66580E-06    64   0.168E-02    0.300E-03
RMM:  16    -0.239889276202E+02   -0.15074E-05   -0.41230E-07    48   0.544E-03    0.262E-03
RMM:  17    -0.239889288043E+02   -0.11841E-05   -0.35385E-07    48   0.458E-03    0.173E-03
RMM:  18    -0.239889290433E+02   -0.23907E-06   -0.16174E-07    48   0.332E-03
    2 T=   125. E= -.23922161E+02 F= -.23988929E+02 E0= -.23993236E+02  EK= 0.64782E-01 SP= 0.76E-03 SK= 0.12E-02
       N       E                     dE             d eps       ncg     rms          rms(c)
DAV:   1    -0.239208954421E+02    0.68033E-01   -0.34399E+00    64   0.181E+01    0.702E-01
RMM:   2    -0.239153698526E+02    0.55256E-02   -0.84509E-02    64   0.214E+00    0.304E-01
RMM:   3    -0.239205147724E+02   -0.51449E-02   -0.25606E-02    64   0.108E+00    0.432E-01
RMM:   4    -0.239167404272E+02    0.37743E-02   -0.18663E-02    64   0.847E-01    0.106E-01
RMM:   5    -0.239168821958E+02   -0.14177E-03   -0.14582E-03    64   0.264E-01    0.799E-02
RMM:   6    -0.239171130356E+02   -0.23084E-03   -0.55133E-04    64   0.139E-01    0.574E-02
RMM:   7    -0.239170706057E+02    0.42430E-04   -0.24480E-04    64   0.958E-02    0.203E-02
RMM:   8    -0.239172030429E+02   -0.13244E-03   -0.13302E-04    64   0.705E-02    0.105E-02
RMM:   9    -0.239172566396E+02   -0.53597E-04   -0.39607E-05    64   0.371E-02    0.865E-03
RMM:  10    -0.239172718491E+02   -0.15209E-04   -0.20929E-06    52   0.110E-02    0.831E-03
RMM:  11    -0.239172794678E+02   -0.76187E-05   -0.12154E-06    48   0.718E-03    0.648E-03
RMM:  12    -0.239172833792E+02   -0.39114E-05   -0.18756E-06    52   0.893E-03    0.345E-03
RMM:  13    -0.239172843791E+02   -0.99991E-06   -0.82864E-07    48   0.659E-03
    3 T=    45. E= -.23889350E+02 F= -.23917284E+02 E0= -.23921636E+02  EK= 0.23234E-01 SP= 0.25E-02 SK= 0.22E-02
       N       E                     dE             d eps       ncg     rms          rms(c)
DAV:   1    -0.239735026261E+02   -0.56219E-01   -0.11766E+00    64   0.105E+01    0.462E-01
RMM:   2    -0.239706551346E+02    0.28475E-02   -0.32280E-02    64   0.139E+00    0.311E-01
RMM:   3    -0.239759466683E+02   -0.52915E-02   -0.30423E-02    64   0.116E+00    0.377E-01
RMM:   4    -0.239709740314E+02    0.49726E-02   -0.66646E-03    64   0.502E-01    0.156E-01
RMM:   5    -0.239705023133E+02    0.47172E-03   -0.28619E-03    64   0.344E-01    0.341E-02
RMM:   6    -0.239706209026E+02   -0.11859E-03   -0.45058E-04    64   0.145E-01    0.247E-02
RMM:   7    -0.239708246621E+02   -0.20376E-03   -0.13506E-04    64   0.756E-02    0.271E-02
RMM:   8    -0.239708414738E+02   -0.16812E-04   -0.34500E-05    64   0.382E-02    0.141E-02
RMM:   9    -0.239708596895E+02   -0.18216E-04   -0.11874E-05    64   0.204E-02    0.138E-02
RMM:  10    -0.239708648373E+02   -0.51479E-05   -0.13903E-05    64   0.226E-02    0.547E-03
RMM:  11    -0.239708693251E+02   -0.44877E-05   -0.78868E-07    48   0.693E-03    0.566E-03
RMM:  12    -0.239708700335E+02   -0.70847E-06   -0.24392E-06    56   0.103E-02
    4 T=   125. E= -.23898269E+02 F= -.23970870E+02 E0= -.23974828E+02  EK= 0.64841E-01 SP= 0.41E-02 SK= 0.36E-02
       N       E                     dE             d eps       ncg     rms          rms(c)
DAV:   1    -0.239159083843E+02    0.54961E-01   -0.30644E-01    64   0.562E+00    0.313E-01
RMM:   2    -0.239173605679E+02   -0.14522E-02   -0.22404E-02    64   0.126E+00    0.309E-01
RMM:   3    -0.239213200811E+02   -0.39595E-02   -0.46965E-02    64   0.137E+00    0.414E-01
RMM:   4    -0.239176666241E+02    0.36535E-02   -0.52347E-03    64   0.489E-01    0.137E-01
RMM:   5    -0.239170770334E+02    0.58959E-03   -0.19294E-03    64   0.289E-01    0.335E-02
RMM:   6    -0.239171381592E+02   -0.61126E-04   -0.14687E-04    64   0.866E-02    0.391E-02
RMM:   7    -0.239171194225E+02    0.18737E-04   -0.61058E-05    64   0.532E-02    0.228E-02
RMM:   8    -0.239171135919E+02    0.58306E-05   -0.14016E-05    64   0.250E-02    0.157E-02
RMM:   9    -0.239171173071E+02   -0.37152E-05   -0.39986E-05    64   0.414E-02    0.267E-03
RMM:  10    -0.239171220926E+02   -0.47855E-05   -0.24164E-06    52   0.115E-02    0.752E-04
RMM:  11    -0.239171260842E+02   -0.39917E-05   -0.65856E-07    48   0.664E-03    0.762E-04
RMM:  12    -0.239171269590E+02   -0.87478E-06   -0.19390E-07    48   0.358E-03
    5 T=    97. E= -.23853744E+02 F= -.23917127E+02 E0= -.23921000E+02  EK= 0.49933E-01 SP= 0.67E-02 SK= 0.67E-02
       N       E                     dE             d eps       ncg     rms          rms(c)
DAV:   1    -0.239874559636E+02   -0.70330E-01   -0.14587E+00    64   0.123E+01    0.538E-01
RMM:   2    -0.239853990654E+02    0.20569E-02   -0.43280E-02    64   0.176E+00    0.247E-01
RMM:   3    -0.239852063576E+02    0.19271E-03   -0.43698E-03    64   0.500E-01    0.160E-01
RMM:   4    -0.239866870840E+02   -0.14807E-02   -0.30225E-03    64   0.370E-01    0.456E-02
RMM:   5    -0.239878733609E+02   -0.11863E-02   -0.27512E-04    64   0.119E-01    0.439E-02
RMM:   6    -0.239880689610E+02   -0.19560E-03   -0.17604E-04    64   0.822E-02    0.833E-03
RMM:   7    -0.239881328998E+02   -0.63939E-04   -0.80718E-05    64   0.553E-02    0.134E-02
RMM:   8    -0.239881503428E+02   -0.17443E-04   -0.22313E-05    64   0.272E-02    0.220E-03
RMM:   9    -0.239881796888E+02   -0.29346E-04   -0.54916E-06    60   0.143E-02    0.180E-03
RMM:  10    -0.239881946372E+02   -0.14948E-04   -0.15467E-06    48   0.695E-03    0.717E-04
RMM:  11    -0.239882019601E+02   -0.73228E-05   -0.56179E-07    48   0.442E-03    0.801E-04
RMM:  12    -0.239882055903E+02   -0.36303E-05   -0.24025E-07    44   0.286E-03    0.364E-04
RMM:  13    -0.239882064954E+02   -0.90506E-06   -0.14043E-07    48   0.252E-03
    6 T=   146. E= -.23891162E+02 F= -.23988206E+02 E0= -.23992220E+02  EK= 0.75406E-01 SP= 0.99E-02 SK= 0.12E-01
       N       E                     dE             d eps       ncg     rms          rms(c)
DAV:   1    -0.239809138924E+02    0.72917E-02   -0.10005E+00    64   0.986E+00    0.537E-01
RMM:   2    -0.239790307259E+02    0.18832E-02   -0.26125E-02    64   0.131E+00    0.290E-01
RMM:   3    -0.239785695250E+02    0.46120E-03   -0.19057E-03    64   0.335E-01    0.185E-01
RMM:   4    -0.239789290411E+02   -0.35952E-03   -0.11324E-02    64   0.610E-01    0.730E-02
RMM:   5    -0.239790925552E+02   -0.16351E-03   -0.21399E-04    64   0.118E-01    0.559E-02
RMM:   6    -0.239791330774E+02   -0.40522E-04   -0.10256E-03    64   0.185E-01    0.265E-02
RMM:   7    -0.239791460604E+02   -0.12983E-04   -0.38301E-05    64   0.397E-02    0.873E-03
RMM:   8    -0.239791819646E+02   -0.35904E-04   -0.28637E-05    64   0.329E-02    0.309E-03
RMM:   9    -0.239791913392E+02   -0.93746E-05   -0.14168E-06    48   0.953E-03    0.287E-03
RMM:  10    -0.239791993257E+02   -0.79865E-05   -0.12849E-06    48   0.656E-03    0.836E-04
RMM:  11    -0.239792015317E+02   -0.22060E-05   -0.40121E-07    48   0.457E-03    0.317E-04
RMM:  12    -0.239792024212E+02   -0.88941E-06   -0.10489E-07    44   0.251E-03
    7 T=   123. E= -.23882319E+02 F= -.23979202E+02 E0= -.23983571E+02  EK= 0.63398E-01 SP= 0.14E-01 SK= 0.19E-01
       N       E                     dE             d eps       ncg     rms          rms(c)
DAV:   1    -0.239382999725E+02    0.40902E-01   -0.92509E-01    64   0.964E+00    0.465E-01
RMM:   2    -0.239381541828E+02    0.14579E-03   -0.36519E-02    64   0.166E+00    0.194E-01
RMM:   3    -0.239380125320E+02    0.14165E-03   -0.22703E-03    64   0.384E-01    0.155E-01
RMM:   4    -0.239390049712E+02   -0.99244E-03   -0.24341E-03    64   0.293E-01    0.434E-02
RMM:   5    -0.239393274322E+02   -0.32246E-03   -0.88962E-04    64   0.180E-01    0.349E-02
RMM:   6    -0.239394241877E+02   -0.96756E-04   -0.31150E-04    64   0.102E-01    0.142E-02
RMM:   7    -0.239395254626E+02   -0.10127E-03   -0.19559E-05    64   0.304E-02    0.112E-02
RMM:   8    -0.239395602773E+02   -0.34815E-04   -0.69734E-05    64   0.467E-02    0.829E-03
RMM:   9    -0.239395758909E+02   -0.15614E-04   -0.38886E-06    60   0.122E-02    0.402E-03
RMM:  10    -0.239395856745E+02   -0.97836E-05   -0.36891E-06    60   0.114E-02    0.373E-04
RMM:  11    -0.239395889859E+02   -0.33114E-05   -0.27478E-07    48   0.359E-03    0.899E-04
RMM:  12    -0.239395913095E+02   -0.23236E-05   -0.60292E-07    48   0.486E-03    0.760E-04
RMM:  13    -0.239395920103E+02   -0.70082E-06   -0.80813E-08    48   0.240E-03
    8 T=    70. E= -.23859780E+02 F= -.23939592E+02 E0= -.23943463E+02  EK= 0.36332E-01 SP= 0.20E-01 SK= 0.24E-01
       N       E                     dE             d eps       ncg     rms          rms(c)
DAV:   1    -0.239675279321E+02   -0.27937E-01   -0.16171E+00    64   0.122E+01    0.589E-01
RMM:   2    -0.239594346535E+02    0.80933E-02   -0.10654E-01    64   0.200E+00    0.452E-01
RMM:   3    -0.239590333452E+02    0.40131E-03   -0.92578E-03    64   0.630E-01    0.195E-01
RMM:   4    -0.239603521541E+02   -0.13188E-02   -0.16402E-02    64   0.750E-01    0.109E-01
RMM:   5    -0.239601852237E+02    0.16693E-03   -0.11232E-03    64   0.216E-01    0.201E-02
RMM:   6    -0.239603910566E+02   -0.20583E-03   -0.19443E-04    64   0.922E-02    0.732E-03
RMM:   7    -0.239605058094E+02   -0.11475E-03   -0.14873E-05    64   0.277E-02    0.397E-03
RMM:   8    -0.239605473933E+02   -0.41584E-04   -0.10419E-05    64   0.193E-02    0.855E-03
RMM:   9    -0.239605550118E+02   -0.76185E-05   -0.20438E-05    64   0.263E-02    0.392E-03
RMM:  10    -0.239605596232E+02   -0.46114E-05   -0.67632E-07    48   0.594E-03    0.189E-03
RMM:  11    -0.239605625590E+02   -0.29359E-05   -0.21296E-06    50   0.910E-03    0.102E-03
RMM:  12    -0.239605640246E+02   -0.14655E-05   -0.22725E-07    48   0.398E-03    0.833E-04
RMM:  13    -0.239605643971E+02   -0.37257E-06   -0.40168E-09    33   0.158E-03
    9 T=    94. E= -.23858827E+02 F= -.23960564E+02 E0= -.23964430E+02  EK= 0.48730E-01 SP= 0.25E-01 SK= 0.28E-01
       N       E                     dE             d eps       ncg     rms          rms(c)
DAV:   1    -0.239895443381E+02   -0.28980E-01   -0.23082E+00    64   0.149E+01    0.657E-01
RMM:   2    -0.240096348476E+02   -0.20091E-01   -0.18002E-01    64   0.309E+00    0.101E+00
RMM:   3    -0.239877184290E+02    0.21916E-01   -0.30468E-01    64   0.321E+00    0.380E-01
RMM:   4    -0.239875865286E+02    0.13190E-03   -0.26852E-02    64   0.985E-01    0.118E-01
RMM:   5    -0.239895854832E+02   -0.19990E-02   -0.41931E-03    64   0.432E-01    0.205E-01
RMM:   6    -0.239888823032E+02    0.70318E-03   -0.51004E-03    64   0.410E-01    0.306E-02
RMM:   7    -0.239893134514E+02   -0.43115E-03   -0.18395E-03    64   0.267E-01    0.502E-02
RMM:   8    -0.239894531273E+02   -0.13968E-03   -0.60026E-04    64   0.146E-01    0.176E-02
RMM:   9    -0.239894944057E+02   -0.41278E-04   -0.54292E-05    64   0.463E-02    0.300E-03
RMM:  10    -0.239895195209E+02   -0.25115E-04   -0.35251E-06    60   0.119E-02    0.292E-03
RMM:  11    -0.239895324254E+02   -0.12905E-04   -0.16643E-06    48   0.807E-03    0.474E-04
RMM:  12    -0.239895375028E+02   -0.50773E-05   -0.66558E-07    48   0.613E-03    0.114E-03
RMM:  13    -0.239895388807E+02   -0.13780E-05   -0.22385E-07    48   0.326E-03    0.147E-04
RMM:  14    -0.239895393889E+02   -0.50812E-06    0.00000E+00    32   0.130E-03
   10 T=   142. E= -.23847815E+02 F= -.23989539E+02 E0= -.23993658E+02  EK= 0.73252E-01 SP= 0.32E-01 SK= 0.37E-01
