 vasp.5.4.4.18Apr17-6-g9f103f2a35 (build Jul 12 2018 13:43:46) complex           
 executed on             LinuxGNU date 2019.06.22  02:17:35
 running on    1 total cores
 distrk:  each k-point on    1 cores,    1 groups
 distr:  one band on NCORES_PER_BAND=   1 cores,    1 groups


--------------------------------------------------------------------------------------------------------


 INCAR:
 POTCAR:    PAW_PBE H 15Jun2001                   
 POTCAR:    PAW_PBE C 08Apr2002                   
 POTCAR:    PAW_PBE H 15Jun2001                   
   VRHFIN =H: ultrasoft test                                                    
   LEXCH  = PE                                                                  
   EATOM  =    12.4884 eV,    0.9179 Ry                                         
                                                                                
   TITEL  = PAW_PBE H 15Jun2001                                                 
   LULTRA =        F    use ultrasoft PP ?                                      
   IUNSCR =        0    unscreen: 0-lin 1-nonlin 2-no                           
   RPACOR =    0.000    partial core radius                                     
   POMASS =    1.000; ZVAL   =    1.000    mass and valenz                      
   RCORE  =    1.100    outmost cutoff radius                                   
   RWIGS  =    0.700; RWIGS  =    0.370    wigner-seitz radius (au A)           
   ENMAX  =  250.000; ENMIN  =  200.000 eV                                      
   RCLOC  =    0.701    cutoff for local pot                                    
   LCOR   =        T    correct aug charges                                     
   LPAW   =        T    paw PP                                                  
   EAUG   =  400.000                                                            
   RMAX   =    1.123    core radius for proj-oper                               
   RAUG   =    1.200    factor for augmentation sphere                          
   RDEP   =    1.112    radius for radial grids                                 
   RDEPT  =    0.926    core radius for aug-charge                              
                                                                                
   Atomic configuration                                                         
    2 entries                                                                   
     n  l   j            E        occ.                                          
     1  0  0.50        -6.4927   1.0000                                         
     2  1  0.50        -3.4015   0.0000                                         
   Description                                                                  
     l       E           TYP  RCUT    TYP  RCUT                                 
     0     -6.4927494     23  1.100                                             
     0      6.8029130     23  1.100                                             
     1     -4.0817478     23  1.100                                             
  local pseudopotential read in
  atomic valenz-charges read in
  non local Contribution for L=           0  read in
    real space projection operators read in
  non local Contribution for L=           0  read in
    real space projection operators read in
  non local Contribution for L=           1  read in
    real space projection operators read in
    PAW grid and wavefunctions read in

   number of l-projection  operators is LMAX  =           3
   number of lm-projection operators is LMMAX =           5

 POTCAR:    PAW_PBE C 08Apr2002                   
   VRHFIN =C: s2p2                                                              
   LEXCH  = PE                                                                  
   EATOM  =   147.1560 eV,   10.8157 Ry                                         
                                                                                
   TITEL  = PAW_PBE C 08Apr2002                                                 
   LULTRA =        F    use ultrasoft PP ?                                      
   IUNSCR =        1    unscreen: 0-lin 1-nonlin 2-no                           
   RPACOR =    1.200    partial core radius                                     
   POMASS =   12.011; ZVAL   =    4.000    mass and valenz                      
   RCORE  =    1.500    outmost cutoff radius                                   
   RWIGS  =    1.630; RWIGS  =    0.863    wigner-seitz radius (au A)           
   ENMAX  =  400.000; ENMIN  =  300.000 eV                                      
   ICORE  =        2    local potential                                         
   LCOR   =        T    correct aug charges                                     
   LPAW   =        T    paw PP                                                  
   EAUG   =  644.873                                                            
   DEXC   =    0.000                                                            
   RMAX   =    1.529    core radius for proj-oper                               
   RAUG   =    1.300    factor for augmentation sphere                          
   RDEP   =    1.501    radius for radial grids                                 
   RDEPT  =    1.300    core radius for aug-charge                              
                                                                                
   Atomic configuration                                                         
    4 entries                                                                   
     n  l   j            E        occ.                                          
     1  0  0.50      -273.3789   2.0000                                         
     2  0  0.50       -13.7508   2.0000                                         
     2  1  0.50        -5.2854   2.0000                                         
     3  2  1.50        -5.4423   0.0000                                         
   Description                                                                  
     l       E           TYP  RCUT    TYP  RCUT                                 
     0    -13.7508458     23  1.200                                             
     0     -8.2022199     23  1.200                                             
     1     -5.2854383     23  1.500                                             
     1     34.0145650     23  1.500                                             
     2     -5.4423304      7  1.500                                             
  local pseudopotential read in
  partial core-charges read in
  partial kinetic energy density read in
  atomic valenz-charges read in
  non local Contribution for L=           0  read in
    real space projection operators read in
  non local Contribution for L=           0  read in
    real space projection operators read in
  non local Contribution for L=           1  read in
    real space projection operators read in
  non local Contribution for L=           1  read in
    real space projection operators read in
    PAW grid and wavefunctions read in

   number of l-projection  operators is LMAX  =           4
   number of lm-projection operators is LMMAX =           8


 ----------------------------------------------------------------------------- 
|                                                                             |
|  ADVICE TO THIS USER RUNNING 'VASP/VAMP'   (HEAR YOUR MASTER'S VOICE ...):  |
|                                                                             |
|      You have a (more or less) 'small supercell' and for smaller cells      |
|      it is recommended  to use the reciprocal-space projection scheme!      |
|      The real space optimization is not  efficient for small cells and it   |
|      is also less accurate ...                                              |
|      Therefore set LREAL=.FALSE. in the  INCAR file                         |
|                                                                             |
 ----------------------------------------------------------------------------- 


 ----------------------------------------------------------------------------- 
|                                                                             |
|           W    W    AA    RRRRR   N    N  II  N    N   GGGG   !!!           |
|           W    W   A  A   R    R  NN   N  II  NN   N  G    G  !!!           |
|           W    W  A    A  R    R  N N  N  II  N N  N  G       !!!           |
|           W WW W  AAAAAA  RRRRR   N  N N  II  N  N N  G  GGG   !            |
|           WW  WW  A    A  R   R   N   NN  II  N   NN  G    G                |
|           W    W  A    A  R    R  N    N  II  N    N   GGGG   !!!           |
|                                                                             |
|     The real-space-projection scheme for the treatment of the nonlocal      |
|     pseudopotentials has been switched on -- but on file POTCAR I have      |
|     not found any entries signalling me that you have ever performed a      |
|     real-space optimization of all nonlocal projectors! BE WARNED that      |
|     a calculation using the real-space-projection scheme together with      |
|     nonlocal projectors which were not real-space-optimized (according      |
|     to the plane-wave-cutoff used in this calculation) might give more      |
|     or less inaccurate results                                              |
|     I hope you know what you are doing                                      |
|                                                                             |
 ----------------------------------------------------------------------------- 

  PAW_PBE H 15Jun2001                   :
 energy of atom  1       EATOM=  -12.4884
 kinetic energy error for atom=    0.0098 (will be added to EATOM!!)
  PAW_PBE C 08Apr2002                   :
 energy of atom  2       EATOM= -147.1560
 kinetic energy error for atom=    0.0288 (will be added to EATOM!!)


 POSCAR:  H  C                                   
  positions in cartesian coordinates
  No initial velocities read in
 exchange correlation table for  LEXCH =        8
   RHO(1)=    0.500       N(1)  =     2000
   RHO(2)=  100.500       N(2)  =     4000



--------------------------------------------------------------------------------------------------------


 ion  position               nearest neighbor table
   1  0.538  0.407  0.360-   5 1.12
   2  0.395  0.480  0.438-   5 1.07
   3  0.552  0.566  0.443-   5 1.08
   4  0.528  0.416  0.539-   5 1.09
   5  0.503  0.467  0.445-   2 1.07   3 1.08   4 1.09   1 1.12


IMPORTANT INFORMATION: All symmetrisations will be switched off!
NOSYMM: (Re-)initialisation of all symmetry stuff for point group C_1.




Automatic generation of k-mesh.
 generate k-points for:    2    2    2
Space group operators:
 irot       det(A)        alpha          n_x          n_y          n_z        tau_x        tau_y        tau_z
    1     1.000000     0.000000     1.000000     0.000000     0.000000     0.000000     0.000000     0.000000
 
 Subroutine IBZKPT returns following result:
 ===========================================
 
 Found      4 irreducible k-points:
 
 Following reciprocal coordinates:
            Coordinates               Weight
  0.250000  0.250000  0.250000      2.000000
 -0.250000  0.250000  0.250000      2.000000
  0.250000 -0.250000  0.250000      2.000000
 -0.250000 -0.250000  0.250000      2.000000
 
 Following cartesian coordinates:
            Coordinates               Weight
  0.025679  0.025411  0.024838      2.000000
 -0.025679  0.024561  0.023599      2.000000
  0.025679 -0.024561  0.026258      2.000000
 -0.025679 -0.025411  0.025020      2.000000
 


--------------------------------------------------------------------------------------------------------




 Dimension of arrays:
   k-points           NKPTS =      4   k-points in BZ     NKDIM =      4   number of bands    NBANDS=      8
   number of dos      NEDOS =    301   number of ions     NIONS =      5
   non local maximal  LDIM  =      4   non local SUM 2l+1 LMDIM =      8
   total plane-waves  NPLWV = 313600
   max r-space proj   IRMAX =    762   max aug-charges    IRDMAX=   3987
   dimension x,y,z NGX =    64 NGY =   70 NGZ =   70
   dimension x,y,z NGXF=   128 NGYF=  140 NGZF=  140
   support grid    NGXF=   128 NGYF=  140 NGZF=  140
   ions per type =               4   1
   NGX,Y,Z   is equivalent  to a cutoff of  10.93, 11.63, 11.60 a.u.
   NGXF,Y,Z  is equivalent  to a cutoff of  21.86, 23.26, 23.19 a.u.

 SYSTEM =  unknown system                          
 POSCAR =   H  C                                   

 Startparameter for this run:
   NWRITE =      2    write-flag & timer
   PREC   = a         normal or accurate (medium, high low for compatibility)
   ISTART =      0    job   : 0-new  1-cont  2-samecut
   ICHARG =      2    charge: 1-file 2-atom 10-const
   ISPIN  =      1    spin polarized calculation?
   LNONCOLLINEAR =      F non collinear calculations
   LSORBIT =      F    spin-orbit coupling
   INIWAV =      1    electr: 0-lowe 1-rand  2-diag
   LASPH  =      F    aspherical Exc in radial PAW
   METAGGA=      F    non-selfconsistent MetaGGA calc.

 Electronic Relaxation 1
   ENCUT  =  400.0 eV  29.40 Ry    5.42 a.u.  15.88 16.32 16.37*2*pi/ulx,y,z
   ENINI  =  400.0     initial cutoff
   ENAUG  =  644.9 eV  augmentation charge cutoff
   NELM   =     60;   NELMIN=  2; NELMDL= -5     # of ELM steps 
   EDIFF  = 0.1E-05   stopping-criterion for ELM
   LREAL  =      T    real-space projection
   NLSPLINE    = F    spline interpolate recip. space projectors
   LCOMPAT=      F    compatible to vasp.4.4
   GGA_COMPAT  = T    GGA compatible to vasp.4.4-vasp.4.6
   LMAXPAW     = -100 max onsite density
   LMAXMIX     =    2 max onsite mixed and CHGCAR
   VOSKOWN=      0    Vosko Wilk Nusair interpolation
   ROPT   =    0.00000   0.00000
 Ionic relaxation
   EDIFFG = 0.1E-04   stopping-criterion for IOM
   NSW    =     10    number of steps for IOM
   NBLOCK =      1;   KBLOCK =      1    inner block; outer block 
   IBRION =      0    ionic relax: 0-MD 1-quasi-New 2-CG
   NFREE  =      0    steps in history (QN), initial steepest desc. (CG)
   ISIF   =      2    stress and relaxation
   IWAVPR =     12    prediction:  0-non 1-charg 2-wave 3-comb
   ISYM   =      0    0-nonsym 1-usesym 2-fastsym
   LCORR  =      T    Harris-Foulkes like correction to forces

   POTIM  = 2.0000    time-step for ionic-motion
   TEIN   =   50.0    initial temperature
   TEBEG  =   50.0;   TEEND  =  50.0 temperature during run
   SMASS  =   0.00    Nose mass-parameter (am)
   estimated Nose-frequenzy (Omega)   =  0.79E+14 period in steps = 40.00 mass=   0.123E-29a.u.
   SCALEE = 1.0000    scale energy and forces
   NPACO  =    256;   APACO  = 16.0  distance and # of slots for P.C.
   PSTRESS=    0.0 pullay stress

  Mass of Ions in am
   POMASS =   1.00 12.01
  Ionic Valenz
   ZVAL   =   1.00  4.00
  Atomic Wigner-Seitz radii
   RWIGS  =  -1.00 -1.00
  virtual crystal weights 
   VCA    =   1.00  1.00
   NELECT =       8.0000    total number of electrons
   NUPDOWN=      -1.0000    fix difference up-down

 DOS related values:
   EMIN   =  10.00;   EMAX   =-10.00  energy-range for DOS
   EFERMI =   0.00
   ISMEAR =     1;   SIGMA  =   0.20  broadening in eV -4-tet -1-fermi 0-gaus

 Electronic relaxation 2 (details)
   IALGO  =     68    algorithm
   LDIAG  =      T    sub-space diagonalisation (order eigenvalues)
   LSUBROT=      F    optimize rotation matrix (better conditioning)
   TURBO    =      0    0=normal 1=particle mesh
   IRESTART =      0    0=no restart 2=restart with 2 vectors
   NREBOOT  =      0    no. of reboots
   NMIN     =      0    reboot dimension
   EREF     =   0.00    reference energy to select bands
   IMIX   =      4    mixing-type and parameters
     AMIX     =   0.40;   BMIX     =  1.00
     AMIX_MAG =   1.60;   BMIX_MAG =  1.00
     AMIN     =   0.10
     WC   =   100.;   INIMIX=   1;  MIXPRE=   1;  MAXMIX=  50

 Intra band minimization:
   WEIMIN = 0.0010     energy-eigenvalue tresh-hold
   EBREAK =  0.31E-07  absolut break condition
   DEPER  =   0.30     relativ break condition  

   TIME   =   0.40     timestep for ELM

  volume/ion in A,a.u.               =     195.38      1318.48
  Fermi-wavevector in a.u.,A,eV,Ry     =   0.329981  0.623574  1.481507  0.108888
  Thomas-Fermi vector in A             =   1.224894

 Write flags
   LWAVE        =      F    write WAVECAR
   LDOWNSAMPLE  =      F    k-point downsampling of WAVECAR
   LCHARG       =      F    write CHGCAR
   LVTOT        =      F    write LOCPOT, total local potential
   LVHAR        =      F    write LOCPOT, Hartree potential only
   LELF         =      F    write electronic localiz. function (ELF)
   LORBIT       =      0    0 simple, 1 ext, 2 COOP (PROOUT), +10 PAW based schemes


 Dipole corrections
   LMONO  =      F    monopole corrections only (constant potential shift)
   LDIPOL =      F    correct potential (dipole corrections)
   IDIPOL =      0    1-x, 2-y, 3-z, 4-all directions 
   EPSILON=  1.0000000 bulk dielectric constant

 Exchange correlation treatment:
   GGA     =    --    GGA type
   LEXCH   =     8    internal setting for exchange type
   VOSKOWN=      0    Vosko Wilk Nusair interpolation
   LHFCALC =     F    Hartree Fock is set to
   LHFONE  =     F    Hartree Fock one center treatment
   AEXX    =    0.0000 exact exchange contribution

 Linear response parameters
   LEPSILON=     F    determine dielectric tensor
   LRPA    =     F    only Hartree local field effects (RPA)
   LNABLA  =     F    use nabla operator in PAW spheres
   LVEL    =     F    velocity operator in full k-point grid
   LINTERFAST=   F  fast interpolation
   KINTER  =     0    interpolate to denser k-point grid
   CSHIFT  =0.1000    complex shift for real part using Kramers Kronig
   OMEGAMAX=  -1.0    maximum frequency
   DEG_THRESHOLD= 0.2000000E-02 threshold for treating states as degnerate
   RTIME   =   -0.100 relaxation time in fs
  (WPLASMAI=    0.000 imaginary part of plasma frequency in eV, 0.658/RTIME)
   DFIELD  = 0.0000000 0.0000000 0.0000000 field for delta impulse in time

 Orbital magnetization related:
   ORBITALMAG=     F  switch on orbital magnetization
   LCHIMAG   =     F  perturbation theory with respect to B field
   DQ        =  0.001000  dq finite difference perturbation B field
   LLRAUG    =     F  two centre corrections for induced B field



--------------------------------------------------------------------------------------------------------


 molecular dynamics for ions
   using nose mass (canonical ensemble)
 charge density and potential will be updated during run
 non-spin polarized calculation
 RMM-DIIS sequential band-by-band and
  variant of blocked Davidson during initial phase
 perform sub-space diagonalisation
    before iterative eigenvector-optimisation
 modified Broyden-mixing scheme, WC =      100.0
 initial mixing is a Kerker type mixing with AMIX =  0.4000 and BMIX =      1.0000
 Hartree-type preconditioning will be used
 using additional bands            4
 real space projection scheme for non local part
 use partial core corrections
 calculate Harris-corrections to forces   (improved forces if not selfconsistent)
 use gradient corrections 
 use of overlap-Matrix (Vanderbilt PP)
 Methfessel and Paxton  Order N= 1 SIGMA  =   0.20


--------------------------------------------------------------------------------------------------------


  energy-cutoff  :      400.00
  volume of cell :      976.89
      direct lattice vectors                 reciprocal lattice vectors
     9.735728665  0.000000000  0.000000000     0.102714448  0.001699688  0.002477457
    -0.165567447 10.005462347  0.000000000     0.000000000  0.099945406 -0.002840980
    -0.246605657  0.285066373 10.028607405     0.000000000 -0.000000000  0.099714742

  length of vectors
     9.735728665 10.006832134 10.035688500     0.102758380  0.099985776  0.099714742



 k-points in units of 2pi/SCALE and weight: read from INCAR                         
   0.02567861  0.02541127  0.02483780       0.250
  -0.02567861  0.02456143  0.02359908       0.250
   0.02567861 -0.02456143  0.02625829       0.250
  -0.02567861 -0.02541127  0.02501957       0.250

 k-points in reciprocal lattice and weights: read from INCAR                         
   0.25000000  0.25000000  0.25000000       0.250
  -0.25000000  0.25000000  0.25000000       0.250
   0.25000000 -0.25000000  0.25000000       0.250
  -0.25000000 -0.25000000  0.25000000       0.250

 position of ions in fractional coordinates (direct lattice) 
   0.53813752  0.40660902  0.36037898
   0.39496579  0.48035953  0.43834041
   0.55186776  0.56561646  0.44252365
   0.52820858  0.41639857  0.53920712
   0.50345948  0.46732647  0.44467401

 position of ions in cartesian coordinates  (Angst):
   5.08296819  4.17104318  3.61409928
   3.65765062  4.93117526  4.39594389
   5.17005827  5.78540283  4.43789600
   4.94058188  4.31997000  5.40749649
   4.71451168  4.80257904  4.45946104



--------------------------------------------------------------------------------------------------------


 k-point  1 :   0.2500 0.2500 0.2500  plane waves:   17710
 k-point  2 :  -0.2500 0.2500 0.2500  plane waves:   17762
 k-point  3 :   0.2500-0.2500 0.2500  plane waves:   17766
 k-point  4 :  -0.2500-0.2500 0.2500  plane waves:   17754

 maximum and minimum number of plane-waves per node :     17766    17710

 maximum number of plane-waves:     17766
 maximum index in each direction: 
   IXMAX=   16   IYMAX=   16   IZMAX=   16
   IXMIN=  -16   IYMIN=  -16   IZMIN=  -16


 serial   3D FFT for wavefunctions
 parallel 3D FFT for charge:
    minimum data exchange during FFTs selected (reduces bandwidth)


 total amount of memory used by VASP MPI-rank0   280408. kBytes
=======================================================================

   base      :      30000. kBytes
   nonlr-proj:        157. kBytes
   fftplans  :      86584. kBytes
   grid      :     154542. kBytes
   one-center:         15. kBytes
   wavefun   :       9110. kBytes

     INWAV:  cpu time    0.0000: real time    0.0000
 Broyden mixing: mesh for mixing (old mesh)
   NGX = 31   NGY = 33   NGZ = 33
  (NGX  =128   NGY  =140   NGZ  =140)
  gives a total of  33759 points

 initial charge density was supplied:
 charge density of overlapping atoms calculated
 number of electron       8.0000000 magnetization 
 keeping initial charge density in first step


--------------------------------------------------------------------------------------------------------


 Maximum index for non-local projection operator          693
 Maximum index for augmentation-charges         3677 (set IRDMAX)


--------------------------------------------------------------------------------------------------------


 First call to EWALD:  gamma=   0.179
 Maximum number of real-space cells 3x 3x 3
 Maximum number of reciprocal cells 3x 3x 3

    FEWALD:  cpu time    0.0007: real time    0.0007


--------------------------------------- Iteration      1(   1)  ---------------------------------------


    POTLOK:  cpu time    1.7539: real time    1.7583
    SETDIJ:  cpu time    0.0066: real time    0.0066
     EDDAV:  cpu time    2.8145: real time    2.8212
       DOS:  cpu time    0.0003: real time    0.0003
    --------------------------------------------
      LOOP:  cpu time    4.5753: real time    4.5864

 eigenvalue-minimisations  :    88
 total energy-change (2. order) : 0.2213790E+02  (-0.1883103E+03)
 number of electron       8.0000000 magnetization 
 augmentation part        8.0000000 magnetization 

 Free energy of the ion-electron system (eV)
  ---------------------------------------------------
  alpha Z        PSCENC =         0.24798131
  Ewald energy   TEWEN  =       129.70197277
  -Hartree energ DENC   =      -244.02730322
  -exchange      EXHF   =         0.00000000
  -V(xc)+E(xc)   XCENC  =        22.05584919
  PAW double counting   =       117.05815612     -117.66307307
  entropy T*S    EENTRO =        -0.01923820
  eigenvalues    EBANDS =       -82.25820371
  atomic energy  EATOM  =       197.04175453
  Solvation  Ediel_sol  =         0.00000000
  ---------------------------------------------------
  free energy    TOTEN  =        22.13789573 eV

  energy without entropy =       22.15713392  energy(sigma->0) =       22.14430846


--------------------------------------------------------------------------------------------------------




--------------------------------------- Iteration      1(   2)  ---------------------------------------


     EDDAV:  cpu time    2.3842: real time    2.3899
       DOS:  cpu time    0.0002: real time    0.0002
    --------------------------------------------
      LOOP:  cpu time    2.3844: real time    2.3901

 eigenvalue-minimisations  :    72
 total energy-change (2. order) :-0.4165901E+02  (-0.3787173E+02)
 number of electron       8.0000000 magnetization 
 augmentation part        8.0000000 magnetization 

 Free energy of the ion-electron system (eV)
  ---------------------------------------------------
  alpha Z        PSCENC =         0.24798131
  Ewald energy   TEWEN  =       129.70197277
  -Hartree energ DENC   =      -244.02730322
  -exchange      EXHF   =         0.00000000
  -V(xc)+E(xc)   XCENC  =        22.05584919
  PAW double counting   =       117.05815612     -117.66307307
  entropy T*S    EENTRO =         0.00289895
  eigenvalues    EBANDS =      -123.93935028
  atomic energy  EATOM  =       197.04175453
  Solvation  Ediel_sol  =         0.00000000
  ---------------------------------------------------
  free energy    TOTEN  =       -19.52111369 eV

  energy without entropy =      -19.52401265  energy(sigma->0) =      -19.52208001


--------------------------------------------------------------------------------------------------------




--------------------------------------- Iteration      1(   3)  ---------------------------------------


     EDDAV:  cpu time    2.1686: real time    2.1737
       DOS:  cpu time    0.0002: real time    0.0002
    --------------------------------------------
      LOOP:  cpu time    2.1688: real time    2.1739

 eigenvalue-minimisations  :    64
 total energy-change (2. order) :-0.7695764E+01  (-0.7696598E+01)
 number of electron       8.0000000 magnetization 
 augmentation part        8.0000000 magnetization 

 Free energy of the ion-electron system (eV)
  ---------------------------------------------------
  alpha Z        PSCENC =         0.24798131
  Ewald energy   TEWEN  =       129.70197277
  -Hartree energ DENC   =      -244.02730322
  -exchange      EXHF   =         0.00000000
  -V(xc)+E(xc)   XCENC  =        22.05584919
  PAW double counting   =       117.05815612     -117.66307307
  entropy T*S    EENTRO =         0.00800465
  eigenvalues    EBANDS =      -131.64021996
  atomic energy  EATOM  =       197.04175453
  Solvation  Ediel_sol  =         0.00000000
  ---------------------------------------------------
  free energy    TOTEN  =       -27.21687767 eV

  energy without entropy =      -27.22488232  energy(sigma->0) =      -27.21954589


--------------------------------------------------------------------------------------------------------




--------------------------------------- Iteration      1(   4)  ---------------------------------------


     EDDAV:  cpu time    3.4484: real time    3.4565
       DOS:  cpu time    0.0002: real time    0.0002
    --------------------------------------------
      LOOP:  cpu time    3.4486: real time    3.4567

 eigenvalue-minimisations  :   112
 total energy-change (2. order) :-0.4538409E+00  (-0.4633657E+00)
 number of electron       8.0000000 magnetization 
 augmentation part        8.0000000 magnetization 

 Free energy of the ion-electron system (eV)
  ---------------------------------------------------
  alpha Z        PSCENC =         0.24798131
  Ewald energy   TEWEN  =       129.70197277
  -Hartree energ DENC   =      -244.02730322
  -exchange      EXHF   =         0.00000000
  -V(xc)+E(xc)   XCENC  =        22.05584919
  PAW double counting   =       117.05815612     -117.66307307
  entropy T*S    EENTRO =         0.03055314
  eigenvalues    EBANDS =      -132.11660930
  atomic energy  EATOM  =       197.04175453
  Solvation  Ediel_sol  =         0.00000000
  ---------------------------------------------------
  free energy    TOTEN  =       -27.67071853 eV

  energy without entropy =      -27.70127167  energy(sigma->0) =      -27.68090291


--------------------------------------------------------------------------------------------------------




--------------------------------------- Iteration      1(   5)  ---------------------------------------


     EDDAV:  cpu time    3.1856: real time    3.1931
       DOS:  cpu time    0.0002: real time    0.0002
    CHARGE:  cpu time    0.2153: real time    0.2158
    MIXING:  cpu time    0.0387: real time    0.0387
    --------------------------------------------
      LOOP:  cpu time    3.4398: real time    3.4479

 eigenvalue-minimisations  :   104
 total energy-change (2. order) :-0.9901084E-02  (-0.9901727E-02)
 number of electron       8.0000001 magnetization 
 augmentation part        0.2291596 magnetization 

 Broyden mixing:
  rms(total) = 0.89107E+00    rms(broyden)= 0.89081E+00
  rms(prec ) = 0.12662E+01
  weight for this iteration     100.00

 Free energy of the ion-electron system (eV)
  ---------------------------------------------------
  alpha Z        PSCENC =         0.24798131
  Ewald energy   TEWEN  =       129.70197277
  -Hartree energ DENC   =      -244.02730322
  -exchange      EXHF   =         0.00000000
  -V(xc)+E(xc)   XCENC  =        22.05584919
  PAW double counting   =       117.05815612     -117.66307307
  entropy T*S    EENTRO =         0.03044655
  eigenvalues    EBANDS =      -132.12640380
  atomic energy  EATOM  =       197.04175453
  Solvation  Ediel_sol  =         0.00000000
  ---------------------------------------------------
  free energy    TOTEN  =       -27.68061961 eV

  energy without entropy =      -27.71106616  energy(sigma->0) =      -27.69076846


--------------------------------------------------------------------------------------------------------




--------------------------------------- Iteration      1(   6)  ---------------------------------------


    POTLOK:  cpu time    1.7479: real time    1.7521
    SETDIJ:  cpu time    0.0065: real time    0.0066
    EDDIAG:  cpu time    0.4716: real time    0.4727
  RMM-DIIS:  cpu time    1.6234: real time    1.6272
    ORTHCH:  cpu time    0.0116: real time    0.0116
       DOS:  cpu time    0.0002: real time    0.0002
    CHARGE:  cpu time    0.2032: real time    0.2037
    MIXING:  cpu time    0.0404: real time    0.0405
    --------------------------------------------
      LOOP:  cpu time    4.1048: real time    4.1145

 eigenvalue-minimisations  :    64
 total energy-change (2. order) : 0.3020839E+01  (-0.5652978E+00)
 number of electron       8.0000001 magnetization 
 augmentation part        0.2019313 magnetization 

 Broyden mixing:
  rms(total) = 0.43838E+00    rms(broyden)= 0.43829E+00
  rms(prec ) = 0.57076E+00
  weight for this iteration     100.00

 eigenvalues of (default mixing * dielectric matrix)
  average eigenvalue GAMMA=   1.3071
  1.3071

 Free energy of the ion-electron system (eV)
  ---------------------------------------------------
  alpha Z        PSCENC =         0.24798131
  Ewald energy   TEWEN  =       129.70197277
  -Hartree energ DENC   =      -264.13797526
  -exchange      EXHF   =         0.00000000
  -V(xc)+E(xc)   XCENC  =        23.27678193
  PAW double counting   =       242.58358134     -243.36915816
  entropy T*S    EENTRO =         0.03751988
  eigenvalues    EBANDS =      -110.04223927
  atomic energy  EATOM  =       197.04175453
  Solvation  Ediel_sol  =         0.00000000
  ---------------------------------------------------
  free energy    TOTEN  =       -24.65978093 eV

  energy without entropy =      -24.69730081  energy(sigma->0) =      -24.67228755


--------------------------------------------------------------------------------------------------------




--------------------------------------- Iteration      1(   7)  ---------------------------------------


    POTLOK:  cpu time    1.7589: real time    1.7630
    SETDIJ:  cpu time    0.0065: real time    0.0065
    EDDIAG:  cpu time    0.4834: real time    0.4846
  RMM-DIIS:  cpu time    1.5910: real time    1.5948
    ORTHCH:  cpu time    0.0112: real time    0.0113
       DOS:  cpu time    0.0002: real time    0.0002
    CHARGE:  cpu time    0.1901: real time    0.1905
    MIXING:  cpu time    0.0390: real time    0.0391
    --------------------------------------------
      LOOP:  cpu time    4.0803: real time    4.0899

 eigenvalue-minimisations  :    64
 total energy-change (2. order) : 0.5107963E+00  (-0.1312385E+00)
 number of electron       8.0000001 magnetization 
 augmentation part        0.1909593 magnetization 

 Broyden mixing:
  rms(total) = 0.23449E+00    rms(broyden)= 0.23441E+00
  rms(prec ) = 0.28400E+00
  weight for this iteration     100.00

 eigenvalues of (default mixing * dielectric matrix)
  average eigenvalue GAMMA=   1.7740
  1.4962  2.0519

 Free energy of the ion-electron system (eV)
  ---------------------------------------------------
  alpha Z        PSCENC =         0.24798131
  Ewald energy   TEWEN  =       129.70197277
  -Hartree energ DENC   =      -276.12596722
  -exchange      EXHF   =         0.00000000
  -V(xc)+E(xc)   XCENC  =        24.15381470
  PAW double counting   =       375.75822329     -376.58658542
  entropy T*S    EENTRO =         0.03693997
  eigenvalues    EBANDS =       -98.37711854
  atomic energy  EATOM  =       197.04175453
  Solvation  Ediel_sol  =         0.00000000
  ---------------------------------------------------
  free energy    TOTEN  =       -24.14898462 eV

  energy without entropy =      -24.18592459  energy(sigma->0) =      -24.16129794


--------------------------------------------------------------------------------------------------------




--------------------------------------- Iteration      1(   8)  ---------------------------------------


    POTLOK:  cpu time    1.7608: real time    1.7650
    SETDIJ:  cpu time    0.0066: real time    0.0066
    EDDIAG:  cpu time    0.4913: real time    0.4924
  RMM-DIIS:  cpu time    1.5413: real time    1.5450
    ORTHCH:  cpu time    0.0110: real time    0.0110
       DOS:  cpu time    0.0002: real time    0.0002
    CHARGE:  cpu time    0.2017: real time    0.2022
    MIXING:  cpu time    0.0410: real time    0.0411
    --------------------------------------------
      LOOP:  cpu time    4.0540: real time    4.0636

 eigenvalue-minimisations  :    64
 total energy-change (2. order) : 0.1334738E+00  (-0.1571198E-01)
 number of electron       8.0000001 magnetization 
 augmentation part        0.1898128 magnetization 

 Broyden mixing:
  rms(total) = 0.75551E-01    rms(broyden)= 0.75451E-01
  rms(prec ) = 0.11086E+00
  weight for this iteration     100.00

 eigenvalues of (default mixing * dielectric matrix)
  average eigenvalue GAMMA=   1.4126
  2.2194  1.4420  0.5765

 Free energy of the ion-electron system (eV)
  ---------------------------------------------------
  alpha Z        PSCENC =         0.24798131
  Ewald energy   TEWEN  =       129.70197277
  -Hartree energ DENC   =      -281.11069015
  -exchange      EXHF   =         0.00000000
  -V(xc)+E(xc)   XCENC  =        24.64888486
  PAW double counting   =       481.34112302     -482.13942986
  entropy T*S    EENTRO =         0.03994110
  eigenvalues    EBANDS =       -93.78704838
  atomic energy  EATOM  =       197.04175453
  Solvation  Ediel_sol  =         0.00000000
  ---------------------------------------------------
  free energy    TOTEN  =       -24.01551081 eV

  energy without entropy =      -24.05545191  energy(sigma->0) =      -24.02882451


--------------------------------------------------------------------------------------------------------




--------------------------------------- Iteration      1(   9)  ---------------------------------------


    POTLOK:  cpu time    1.7785: real time    1.7828
    SETDIJ:  cpu time    0.0065: real time    0.0065
    EDDIAG:  cpu time    0.4960: real time    0.4971
  RMM-DIIS:  cpu time    1.5187: real time    1.5223
    ORTHCH:  cpu time    0.0121: real time    0.0121
       DOS:  cpu time    0.0002: real time    0.0002
    CHARGE:  cpu time    0.2109: real time    0.2114
    MIXING:  cpu time    0.0408: real time    0.0409
    --------------------------------------------
      LOOP:  cpu time    4.0637: real time    4.0734

 eigenvalue-minimisations  :    64
 total energy-change (2. order) : 0.1741557E-01  (-0.1446677E-02)
 number of electron       8.0000001 magnetization 
 augmentation part        0.1893570 magnetization 

 Broyden mixing:
  rms(total) = 0.41436E-01    rms(broyden)= 0.41419E-01
  rms(prec ) = 0.66857E-01
  weight for this iteration     100.00

 eigenvalues of (default mixing * dielectric matrix)
  average eigenvalue GAMMA=   1.2882
  2.1714  1.4476  0.7669  0.7669

 Free energy of the ion-electron system (eV)
  ---------------------------------------------------
  alpha Z        PSCENC =         0.24798131
  Ewald energy   TEWEN  =       129.70197277
  -Hartree energ DENC   =      -282.15414497
  -exchange      EXHF   =         0.00000000
  -V(xc)+E(xc)   XCENC  =        24.72375702
  PAW double counting   =       491.59359207     -492.39180398
  entropy T*S    EENTRO =         0.03767398
  eigenvalues    EBANDS =       -92.79887799
  atomic energy  EATOM  =       197.04175453
  Solvation  Ediel_sol  =         0.00000000
  ---------------------------------------------------
  free energy    TOTEN  =       -23.99809524 eV

  energy without entropy =      -24.03576923  energy(sigma->0) =      -24.01065324


--------------------------------------------------------------------------------------------------------




--------------------------------------- Iteration      1(  10)  ---------------------------------------


    POTLOK:  cpu time    1.7870: real time    1.7913
    SETDIJ:  cpu time    0.0064: real time    0.0065
    EDDIAG:  cpu time    0.4853: real time    0.4864
  RMM-DIIS:  cpu time    1.5234: real time    1.5270
    ORTHCH:  cpu time    0.0113: real time    0.0113
       DOS:  cpu time    0.0002: real time    0.0002
    CHARGE:  cpu time    0.1986: real time    0.1991
    MIXING:  cpu time    0.0412: real time    0.0413
    --------------------------------------------
      LOOP:  cpu time    4.0535: real time    4.0631

 eigenvalue-minimisations  :    64
 total energy-change (2. order) : 0.3506462E-02  (-0.4623595E-03)
 number of electron       8.0000001 magnetization 
 augmentation part        0.1889029 magnetization 

 Broyden mixing:
  rms(total) = 0.16838E-01    rms(broyden)= 0.16742E-01
  rms(prec ) = 0.38705E-01
  weight for this iteration     100.00

 eigenvalues of (default mixing * dielectric matrix)
  average eigenvalue GAMMA=   1.2530
  2.0206  1.6171  1.1517  0.7378  0.7378

 Free energy of the ion-electron system (eV)
  ---------------------------------------------------
  alpha Z        PSCENC =         0.24798131
  Ewald energy   TEWEN  =       129.70197277
  -Hartree energ DENC   =      -282.78725595
  -exchange      EXHF   =         0.00000000
  -V(xc)+E(xc)   XCENC  =        24.75119866
  PAW double counting   =       490.68835345     -491.48793215
  entropy T*S    EENTRO =         0.03637455
  eigenvalues    EBANDS =       -92.18703595
  atomic energy  EATOM  =       197.04175453
  Solvation  Ediel_sol  =         0.00000000
  ---------------------------------------------------
  free energy    TOTEN  =       -23.99458878 eV

  energy without entropy =      -24.03096333  energy(sigma->0) =      -24.00671363


--------------------------------------------------------------------------------------------------------




--------------------------------------- Iteration      1(  11)  ---------------------------------------


    POTLOK:  cpu time    1.7907: real time    1.7950
    SETDIJ:  cpu time    0.0065: real time    0.0065
    EDDIAG:  cpu time    0.4988: real time    0.5000
  RMM-DIIS:  cpu time    1.5460: real time    1.5497
    ORTHCH:  cpu time    0.0111: real time    0.0112
       DOS:  cpu time    0.0002: real time    0.0002
    CHARGE:  cpu time    0.1974: real time    0.1978
    MIXING:  cpu time    0.0433: real time    0.0434
    --------------------------------------------
      LOOP:  cpu time    4.0940: real time    4.1037

 eigenvalue-minimisations  :    64
 total energy-change (2. order) : 0.7800803E-03  (-0.3341352E-03)
 number of electron       8.0000001 magnetization 
 augmentation part        0.1884290 magnetization 

 Broyden mixing:
  rms(total) = 0.16236E-01    rms(broyden)= 0.16210E-01
  rms(prec ) = 0.30953E-01
  weight for this iteration     100.00

 eigenvalues of (default mixing * dielectric matrix)
  average eigenvalue GAMMA=   1.4804
  2.5452  2.5452  1.2314  0.9259  0.8172  0.8172

 Free energy of the ion-electron system (eV)
  ---------------------------------------------------
  alpha Z        PSCENC =         0.24798131
  Ewald energy   TEWEN  =       129.70197277
  -Hartree energ DENC   =      -283.77550309
  -exchange      EXHF   =         0.00000000
  -V(xc)+E(xc)   XCENC  =        24.79287116
  PAW double counting   =       488.38241229     -489.18233981
  entropy T*S    EENTRO =         0.03630664
  eigenvalues    EBANDS =       -91.23926450
  atomic energy  EATOM  =       197.04175453
  Solvation  Ediel_sol  =         0.00000000
  ---------------------------------------------------
  free energy    TOTEN  =       -23.99380870 eV

  energy without entropy =      -24.03011534  energy(sigma->0) =      -24.00591092


--------------------------------------------------------------------------------------------------------




--------------------------------------- Iteration      1(  12)  ---------------------------------------


    POTLOK:  cpu time    1.7040: real time    1.7080
    SETDIJ:  cpu time    0.0067: real time    0.0067
    EDDIAG:  cpu time    0.5149: real time    0.5161
  RMM-DIIS:  cpu time    1.5599: real time    1.5636
    ORTHCH:  cpu time    0.0114: real time    0.0114
       DOS:  cpu time    0.0002: real time    0.0002
    CHARGE:  cpu time    0.2025: real time    0.2030
    MIXING:  cpu time    0.0435: real time    0.0436
    --------------------------------------------
      LOOP:  cpu time    4.0431: real time    4.0526

 eigenvalue-minimisations  :    64
 total energy-change (2. order) : 0.3822650E-02  (-0.3373243E-03)
 number of electron       8.0000001 magnetization 
 augmentation part        0.1884046 magnetization 

 Broyden mixing:
  rms(total) = 0.22091E-01    rms(broyden)= 0.22035E-01
  rms(prec ) = 0.31055E-01
  weight for this iteration     100.00

 eigenvalues of (default mixing * dielectric matrix)
  average eigenvalue GAMMA=   1.4708
  3.1210  2.4825  1.2081  1.2081  0.7957  0.7957  0.6847

 Free energy of the ion-electron system (eV)
  ---------------------------------------------------
  alpha Z        PSCENC =         0.24798131
  Ewald energy   TEWEN  =       129.70197277
  -Hartree energ DENC   =      -284.84074471
  -exchange      EXHF   =         0.00000000
  -V(xc)+E(xc)   XCENC  =        24.83804957
  PAW double counting   =       485.32297479     -486.11946888
  entropy T*S    EENTRO =         0.03710097
  eigenvalues    EBANDS =       -90.21960640
  atomic energy  EATOM  =       197.04175453
  Solvation  Ediel_sol  =         0.00000000
  ---------------------------------------------------
  free energy    TOTEN  =       -23.98998605 eV

  energy without entropy =      -24.02708702  energy(sigma->0) =      -24.00235304


--------------------------------------------------------------------------------------------------------




--------------------------------------- Iteration      1(  13)  ---------------------------------------


    POTLOK:  cpu time    1.6756: real time    1.6796
    SETDIJ:  cpu time    0.0065: real time    0.0065
    EDDIAG:  cpu time    0.5197: real time    0.5209
  RMM-DIIS:  cpu time    1.5398: real time    1.5434
    ORTHCH:  cpu time    0.0114: real time    0.0114
       DOS:  cpu time    0.0002: real time    0.0002
    CHARGE:  cpu time    0.2001: real time    0.2005
    MIXING:  cpu time    0.0436: real time    0.0437
    --------------------------------------------
      LOOP:  cpu time    3.9968: real time    4.0062

 eigenvalue-minimisations  :    64
 total energy-change (2. order) :-0.2097525E-02  (-0.1091107E-03)
 number of electron       8.0000001 magnetization 
 augmentation part        0.1882043 magnetization 

 Broyden mixing:
  rms(total) = 0.17518E-01    rms(broyden)= 0.17441E-01
  rms(prec ) = 0.24403E-01
  weight for this iteration     100.00

 eigenvalues of (default mixing * dielectric matrix)
  average eigenvalue GAMMA=   1.5914
  3.7980  2.2141  2.2141  1.2508  1.1021  0.7604  0.7604  0.6313

 Free energy of the ion-electron system (eV)
  ---------------------------------------------------
  alpha Z        PSCENC =         0.24798131
  Ewald energy   TEWEN  =       129.70197277
  -Hartree energ DENC   =      -285.07400581
  -exchange      EXHF   =         0.00000000
  -V(xc)+E(xc)   XCENC  =        24.84160963
  PAW double counting   =       483.37598600     -484.17318065
  entropy T*S    EENTRO =         0.03635229
  eigenvalues    EBANDS =       -89.99055364
  atomic energy  EATOM  =       197.04175453
  Solvation  Ediel_sol  =         0.00000000
  ---------------------------------------------------
  free energy    TOTEN  =       -23.99208358 eV

  energy without entropy =      -24.02843587  energy(sigma->0) =      -24.00420101


--------------------------------------------------------------------------------------------------------




--------------------------------------- Iteration      1(  14)  ---------------------------------------


    POTLOK:  cpu time    1.6210: real time    1.6248
    SETDIJ:  cpu time    0.0065: real time    0.0066
    EDDIAG:  cpu time    0.5162: real time    0.5174
  RMM-DIIS:  cpu time    1.5498: real time    1.5535
    ORTHCH:  cpu time    0.0112: real time    0.0112
       DOS:  cpu time    0.0002: real time    0.0002
    CHARGE:  cpu time    0.1946: real time    0.1950
    MIXING:  cpu time    0.0444: real time    0.0445
    --------------------------------------------
      LOOP:  cpu time    3.9439: real time    3.9532

 eigenvalue-minimisations  :    64
 total energy-change (2. order) :-0.5050976E-02  (-0.1071358E-03)
 number of electron       8.0000001 magnetization 
 augmentation part        0.1881580 magnetization 

 Broyden mixing:
  rms(total) = 0.41969E-02    rms(broyden)= 0.41586E-02
  rms(prec ) = 0.69529E-02
  weight for this iteration     100.00

 eigenvalues of (default mixing * dielectric matrix)
  average eigenvalue GAMMA=   1.6841
  4.6284  2.8358  2.3676  1.3225  0.7768  0.7768  1.0068  0.8113  0.6308

 Free energy of the ion-electron system (eV)
  ---------------------------------------------------
  alpha Z        PSCENC =         0.24798131
  Ewald energy   TEWEN  =       129.70197277
  -Hartree energ DENC   =      -285.38137626
  -exchange      EXHF   =         0.00000000
  -V(xc)+E(xc)   XCENC  =        24.85038496
  PAW double counting   =       484.19142184     -484.98840947
  entropy T*S    EENTRO =         0.03636181
  eigenvalues    EBANDS =       -89.69722603
  atomic energy  EATOM  =       197.04175453
  Solvation  Ediel_sol  =         0.00000000
  ---------------------------------------------------
  free energy    TOTEN  =       -23.99713455 eV

  energy without entropy =      -24.03349636  energy(sigma->0) =      -24.00925516


--------------------------------------------------------------------------------------------------------




--------------------------------------- Iteration      1(  15)  ---------------------------------------


    POTLOK:  cpu time    1.5998: real time    1.6036
    SETDIJ:  cpu time    0.0065: real time    0.0065
    EDDIAG:  cpu time    0.5027: real time    0.5038
  RMM-DIIS:  cpu time    1.5704: real time    1.5741
    ORTHCH:  cpu time    0.0114: real time    0.0114
       DOS:  cpu time    0.0002: real time    0.0002
    CHARGE:  cpu time    0.2079: real time    0.2084
    MIXING:  cpu time    0.0466: real time    0.0467
    --------------------------------------------
      LOOP:  cpu time    3.9455: real time    3.9548

 eigenvalue-minimisations  :    64
 total energy-change (2. order) :-0.2590245E-02  (-0.5437499E-04)
 number of electron       8.0000001 magnetization 
 augmentation part        0.1882044 magnetization 

 Broyden mixing:
  rms(total) = 0.10822E-01    rms(broyden)= 0.10802E-01
  rms(prec ) = 0.14561E-01
  weight for this iteration     100.00

 eigenvalues of (default mixing * dielectric matrix)
  average eigenvalue GAMMA=   1.6560
  5.0448  3.0128  2.1942  1.3865  1.1460  1.0611  0.7596  0.7596  0.5976  0.5976

 Free energy of the ion-electron system (eV)
  ---------------------------------------------------
  alpha Z        PSCENC =         0.24798131
  Ewald energy   TEWEN  =       129.70197277
  -Hartree energ DENC   =      -285.30700537
  -exchange      EXHF   =         0.00000000
  -V(xc)+E(xc)   XCENC  =        24.84092574
  PAW double counting   =       483.52691887     -484.32366371
  entropy T*S    EENTRO =         0.03662134
  eigenvalues    EBANDS =       -89.76523028
  atomic energy  EATOM  =       197.04175453
  Solvation  Ediel_sol  =         0.00000000
  ---------------------------------------------------
  free energy    TOTEN  =       -23.99972480 eV

  energy without entropy =      -24.03634614  energy(sigma->0) =      -24.01193191


--------------------------------------------------------------------------------------------------------




--------------------------------------- Iteration      1(  16)  ---------------------------------------


    POTLOK:  cpu time    1.5781: real time    1.5818
    SETDIJ:  cpu time    0.0065: real time    0.0065
    EDDIAG:  cpu time    0.4975: real time    0.4987
  RMM-DIIS:  cpu time    1.6094: real time    1.6132
    ORTHCH:  cpu time    0.0129: real time    0.0129
       DOS:  cpu time    0.0002: real time    0.0002
    CHARGE:  cpu time    0.2108: real time    0.2113
    MIXING:  cpu time    0.0466: real time    0.0467
    --------------------------------------------
      LOOP:  cpu time    3.9620: real time    3.9714

 eigenvalue-minimisations  :    64
 total energy-change (2. order) :-0.9522609E-03  (-0.1839355E-04)
 number of electron       8.0000001 magnetization 
 augmentation part        0.1881716 magnetization 

 Broyden mixing:
  rms(total) = 0.22085E-02    rms(broyden)= 0.21635E-02
  rms(prec ) = 0.32289E-02
  weight for this iteration     100.00

 eigenvalues of (default mixing * dielectric matrix)
  average eigenvalue GAMMA=   1.8461
  5.8436  3.5878  2.4621  2.4621  1.3181  0.7636  0.7636  0.9620  0.9620  0.6248
  0.5578

 Free energy of the ion-electron system (eV)
  ---------------------------------------------------
  alpha Z        PSCENC =         0.24798131
  Ewald energy   TEWEN  =       129.70197277
  -Hartree energ DENC   =      -285.26603313
  -exchange      EXHF   =         0.00000000
  -V(xc)+E(xc)   XCENC  =        24.83436752
  PAW double counting   =       482.61799220     -483.41506887
  entropy T*S    EENTRO =         0.03636957
  eigenvalues    EBANDS =       -89.80001296
  atomic energy  EATOM  =       197.04175453
  Solvation  Ediel_sol  =         0.00000000
  ---------------------------------------------------
  free energy    TOTEN  =       -24.00067706 eV

  energy without entropy =      -24.03704662  energy(sigma->0) =      -24.01280025


--------------------------------------------------------------------------------------------------------




--------------------------------------- Iteration      1(  17)  ---------------------------------------


    POTLOK:  cpu time    1.5550: real time    1.5588
    SETDIJ:  cpu time    0.0065: real time    0.0065
    EDDIAG:  cpu time    0.5008: real time    0.5020
  RMM-DIIS:  cpu time    1.6420: real time    1.6459
    ORTHCH:  cpu time    0.0114: real time    0.0114
       DOS:  cpu time    0.0002: real time    0.0002
    CHARGE:  cpu time    0.1941: real time    0.1946
    MIXING:  cpu time    0.0469: real time    0.0470
    --------------------------------------------
      LOOP:  cpu time    3.9570: real time    3.9665

 eigenvalue-minimisations  :    64
 total energy-change (2. order) :-0.1143291E-02  (-0.2137896E-04)
 number of electron       8.0000001 magnetization 
 augmentation part        0.1881199 magnetization 

 Broyden mixing:
  rms(total) = 0.94100E-02    rms(broyden)= 0.93943E-02
  rms(prec ) = 0.12479E-01
  weight for this iteration     100.00

 eigenvalues of (default mixing * dielectric matrix)
  average eigenvalue GAMMA=   1.8803
  6.5437  4.0231  2.6423  2.1375  1.3838  1.2750  0.7554  0.7554  1.0078  0.7314
  0.7314  0.5772

 Free energy of the ion-electron system (eV)
  ---------------------------------------------------
  alpha Z        PSCENC =         0.24798131
  Ewald energy   TEWEN  =       129.70197277
  -Hartree energ DENC   =      -285.29470169
  -exchange      EXHF   =         0.00000000
  -V(xc)+E(xc)   XCENC  =        24.83409729
  PAW double counting   =       483.22000634     -484.01710668
  entropy T*S    EENTRO =         0.03630243
  eigenvalues    EBANDS =       -89.77212665
  atomic energy  EATOM  =       197.04175453
  Solvation  Ediel_sol  =         0.00000000
  ---------------------------------------------------
  free energy    TOTEN  =       -24.00182035 eV

  energy without entropy =      -24.03812278  energy(sigma->0) =      -24.01392116


--------------------------------------------------------------------------------------------------------




--------------------------------------- Iteration      1(  18)  ---------------------------------------


    POTLOK:  cpu time    1.5404: real time    1.5440
    SETDIJ:  cpu time    0.0065: real time    0.0065
    EDDIAG:  cpu time    0.5058: real time    0.5070
  RMM-DIIS:  cpu time    1.5971: real time    1.6009
    ORTHCH:  cpu time    0.0110: real time    0.0111
       DOS:  cpu time    0.0002: real time    0.0002
    CHARGE:  cpu time    0.1982: real time    0.1987
    MIXING:  cpu time    0.0478: real time    0.0479
    --------------------------------------------
      LOOP:  cpu time    3.9070: real time    3.9162

 eigenvalue-minimisations  :    64
 total energy-change (2. order) :-0.3975081E-04  (-0.6625252E-05)
 number of electron       8.0000001 magnetization 
 augmentation part        0.1881385 magnetization 

 Broyden mixing:
  rms(total) = 0.77177E-03    rms(broyden)= 0.68200E-03
  rms(prec ) = 0.98017E-03
  weight for this iteration     100.00
  WARNING: grid for Broyden might be to small

 eigenvalues of (default mixing * dielectric matrix)
  average eigenvalue GAMMA=   1.9598
  7.1804  4.3493  2.4630  2.4630  2.0112  1.3374  0.7555  0.7555  1.0162  1.0162
  0.8583  0.6869  0.5846

 Free energy of the ion-electron system (eV)
  ---------------------------------------------------
  alpha Z        PSCENC =         0.24798131
  Ewald energy   TEWEN  =       129.70197277
  -Hartree energ DENC   =      -285.31297838
  -exchange      EXHF   =         0.00000000
  -V(xc)+E(xc)   XCENC  =        24.83635975
  PAW double counting   =       483.85981477     -484.65664072
  entropy T*S    EENTRO =         0.03636764
  eigenvalues    EBANDS =       -89.75649178
  atomic energy  EATOM  =       197.04175453
  Solvation  Ediel_sol  =         0.00000000
  ---------------------------------------------------
  free energy    TOTEN  =       -24.00186010 eV

  energy without entropy =      -24.03822774  energy(sigma->0) =      -24.01398265


--------------------------------------------------------------------------------------------------------




--------------------------------------- Iteration      1(  19)  ---------------------------------------


    POTLOK:  cpu time    1.5402: real time    1.5439
    SETDIJ:  cpu time    0.0065: real time    0.0065
    EDDIAG:  cpu time    0.5128: real time    0.5140
  RMM-DIIS:  cpu time    1.5915: real time    1.5953
    ORTHCH:  cpu time    0.0115: real time    0.0115
       DOS:  cpu time    0.0002: real time    0.0002
    CHARGE:  cpu time    0.2006: real time    0.2010
    MIXING:  cpu time    0.0492: real time    0.0493
    --------------------------------------------
      LOOP:  cpu time    3.9123: real time    3.9216

 eigenvalue-minimisations  :    64
 total energy-change (2. order) :-0.1654750E-03  (-0.1596845E-05)
 number of electron       8.0000001 magnetization 
 augmentation part        0.1881506 magnetization 

 Broyden mixing:
  rms(total) = 0.18026E-02    rms(broyden)= 0.17940E-02
  rms(prec ) = 0.24026E-02
  weight for this iteration     100.00

 eigenvalues of (default mixing * dielectric matrix)
  average eigenvalue GAMMA=   2.0596
  7.8928  4.8299  3.1942  2.5976  2.1731  1.3251  0.7552  0.7552  1.1788  1.0638
  0.9083  0.9083  0.5844  0.6683

 Free energy of the ion-electron system (eV)
  ---------------------------------------------------
  alpha Z        PSCENC =         0.24798131
  Ewald energy   TEWEN  =       129.70197277
  -Hartree energ DENC   =      -285.29233007
  -exchange      EXHF   =         0.00000000
  -V(xc)+E(xc)   XCENC  =        24.83469053
  PAW double counting   =       483.50239404     -484.29923153
  entropy T*S    EENTRO =         0.03640138
  eigenvalues    EBANDS =       -89.77565855
  atomic energy  EATOM  =       197.04175453
  Solvation  Ediel_sol  =         0.00000000
  ---------------------------------------------------
  free energy    TOTEN  =       -24.00202557 eV

  energy without entropy =      -24.03842695  energy(sigma->0) =      -24.01415937


--------------------------------------------------------------------------------------------------------




--------------------------------------- Iteration      1(  20)  ---------------------------------------


    POTLOK:  cpu time    1.5587: real time    1.5624
    SETDIJ:  cpu time    0.0064: real time    0.0064
    EDDIAG:  cpu time    0.4915: real time    0.4927
  RMM-DIIS:  cpu time    1.5391: real time    1.5428
    ORTHCH:  cpu time    0.0112: real time    0.0113
       DOS:  cpu time    0.0002: real time    0.0002
    CHARGE:  cpu time    0.2023: real time    0.2028
    MIXING:  cpu time    0.0510: real time    0.0511
    --------------------------------------------
      LOOP:  cpu time    3.8605: real time    3.8696

 eigenvalue-minimisations  :    60
 total energy-change (2. order) :-0.4655149E-04  (-0.2936803E-06)
 number of electron       8.0000001 magnetization 
 augmentation part        0.1881451 magnetization 

 Broyden mixing:
  rms(total) = 0.35108E-03    rms(broyden)= 0.34862E-03
  rms(prec ) = 0.48042E-03
  weight for this iteration     100.00

 eigenvalues of (default mixing * dielectric matrix)
  average eigenvalue GAMMA=   2.1017
  8.1155  5.1129  3.2628  2.5338  2.2385  2.2385  1.3244  0.7552  0.7552  1.0145
  1.0145  0.9526  0.9526  0.5842  0.6706

 Free energy of the ion-electron system (eV)
  ---------------------------------------------------
  alpha Z        PSCENC =         0.24798131
  Ewald energy   TEWEN  =       129.70197277
  -Hartree energ DENC   =      -285.30112114
  -exchange      EXHF   =         0.00000000
  -V(xc)+E(xc)   XCENC  =        24.83506826
  PAW double counting   =       483.42980805     -484.22669732
  entropy T*S    EENTRO =         0.03637457
  eigenvalues    EBANDS =       -89.76721315
  atomic energy  EATOM  =       197.04175453
  Solvation  Ediel_sol  =         0.00000000
  ---------------------------------------------------
  free energy    TOTEN  =       -24.00207213 eV

  energy without entropy =      -24.03844669  energy(sigma->0) =      -24.01419698


--------------------------------------------------------------------------------------------------------




--------------------------------------- Iteration      1(  21)  ---------------------------------------


    POTLOK:  cpu time    1.5824: real time    1.5862
    SETDIJ:  cpu time    0.0065: real time    0.0065
    EDDIAG:  cpu time    0.5078: real time    0.5090
  RMM-DIIS:  cpu time    1.2607: real time    1.2637
    ORTHCH:  cpu time    0.0109: real time    0.0110
       DOS:  cpu time    0.0002: real time    0.0002
    CHARGE:  cpu time    0.1795: real time    0.1799
    MIXING:  cpu time    0.0511: real time    0.0512
    --------------------------------------------
      LOOP:  cpu time    3.5992: real time    3.6077

 eigenvalue-minimisations  :    48
 total energy-change (2. order) :-0.1057490E-04  (-0.8971309E-07)
 number of electron       8.0000001 magnetization 
 augmentation part        0.1881412 magnetization 

 Broyden mixing:
  rms(total) = 0.29536E-03    rms(broyden)= 0.29265E-03
  rms(prec ) = 0.38542E-03
  weight for this iteration     100.00

 eigenvalues of (default mixing * dielectric matrix)
  average eigenvalue GAMMA=   2.1234
  8.3914  5.2748  3.8427  2.5473  2.5473  2.0827  1.3376  1.3376  0.7553  0.7553
  1.0468  0.9529  0.9529  0.8931  0.5845  0.6713

 Free energy of the ion-electron system (eV)
  ---------------------------------------------------
  alpha Z        PSCENC =         0.24798131
  Ewald energy   TEWEN  =       129.70197277
  -Hartree energ DENC   =      -285.30585668
  -exchange      EXHF   =         0.00000000
  -V(xc)+E(xc)   XCENC  =        24.83530489
  PAW double counting   =       483.46083030     -484.25774617
  entropy T*S    EENTRO =         0.03636617
  eigenvalues    EBANDS =       -89.76268981
  atomic energy  EATOM  =       197.04175453
  Solvation  Ediel_sol  =         0.00000000
  ---------------------------------------------------
  free energy    TOTEN  =       -24.00208270 eV

  energy without entropy =      -24.03844887  energy(sigma->0) =      -24.01420476


--------------------------------------------------------------------------------------------------------




--------------------------------------- Iteration      1(  22)  ---------------------------------------


    POTLOK:  cpu time    1.6384: real time    1.6423
    SETDIJ:  cpu time    0.0066: real time    0.0066
    EDDIAG:  cpu time    0.4834: real time    0.4846
  RMM-DIIS:  cpu time    1.1593: real time    1.1620
    ORTHCH:  cpu time    0.0110: real time    0.0110
       DOS:  cpu time    0.0002: real time    0.0002
    CHARGE:  cpu time    0.1917: real time    0.1922
    MIXING:  cpu time    0.0535: real time    0.0536
    --------------------------------------------
      LOOP:  cpu time    3.5441: real time    3.5525

 eigenvalue-minimisations  :    44
 total energy-change (2. order) :-0.4829016E-05  (-0.1915373E-07)
 number of electron       8.0000001 magnetization 
 augmentation part        0.1881420 magnetization 

 Broyden mixing:
  rms(total) = 0.69638E-04    rms(broyden)= 0.68879E-04
  rms(prec ) = 0.93136E-04
  weight for this iteration     100.00

 eigenvalues of (default mixing * dielectric matrix)
  average eigenvalue GAMMA=   2.0778
  8.3845  5.3590  3.8053  2.5686  2.5686  1.8429  1.8429  1.3574  0.7553  0.7553
  1.0382  1.0382  0.5845  0.6713  0.9982  0.8761  0.8761

 Free energy of the ion-electron system (eV)
  ---------------------------------------------------
  alpha Z        PSCENC =         0.24798131
  Ewald energy   TEWEN  =       129.70197277
  -Hartree energ DENC   =      -285.30656720
  -exchange      EXHF   =         0.00000000
  -V(xc)+E(xc)   XCENC  =        24.83537085
  PAW double counting   =       483.48383019     -484.28073070
  entropy T*S    EENTRO =         0.03637139
  eigenvalues    EBANDS =       -89.76207068
  atomic energy  EATOM  =       197.04175453
  Solvation  Ediel_sol  =         0.00000000
  ---------------------------------------------------
  free energy    TOTEN  =       -24.00208753 eV

  energy without entropy =      -24.03845892  energy(sigma->0) =      -24.01421133


--------------------------------------------------------------------------------------------------------




--------------------------------------- Iteration      1(  23)  ---------------------------------------


    POTLOK:  cpu time    1.6223: real time    1.6261
    SETDIJ:  cpu time    0.0065: real time    0.0065
    EDDIAG:  cpu time    0.4731: real time    0.4742
  RMM-DIIS:  cpu time    1.1248: real time    1.1275
    ORTHCH:  cpu time    0.0112: real time    0.0112
       DOS:  cpu time    0.0002: real time    0.0002
    --------------------------------------------
      LOOP:  cpu time    3.2380: real time    3.2457

 eigenvalue-minimisations  :    40
 total energy-change (2. order) :-0.8278342E-06  (-0.4398023E-08)
 number of electron       8.0000001 magnetization 
 augmentation part        0.1881420 magnetization 

 Free energy of the ion-electron system (eV)
  ---------------------------------------------------
  alpha Z        PSCENC =         0.24798131
  Ewald energy   TEWEN  =       129.70197277
  -Hartree energ DENC   =      -285.30520377
  -exchange      EXHF   =         0.00000000
  -V(xc)+E(xc)   XCENC  =        24.83530442
  PAW double counting   =       483.48788295     -484.28477168
  entropy T*S    EENTRO =         0.03637169
  eigenvalues    EBANDS =       -89.76338059
  atomic energy  EATOM  =       197.04175453
  Solvation  Ediel_sol  =         0.00000000
  ---------------------------------------------------
  free energy    TOTEN  =       -24.00208836 eV

  energy without entropy =      -24.03846005  energy(sigma->0) =      -24.01421225


--------------------------------------------------------------------------------------------------------




 average (electrostatic) potential at core
  the test charge radii are     0.5201  0.6991
  (the norm of the test charge is              1.0000)
       1 -41.3667       2 -41.6659       3 -41.5360       4 -41.5985       5 -57.8996



 E-fermi :  -9.1367     XC(G=0):  -0.7116     alpha+bet : -0.2157


 k-point     1 :       0.2500    0.2500    0.2500
  band No.  band energies     occupation 
      1     -16.9467      2.00000
      2      -9.3450      2.05781
      3      -9.3038      1.99725
      4      -9.2841      1.94420
      5      -0.3014      0.00000
      6       0.5793      0.00000
      7       0.6842      0.00000
      8       0.7061      0.00000

 k-point     2 :      -0.2500    0.2500    0.2500
  band No.  band energies     occupation 
      1     -16.9467      2.00000
      2      -9.3452      2.05796
      3      -9.3040      1.99763
      4      -9.2843      1.94491
      5      -0.3092      0.00000
      6       0.5864      0.00000
      7       0.6987      0.00000
      8       0.7324      0.00000

 k-point     3 :       0.2500   -0.2500    0.2500
  band No.  band energies     occupation 
      1     -16.9467      2.00000
      2      -9.3452      2.05796
      3      -9.3040      1.99757
      4      -9.2842      1.94469
      5      -0.2993      0.00000
      6       0.5645      0.00000
      7       0.6703      0.00000
      8       0.7164      0.00000

 k-point     4 :      -0.2500   -0.2500    0.2500
  band No.  band energies     occupation 
      1     -16.9467      2.00000
      2      -9.3452      2.05797
      3      -9.3039      1.99738
      4      -9.2842      1.94468
      5      -0.3008      0.00000
      6       0.5708      0.00000
      7       0.6790      0.00000
      8       0.7144      0.00000


--------------------------------------------------------------------------------------------------------


 soft charge-density along one line, spin component           1
         0         1         2         3         4         5         6         7         8         9
 total charge-density along one line

 pseudopotential strength for first ion, spin component:           1
 -2.340  -4.031  -0.001  -0.001   0.001
 -4.031  -6.860  -0.003  -0.004   0.002
 -0.001  -0.003  -0.338   0.002  -0.001
 -0.001  -0.004   0.002  -0.337  -0.001
  0.001   0.002  -0.001  -0.001  -0.339
 total augmentation occupancy for first ion, spin component:           1
  3.176  -0.517   0.236   0.355  -0.121
 -0.517   0.097  -0.040  -0.059   0.021
  0.236  -0.040   0.022   0.023  -0.007
  0.355  -0.059   0.023   0.044  -0.011
 -0.121   0.021  -0.007  -0.011   0.013


------------------------ aborting loop because EDIFF is reached ----------------------------------------


    CHARGE:  cpu time    0.1926: real time    0.1931
    FORLOC:  cpu time    0.1110: real time    0.1113
    FORNL :  cpu time    0.6477: real time    0.6493
    STRESS:  cpu time    2.1483: real time    2.1534
    FORCOR:  cpu time    1.6911: real time    1.6951
    FORHAR:  cpu time    0.5603: real time    0.5617
    MIXING:  cpu time    0.0581: real time    0.0582
    OFIELD:  cpu time    0.0000: real time    0.0000

  FORCE on cell =-STRESS in cart. coord.  units (eV):
  Direction    XX          YY          ZZ          XY          YZ          ZX
  --------------------------------------------------------------------------------------
  Alpha Z     0.24798     0.24798     0.24798
  Ewald      45.26394    43.19990    41.23808    -0.99086     0.65741    -0.90914
  Hartree    96.95736    94.71959    93.62867    -0.67173     0.69407    -0.75146
  E(xc)     -27.32268   -27.30383   -27.30956    -0.00606     0.00714    -0.00751
  Local    -200.69520  -196.80644  -193.46544     1.83386    -1.42345     1.82759
  n-local   -15.73622   -15.56050   -15.79003     0.07930    -0.02532     0.11758
  augment     0.11065     0.11788     0.11446    -0.00236     0.00109    -0.00221
  Kinetic   102.46536   102.01941   100.73091    -0.24700    -0.69420     0.12989
  Fock        0.00000     0.00000     0.00000     0.00000     0.00000     0.00000
  -------------------------------------------------------------------------------------
  Total       1.29120     0.63399    -0.60493    -0.00484    -0.78326     0.40474
  in kB       2.11766     1.03980    -0.99214    -0.00794    -1.28461     0.66380
  external pressure =        0.72 kB  Pullay stress =        0.00 kB

  kinetic pressure (ideal gas correction) =      0.03 kB
  total pressure  =      0.75 kB
  Total+kin.     2.134       1.084      -0.969       0.015      -1.266       0.673

 VOLUME and BASIS-vectors are now :
 -----------------------------------------------------------------------------
  energy-cutoff  :      400.00
  volume of cell :      976.89
      direct lattice vectors                 reciprocal lattice vectors
     9.735728665  0.000000000  0.000000000     0.102714448  0.001699688  0.002477457
    -0.165567447 10.005462347  0.000000000     0.000000000  0.099945406 -0.002840980
    -0.246605657  0.285066373 10.028607405     0.000000000 -0.000000000  0.099714742

  length of vectors
     9.735728665 10.006832134 10.035688500     0.102758380  0.099985776  0.099714742


 FORCES acting on ions
    electron-ion (+dipol)            ewald-force                    non-local-force                 convergence-correction
 -----------------------------------------------------------------------------------------------
   -.170E+02 0.293E+02 0.395E+02   0.187E+02 -.319E+02 -.428E+02   -.179E+01 0.277E+01 0.387E+01   0.537E-04 -.911E-04 -.511E-04
   0.539E+02 -.636E+01 0.344E+01   -.608E+02 0.725E+01 -.390E+01   0.574E+01 -.520E+00 0.554E+00   0.136E-05 -.284E-04 -.216E-04
   -.228E+02 -.485E+02 0.112E+01   0.253E+02 0.541E+02 -.138E+01   -.206E+01 -.492E+01 0.383E+00   0.808E-04 0.417E-04 0.139E-04
   -.112E+02 0.236E+02 -.466E+02   0.125E+02 -.265E+02 0.516E+02   -.203E+01 0.239E+01 -.456E+01   0.977E-04 -.866E-04 0.753E-04
   -.367E+01 0.263E+01 0.307E+01   0.420E+01 -.294E+01 -.358E+01   -.556E+00 0.958E+00 0.390E+00   0.155E-02 -.120E-02 0.851E-04
 -----------------------------------------------------------------------------------------------
   -.815E+00 0.663E+00 0.544E+00   0.355E-14 -.355E-14 0.711E-14   -.704E+00 0.679E+00 0.629E+00   0.179E-02 -.136E-02 0.102E-03


 POSITION                                       TOTAL-FORCE (eV/Angst)
 -----------------------------------------------------------------------------------
      5.08297      4.17104      3.61410        -0.149501      0.147481      0.571094
      3.65765      4.93118      4.39594        -1.171581      0.369098      0.086909
      5.17006      5.78540      4.43790         0.531613      0.622038      0.128322
      4.94058      4.31997      5.40750        -0.706456     -0.441186      0.500914
      4.71451      4.80258      4.45946        -0.021034      0.642938     -0.113471
 -----------------------------------------------------------------------------------
    total drift:                               -1.516959      1.340369      1.173768


--------------------------------------------------------------------------------------------------------



  FREE ENERGIE OF THE ION-ELECTRON SYSTEM (eV)
  ---------------------------------------------------
  free  energy   TOTEN  =       -24.00208836 eV

  energy  without entropy=      -24.03846005  energy(sigma->0) =      -24.01421225



--------------------------------------------------------------------------------------------------------


    POTLOK:  cpu time    1.6414: real time    1.6452


--------------------------------------------------------------------------------------------------------


           RANDOM_SEED =         578495887                0                0
           RANDOM_SEED =         578495887               30                0
   IONSTEP:  cpu time    0.0017: real time    0.0018

  ENERGY OF THE ELECTRON-ION-THERMOSTAT SYSTEM (eV)
  ---------------------------------------------------
% ion-electron   TOTEN  =       -24.002088  see above
  kinetic energy EKIN   =         0.056785
  kin. lattice  EKIN_LAT=         0.000000  (temperature  109.83 K)
  nose potential ES     =         0.000000
  nose kinetic   EPS    =         0.000115
  ---------------------------------------------------
  total energy   ETOTAL =       -23.945188 eV

  maximum distance moved by ions :      0.60E-02


 mean value of Nose-termostat <S>:     1.015 mean value of <T> :   109.827
 mean temperature <T/S>/<1/S>  :   109.827

    WAVPRE:  cpu time    0.4434: real time    0.4490
    FEWALD:  cpu time    0.0004: real time    0.0004
    ORTHCH:  cpu time    0.2456: real time    0.2462
     LOOP+:  cpu time   94.1280: real time   94.3587


--------------------------------------- Iteration      2(   1)  ---------------------------------------


    POTLOK:  cpu time    1.6552: real time    1.6593
    SETDIJ:  cpu time    0.0065: real time    0.0065
     EDDAV:  cpu time    2.1590: real time    2.1641
       DOS:  cpu time    0.0002: real time    0.0002
    CHARGE:  cpu time    0.2116: real time    0.2121
    MIXING:  cpu time    0.0430: real time    0.0431
    --------------------------------------------
      LOOP:  cpu time    4.0754: real time    4.0853

 eigenvalue-minimisations  :    64
 total energy-change (2. order) : 0.1461450E-02  (-0.3816788E+00)
 number of electron       7.9999996 magnetization 
 augmentation part        0.1800259 magnetization 

 Broyden mixing:
  rms(total) = 0.89123E-01    rms(broyden)= 0.89027E-01
  rms(prec ) = 0.10999E+00
  weight for this iteration     100.00

 Free energy of the ion-electron system (eV)
  ---------------------------------------------------
  alpha Z        PSCENC =         0.24798131
  Ewald energy   TEWEN  =       124.36244640
  -Hartree energ DENC   =      -282.20087649
  -exchange      EXHF   =         0.00000000
  -V(xc)+E(xc)   XCENC  =        24.67714688
  PAW double counting   =       483.48356010     -484.28044983
  entropy T*S    EENTRO =         0.01217760
  eigenvalues    EBANDS =       -87.34436658
  atomic energy  EATOM  =       197.04175453
  Solvation  Ediel_sol  =         0.00000000
  ---------------------------------------------------
  free energy    TOTEN  =       -24.00062608 eV

  energy without entropy =      -24.01280368  energy(sigma->0) =      -24.00468528


--------------------------------------------------------------------------------------------------------




--------------------------------------- Iteration      2(   2)  ---------------------------------------


    POTLOK:  cpu time    1.5256: real time    1.5292
    SETDIJ:  cpu time    0.0064: real time    0.0065
    EDDIAG:  cpu time    0.4916: real time    0.4928
  RMM-DIIS:  cpu time    1.6383: real time    1.6422
    ORTHCH:  cpu time    0.0118: real time    0.0119
       DOS:  cpu time    0.0002: real time    0.0002
    CHARGE:  cpu time    0.2124: real time    0.2129
    MIXING:  cpu time    0.0670: real time    0.0671
    --------------------------------------------
      LOOP:  cpu time    3.9535: real time    3.9628

 eigenvalue-minimisations  :    64
 total energy-change (2. order) : 0.1200188E-01  (-0.1575560E-01)
 number of electron       7.9999996 magnetization 
 augmentation part        0.1816897 magnetization 

 Broyden mixing:
  rms(total) = 0.48281E-01    rms(broyden)= 0.48253E-01
  rms(prec ) = 0.58257E-01
  weight for this iteration     100.00

 eigenvalues of (default mixing * dielectric matrix)
  average eigenvalue GAMMA=   2.1087
  8.4107  5.5051  3.7073  3.2349  2.5182  2.5182  2.1326  1.8062  1.4427  1.3638
  0.7553  0.7553  0.9792  0.9792  1.0167  0.9135  0.5845  0.6711  0.7705

 Free energy of the ion-electron system (eV)
  ---------------------------------------------------
  alpha Z        PSCENC =         0.24798131
  Ewald energy   TEWEN  =       124.36244640
  -Hartree energ DENC   =      -280.27587770
  -exchange      EXHF   =         0.00000000
  -V(xc)+E(xc)   XCENC  =        24.57349807
  PAW double counting   =       466.33488515     -467.11062167
  entropy T*S    EENTRO =         0.01405021
  eigenvalues    EBANDS =       -89.17674050
  atomic energy  EATOM  =       197.04175453
  Solvation  Ediel_sol  =         0.00000000
  ---------------------------------------------------
  free energy    TOTEN  =       -23.98862420 eV

  energy without entropy =      -24.00267441  energy(sigma->0) =      -23.99330760


--------------------------------------------------------------------------------------------------------




--------------------------------------- Iteration      2(   3)  ---------------------------------------


    POTLOK:  cpu time    1.5672: real time    1.5710
    SETDIJ:  cpu time    0.0065: real time    0.0065
    EDDIAG:  cpu time    0.4970: real time    0.4982
  RMM-DIIS:  cpu time    1.6406: real time    1.6445
    ORTHCH:  cpu time    0.0117: real time    0.0117
       DOS:  cpu time    0.0002: real time    0.0002
    CHARGE:  cpu time    0.2200: real time    0.2205
    MIXING:  cpu time    0.0605: real time    0.0606
    --------------------------------------------
      LOOP:  cpu time    4.0037: real time    4.0132

 eigenvalue-minimisations  :    64
 total energy-change (2. order) :-0.1590086E-01  (-0.3198614E-02)
 number of electron       7.9999996 magnetization 
 augmentation part        0.1820665 magnetization 

 Broyden mixing:
  rms(total) = 0.64037E-01    rms(broyden)= 0.64031E-01
  rms(prec ) = 0.85282E-01
  weight for this iteration     100.00

 eigenvalues of (default mixing * dielectric matrix)
  average eigenvalue GAMMA=   2.0819
  8.4126  5.5111  3.6519  3.4231  2.6013  2.3932  2.3932  1.9850  1.4361  1.3659
  0.7553  0.7553  0.9786  0.9786  1.0289  1.0289  0.9080  0.5845  0.6711  0.7760

 Free energy of the ion-electron system (eV)
  ---------------------------------------------------
[...]
  rms(total) = 0.29162E-03    rms(broyden)= 0.29156E-03
  rms(prec ) = 0.38946E-03
  weight for this iteration     100.00

 eigenvalues of (default mixing * dielectric matrix)
  average eigenvalue GAMMA=   2.6772
  5.9998  5.7714  5.4097  4.9322  3.9605  1.0143  1.0143  1.2225  1.2225  3.4442
  1.9890  1.9890  1.4683  1.5482  3.2262  3.2262  1.7867  1.7867  3.1392  3.0026
  3.0026  2.7488  2.7488  2.0650  2.1945  2.1945  2.1688  2.8234  2.7769  2.7191
  2.7191  2.5509  2.5509  2.6275  2.6275  2.4060  2.4060  2.3120  2.6304  2.6304
  2.4064  2.4064  2.5988  2.5159  2.4896

 Free energy of the ion-electron system (eV)
  ---------------------------------------------------
  alpha Z        PSCENC =         0.24798131
  Ewald energy   TEWEN  =       130.10778322
  -Hartree energ DENC   =      -285.60551799
  -exchange      EXHF   =         0.00000000
  -V(xc)+E(xc)   XCENC  =        24.84917409
  PAW double counting   =       490.54176557     -491.33910349
  entropy T*S    EENTRO =         0.01235665
  eigenvalues    EBANDS =       -89.84571341
  atomic energy  EATOM  =       197.04175453
  Solvation  Ediel_sol  =         0.00000000
  ---------------------------------------------------
  free energy    TOTEN  =       -23.98951952 eV

  energy without entropy =      -24.00187617  energy(sigma->0) =      -23.99363840


--------------------------------------------------------------------------------------------------------




--------------------------------------- Iteration     10(  11)  ---------------------------------------


    POTLOK:  cpu time    1.8188: real time    1.8232
    SETDIJ:  cpu time    0.0066: real time    0.0066
    EDDIAG:  cpu time    0.6926: real time    0.6943
  RMM-DIIS:  cpu time    1.5661: real time    1.5699
    ORTHCH:  cpu time    0.0114: real time    0.0114
       DOS:  cpu time    0.0002: real time    0.0002
    CHARGE:  cpu time    0.2753: real time    0.2760
    MIXING:  cpu time    0.1391: real time    0.1394
    --------------------------------------------
      LOOP:  cpu time    4.5102: real time    4.5210

 eigenvalue-minimisations  :    48
 total energy-change (2. order) :-0.1290458E-04  (-0.1664276E-06)
 number of electron       7.9999999 magnetization 
 augmentation part        0.1885870 magnetization 

 Broyden mixing:
  rms(total) = 0.47358E-04    rms(broyden)= 0.47342E-04
  rms(prec ) = 0.69343E-04
  weight for this iteration     100.00

 eigenvalues of (default mixing * dielectric matrix)
  average eigenvalue GAMMA=   2.6838
  6.0381  5.8909  5.4288  5.0420  3.9791  1.0015  1.0015  3.7314  1.1628  1.2672
  1.9909  1.9909  1.4992  1.5364  1.5364  3.2568  3.2568  1.8871  1.8871  3.1796
  3.0405  3.0405  2.9421  2.1759  2.1759  2.2696  2.2696  2.8282  2.7710  2.7710
  2.6622  2.6622  2.7282  2.5524  2.5524  2.6436  2.6436  2.2943  2.6405  2.4183
  2.4183  2.3849  2.5110  2.5110  2.5232  2.4614

 Free energy of the ion-electron system (eV)
  ---------------------------------------------------
  alpha Z        PSCENC =         0.24798131
  Ewald energy   TEWEN  =       130.10778322
  -Hartree energ DENC   =      -285.61500803
  -exchange      EXHF   =         0.00000000
  -V(xc)+E(xc)   XCENC  =        24.84956919
  PAW double counting   =       490.51144519     -491.30889235
  entropy T*S    EENTRO =         0.01235618
  eigenvalues    EBANDS =       -89.83652167
  atomic energy  EATOM  =       197.04175453
  Solvation  Ediel_sol  =         0.00000000
  ---------------------------------------------------
  free energy    TOTEN  =       -23.98953243 eV

  energy without entropy =      -24.00188861  energy(sigma->0) =      -23.99365115


--------------------------------------------------------------------------------------------------------




--------------------------------------- Iteration     10(  12)  ---------------------------------------


    POTLOK:  cpu time    2.0159: real time    2.0209
    SETDIJ:  cpu time    0.0064: real time    0.0065
    EDDIAG:  cpu time    0.5437: real time    0.5451
  RMM-DIIS:  cpu time    1.4796: real time    1.4831
    ORTHCH:  cpu time    0.0153: real time    0.0153
       DOS:  cpu time    0.0002: real time    0.0002
    CHARGE:  cpu time    0.2051: real time    0.2056
    MIXING:  cpu time    0.1908: real time    0.1912
    --------------------------------------------
      LOOP:  cpu time    4.4570: real time    4.4679

 eigenvalue-minimisations  :    48
 total energy-change (2. order) :-0.5077342E-05  (-0.6655758E-07)
 number of electron       7.9999999 magnetization 
 augmentation part        0.1885839 magnetization 

 Broyden mixing:
  rms(total) = 0.11434E-03    rms(broyden)= 0.11432E-03
  rms(prec ) = 0.14360E-03
  weight for this iteration     100.00

 eigenvalues of (default mixing * dielectric matrix)
  average eigenvalue GAMMA=   2.6678
  6.0833  5.9104  5.4502  5.0716  4.0360  0.9571  1.0720  1.0720  3.6741  1.2088
  1.2360  1.3654  1.9018  1.9018  1.5974  1.5974  3.3418  3.2614  3.2614  3.1669
  1.8032  2.8720  2.8720  2.9572  2.9127  2.1514  2.1514  2.1413  2.8324  2.7779
  2.7779  2.2506  2.2910  2.4178  2.4178  2.5618  2.5618  2.6689  2.6689  2.5884
  2.5884  2.6001  2.4020  2.4311  2.5172  2.5172  2.4854

 Free energy of the ion-electron system (eV)
  ---------------------------------------------------
  alpha Z        PSCENC =         0.24798131
  Ewald energy   TEWEN  =       130.10778322
  -Hartree energ DENC   =      -285.61604082
  -exchange      EXHF   =         0.00000000
  -V(xc)+E(xc)   XCENC  =        24.84956084
  PAW double counting   =       490.46394811     -491.26140560
  entropy T*S    EENTRO =         0.01235442
  eigenvalues    EBANDS =       -89.83547353
  atomic energy  EATOM  =       197.04175453
  Solvation  Ediel_sol  =         0.00000000
  ---------------------------------------------------
  free energy    TOTEN  =       -23.98953750 eV

  energy without entropy =      -24.00189193  energy(sigma->0) =      -23.99365564


--------------------------------------------------------------------------------------------------------




--------------------------------------- Iteration     10(  13)  ---------------------------------------


    POTLOK:  cpu time    2.0180: real time    2.0230
    SETDIJ:  cpu time    0.0065: real time    0.0065
    EDDIAG:  cpu time    0.5645: real time    0.5658
  RMM-DIIS:  cpu time    1.6215: real time    1.6261
    ORTHCH:  cpu time    0.0117: real time    0.0117
       DOS:  cpu time    0.0002: real time    0.0002
    CHARGE:  cpu time    0.2198: real time    0.2204
    MIXING:  cpu time    0.1564: real time    0.1568
    --------------------------------------------
      LOOP:  cpu time    4.5986: real time    4.6106

 eigenvalue-minimisations  :    48
 total energy-change (2. order) :-0.1377962E-05  (-0.2238451E-07)
 number of electron       7.9999999 magnetization 
 augmentation part        0.1885846 magnetization 

 Broyden mixing:
  rms(total) = 0.14703E-04    rms(broyden)= 0.14701E-04
  rms(prec ) = 0.20270E-04
  weight for this iteration     100.00

 eigenvalues of (default mixing * dielectric matrix)
  average eigenvalue GAMMA=   2.6784
  6.3920  5.9318  5.4491  5.1140  4.4339  3.7483  3.7483  0.9538  1.0153  1.0153
  1.1943  1.2672  1.9070  1.9070  1.3615  1.5375  1.5375  1.7872  3.2845  3.2845
  2.0359  2.0359  3.1344  2.1348  2.9452  2.9452  2.9893  2.3221  2.3221  2.3004
  2.3004  2.5461  2.5461  2.8009  2.8009  2.7374  2.7374  2.6183  2.6183  2.3941
  2.3941  2.6908  2.6145  2.6145  2.4624  2.5227  2.5227  2.6045

 Free energy of the ion-electron system (eV)
  ---------------------------------------------------
  alpha Z        PSCENC =         0.24798131
  Ewald energy   TEWEN  =       130.10778322
  -Hartree energ DENC   =      -285.61294757
  -exchange      EXHF   =         0.00000000
  -V(xc)+E(xc)   XCENC  =        24.84945798
  PAW double counting   =       490.49378071     -491.29118973
  entropy T*S    EENTRO =         0.01235505
  eigenvalues    EBANDS =       -89.83851437
  atomic energy  EATOM  =       197.04175453
  Solvation  Ediel_sol  =         0.00000000
  ---------------------------------------------------
  free energy    TOTEN  =       -23.98953888 eV

  energy without entropy =      -24.00189393  energy(sigma->0) =      -23.99365723


--------------------------------------------------------------------------------------------------------




--------------------------------------- Iteration     10(  14)  ---------------------------------------


    POTLOK:  cpu time    2.0682: real time    2.0738
    SETDIJ:  cpu time    0.0065: real time    0.0065
    EDDIAG:  cpu time    0.6545: real time    0.6571
  RMM-DIIS:  cpu time    1.4104: real time    1.4138
    ORTHCH:  cpu time    0.0217: real time    0.0217
       DOS:  cpu time    0.0003: real time    0.0003
    --------------------------------------------
      LOOP:  cpu time    4.1617: real time    4.1733

 eigenvalue-minimisations  :    32
 total energy-change (2. order) :-0.5081229E-06  ( 0.0000000E+00)
 number of electron       7.9999999 magnetization 
 augmentation part        0.1885846 magnetization 

 Free energy of the ion-electron system (eV)
  ---------------------------------------------------
  alpha Z        PSCENC =         0.24798131
  Ewald energy   TEWEN  =       130.10778322
  -Hartree energ DENC   =      -285.61359769
  -exchange      EXHF   =         0.00000000
  -V(xc)+E(xc)   XCENC  =        24.84947796
  PAW double counting   =       490.49165852     -491.28907814
  entropy T*S    EENTRO =         0.01235532
  eigenvalues    EBANDS =       -89.83787442
  atomic energy  EATOM  =       197.04175453
  Solvation  Ediel_sol  =         0.00000000
  ---------------------------------------------------
  free energy    TOTEN  =       -23.98953939 eV

  energy without entropy =      -24.00189471  energy(sigma->0) =      -23.99365783


--------------------------------------------------------------------------------------------------------




 average (electrostatic) potential at core
  the test charge radii are     0.5201  0.6991
  (the norm of the test charge is              1.0000)
       1 -41.7932       2 -41.4800       3 -41.4721       4 -41.4914       5 -57.8994



 E-fermi :  -8.8875     XC(G=0):  -0.7136     alpha+bet : -0.2157


 k-point     1 :       0.2500    0.2500    0.2500
  band No.  band energies     occupation 
      1     -16.9651      2.00000
      2      -9.5003      2.00013
      3      -9.3979      2.00183
      4      -9.0549      1.99780
      5      -0.3003      0.00000
      6       0.5757      0.00000
      7       0.6810      0.00000
      8       0.7093      0.00000

 k-point     2 :      -0.2500    0.2500    0.2500
  band No.  band energies     occupation 
      1     -16.9652      2.00000
      2      -9.5005      2.00013
      3      -9.3982      2.00182
      4      -9.0550      1.99808
      5      -0.3097      0.00000
      6       0.5999      0.00000
      7       0.6959      0.00000
      8       0.7238      0.00000

 k-point     3 :       0.2500   -0.2500    0.2500
  band No.  band energies     occupation 
      1     -16.9651      2.00000
      2      -9.5004      2.00013
      3      -9.3981      2.00182
      4      -9.0551      1.99826
      5      -0.2977      0.00000
      6       0.5588      0.00000
      7       0.6761      0.00000
      8       0.7075      0.00000

 k-point     4 :      -0.2500   -0.2500    0.2500
  band No.  band energies     occupation 
      1     -16.9652      2.00000
      2      -9.5004      2.00013
      3      -9.3981      2.00182
      4      -9.0550      1.99805
      5      -0.2998      0.00000
      6       0.5716      0.00000
      7       0.6845      0.00000
      8       0.7040      0.00000


--------------------------------------------------------------------------------------------------------


 soft charge-density along one line, spin component           1
         0         1         2         3         4         5         6         7         8         9
 total charge-density along one line

 pseudopotential strength for first ion, spin component:           1
 -2.343  -4.038  -0.001  -0.002   0.001
 -4.038  -6.874  -0.003  -0.005   0.002
 -0.001  -0.003  -0.335   0.002  -0.001
 -0.002  -0.005   0.002  -0.333  -0.002
  0.001   0.002  -0.001  -0.002  -0.336
 total augmentation occupancy for first ion, spin component:           1
  3.498  -0.586   0.266   0.410  -0.181
 -0.586   0.113  -0.046  -0.069   0.031
  0.266  -0.046   0.029   0.027  -0.011
  0.410  -0.069   0.027   0.052  -0.018
 -0.181   0.031  -0.011  -0.018   0.019


------------------------ aborting loop because EDIFF is reached ----------------------------------------


    CHARGE:  cpu time    0.2508: real time    0.2514
    FORLOC:  cpu time    0.1929: real time    0.1933
    FORNL :  cpu time    0.8705: real time    0.8726
    STRESS:  cpu time    2.7427: real time    2.7979
    FORCOR:  cpu time    1.9503: real time    1.9586
    FORHAR:  cpu time    0.7119: real time    0.7137
    MIXING:  cpu time    0.1814: real time    0.1818
    OFIELD:  cpu time    0.0000: real time    0.0000

  FORCE on cell =-STRESS in cart. coord.  units (eV):
  Direction    XX          YY          ZZ          XY          YZ          ZX
  --------------------------------------------------------------------------------------
  Alpha Z     0.24798     0.24798     0.24798
  Ewald      48.28442    36.38244    45.44088     0.07000     1.16897     0.58539
  Hartree    98.56024    92.54947    94.50384     0.03028     0.25227     0.23146
  E(xc)     -27.31003   -27.35665   -27.31348     0.00508    -0.00332     0.01075
  Local    -205.25104  -188.61038  -197.74886    -0.15145    -1.00898    -0.89274
  n-local   -15.82271   -15.65743   -15.92304    -0.30789    -0.23601     0.69500
  augment     0.11290     0.11962     0.10480     0.00068    -0.00508     0.00252
  Kinetic   100.93442   103.43746   101.15940    -0.17199     0.22955    -0.55067
  Fock        0.00000     0.00000     0.00000     0.00000     0.00000     0.00000
  -------------------------------------------------------------------------------------
  Total      -0.24383     1.11252     0.47151    -0.52529     0.39740     0.08171
  in kB      -0.39990     1.82461     0.77331    -0.86152     0.65176     0.13401
  external pressure =        0.73 kB  Pullay stress =        0.00 kB

  kinetic pressure (ideal gas correction) =      0.11 kB
  total pressure  =      0.84 kB
  Total+kin.    -0.252       1.861       0.911      -0.822       0.661       0.137

 VOLUME and BASIS-vectors are now :
 -----------------------------------------------------------------------------
  energy-cutoff  :      400.00
  volume of cell :      976.89
      direct lattice vectors                 reciprocal lattice vectors
     9.735728665  0.000000000  0.000000000     0.102714448  0.001699688  0.002477457
    -0.165567447 10.005462347  0.000000000     0.000000000  0.099945406 -0.002840980
    -0.246605657  0.285066373 10.028607405     0.000000000 -0.000000000  0.099714742

  length of vectors
     9.735728665 10.006832134 10.035688500     0.102758380  0.099985776  0.099714742


 FORCES acting on ions
    electron-ion (+dipol)            ewald-force                    non-local-force                 convergence-correction
 -----------------------------------------------------------------------------------------------
   -.196E+02 0.271E+02 0.433E+02   0.222E+02 -.309E+02 -.491E+02   -.202E+01 0.263E+01 0.479E+01   -.682E-05 0.769E-05 0.110E-04
   0.524E+02 -.482E+01 0.433E+01   -.576E+02 0.532E+01 -.465E+01   0.591E+01 -.154E+00 0.267E-01   0.180E-04 0.786E-05 0.670E-05
   -.232E+02 -.480E+02 0.904E+00   0.256E+02 0.533E+02 -.988E+00   -.227E+01 -.451E+01 -.113E+00   -.164E-04 -.846E-05 0.217E-05
   -.142E+02 0.225E+02 -.458E+02   0.156E+02 -.249E+02 0.504E+02   -.734E+00 0.160E+01 -.428E+01   -.997E-05 0.926E-05 -.123E-04
   0.516E+01 0.286E+01 -.368E+01   -.574E+01 -.287E+01 0.433E+01   -.532E+00 0.229E+01 0.789E+00   -.706E-04 0.159E-04 0.104E-04
 -----------------------------------------------------------------------------------------------
   0.525E+00 -.447E+00 -.921E+00   0.178E-14 -.355E-14 0.711E-14   0.361E+00 0.186E+01 0.121E+01   -.858E-04 0.323E-04 0.180E-04


 POSITION                                       TOTAL-FORCE (eV/Angst)
 -----------------------------------------------------------------------------------
      5.09443      4.27827      3.62055         0.623396     -1.201507     -0.980585
      3.61862      4.90126      4.36816         0.650634      0.347529     -0.296452
      5.18768      5.77681      4.44024         0.097354      0.829544     -0.196788
      5.01147      4.33522      5.41100         0.627782     -0.839947      0.322959
      4.70944      4.79559      4.46075        -1.112941      2.275222      1.440992
 -----------------------------------------------------------------------------------
    total drift:                                0.886227      1.410841      0.290126


--------------------------------------------------------------------------------------------------------



  FREE ENERGIE OF THE ION-ELECTRON SYSTEM (eV)
  ---------------------------------------------------
  free  energy   TOTEN  =       -23.98953939 eV

  energy  without entropy=      -24.00189471  energy(sigma->0) =      -23.99365783

 d Force = 0.4449179E-01[-0.861E-01, 0.175E+00]  d Energy = 0.2897499E-01 0.155E-01
 d Force =-0.1728694E+01[-0.192E+01,-0.153E+01]  d Ewald  =-0.1728575E+01-0.119E-03


--------------------------------------------------------------------------------------------------------


    POTLOK:  cpu time    1.9876: real time    1.9932


--------------------------------------------------------------------------------------------------------


           RANDOM_SEED =         578495887               30                0
   IONSTEP:  cpu time    0.0001: real time    0.0001

  ENERGY OF THE ELECTRON-ION-THERMOSTAT SYSTEM (eV)
  ---------------------------------------------------
% ion-electron   TOTEN  =       -23.989539  see above
  kinetic energy EKIN   =         0.073252
  kin. lattice  EKIN_LAT=         0.000000  (temperature  141.67 K)
  nose potential ES     =         0.031512
  nose kinetic   EPS    =         0.036960
  ---------------------------------------------------
  total energy   ETOTAL =       -23.847815 eV

  maximum distance moved by ions :      0.63E-02


 mean value of Nose-termostat <S>:     2.121 mean value of <T> :   141.675
 mean temperature <T/S>/<1/S>  :   141.675

    WAVPRE:  cpu time    0.5538: real time    0.5615
    FEWALD:  cpu time    0.0004: real time    0.0003
    ORTHCH:  cpu time    0.3143: real time    0.3151
 Prediction of Wavefunctions ALPHA= 0.527 BETA=-0.184
    POTLOK:  cpu time    1.9675: real time    1.9722
    EDDIAG:  cpu time    0.6838: real time    0.6854
     LOOP+:  cpu time   81.2054: real time   82.2736
    4ORBIT:  cpu time    0.0000: real time    0.0000

 total amount of memory used by VASP MPI-rank0   298628. kBytes
=======================================================================

   base      :      30000. kBytes
   nonlr-proj:        157. kBytes
   fftplans  :      86584. kBytes
   grid      :     154542. kBytes
   one-center:         15. kBytes
   wavefun   :      27330. kBytes

  
  
 General timing and accounting informations for this job:
 ========================================================
  
                  Total CPU time used (sec):      688.071
                            User time (sec):      675.415
                          System time (sec):       12.655
                         Elapsed time (sec):      691.840
  
                   Maximum memory used (kb):      463300.
                   Average memory used (kb):           0.
  
                          Minor page faults:      2047711
                          Major page faults:            0
                 Voluntary context switches:          394
