<?xml version="1.0" encoding="ISO-8859-1"?>
<modeling>
 <generator>
  <i name="program" type="string">vasp </i>
  <i name="version" type="string">5.4.4.18Apr17-6-g9f103f2a35  </i>
  <i name="subversion" type="string">(build Jul 12 2018 13:43:46) complex            parallel </i>
  <i name="platform" type="string">LinuxGNU </i>
  <i name="date" type="string">2019 06 22 </i>
  <i name="time" type="string">02:17:35 </i>
 </generator>
 <incar>
  <i type="int" name="ISTART">     0</i>
  <i type="string" name="PREC">a</i>
  <i type="string" name="ALGO">fast</i>
  <i type="int" name="MAXMIX">    50</i>
  <i type="int" name="ICHARG">     2</i>
  <i type="int" name="IBRION">     0</i>
  <i name="EDIFF">      0.00000100</i>
  <i type="int" name="NSW">    10</i>
  <i type="int" name="ISIF">     2</i>
  <i type="int" name="ISYM">     0</i>
  <i type="int" name="NBLOCK">     1</i>
  <i type="int" name="KBLOCK">   100</i>
  <i name="ENCUT">    400.00000000</i>
  <i name="POTIM">      2.00000000</i>
  <i name="TEBEG">     50.00000000</i>
  <i name="TEEND">     50.00000000</i>
  <i name="SMASS">      0.00000000</i>
  <i type="logical" name="LREAL"> T  </i>
  <i type="int" name="ISMEAR">     1</i>
  <i name="SIGMA">      0.20000000</i>
  <i name="KSPACING">      0.50000000</i>
  <i type="logical" name="KGAMMA"> F  </i>
  <i name="PSTRESS">      0.00000000</i>
  <i type="logical" name="LWAVE"> F  </i>
  <i type="logical" name="LCHARG"> F  </i>
  <v type="int" name="KPOINT_BSE">    -1     0     0     0</v>
 </incar>
 <structure name="primitive_cell" >
  <crystal>
   <varray name="basis" >
    <v>       9.73572866       0.00000000       0.00000000 </v>
    <v>      -0.16556745      10.00546235       0.00000000 </v>
    <v>      -0.24660566       0.28506637      10.02860740 </v>
   </varray>
   <i name="volume">    976.89132638 </i>
   <varray name="rec_basis" >
    <v>       0.10271445       0.00169969       0.00247746 </v>
    <v>       0.00000000       0.09994541      -0.00284098 </v>
    <v>       0.00000000      -0.00000000       0.09971474 </v>
   </varray>
  </crystal>
  <varray name="positions" >
   <v>      -0.46186248       0.40660902       0.36037898 </v>
   <v>      -0.49654052       0.46732647       0.44467401 </v>
   <v>       0.39496579       0.48035953       0.43834041 </v>
   <v>      -0.47179142       0.41639857      -0.46079288 </v>
   <v>      -0.44813224      -0.43438354       0.44252365 </v>
  </varray>
 </structure>
 <varray name="primitive_index" >
  <v type="int" >        1 </v>
  <v type="int" >        5 </v>
  <v type="int" >        2 </v>
  <v type="int" >        4 </v>
  <v type="int" >        3 </v>
 </varray>
 <kpoints>
  <generation param="Monkhorst-Pack">
   <v type="int" name="divisions">       2        2        2 </v>
   <v name="usershift">      0.00000000       0.00000000       0.00000000 </v>
   <v name="genvec1">      0.50000000       0.00000000       0.00000000 </v>
   <v name="genvec2">      0.00000000       0.50000000       0.00000000 </v>
   <v name="genvec3">      0.00000000       0.00000000       0.50000000 </v>
   <v name="shift">      0.50000000       0.50000000       0.50000000 </v>
  </generation>
  <varray name="kpointlist" >
   <v>       0.25000000       0.25000000       0.25000000 </v>
   <v>      -0.25000000       0.25000000       0.25000000 </v>
   <v>       0.25000000      -0.25000000       0.25000000 </v>
   <v>      -0.25000000      -0.25000000       0.25000000 </v>
  </varray>
  <varray name="weights" >
   <v>       0.25000000 </v>
   <v>       0.25000000 </v>
   <v>       0.25000000 </v>
   <v>       0.25000000 </v>
  </varray>
 </kpoints>
 <parameters>
  <separator name="general" >
   <i type="string" name="SYSTEM">unknown system</i>
   <i type="logical" name="LCOMPAT"> F  </i>
  </separator>
  <separator name="electronic" >
   <i type="string" name="PREC">a</i>
   <i name="ENMAX">    400.00000000</i>
   <i name="ENAUG">    644.87300000</i>
   <i name="EDIFF">      0.00000100</i>
   <i type="int" name="IALGO">    68</i>
   <i type="int" name="IWAVPR">    12</i>
   <i type="int" name="NBANDS">     8</i>
   <i name="NELECT">      8.00000000</i>
   <i type="int" name="TURBO">     0</i>
   <i type="int" name="IRESTART">     0</i>
   <i type="int" name="NREBOOT">     0</i>
   <i type="int" name="NMIN">     0</i>
   <i name="EREF">      0.00000000</i>
   <separator name="electronic smearing" >
    <i type="int" name="ISMEAR">     1</i>
    <i name="SIGMA">      0.20000000</i>
    <i name="KSPACING">      0.50000000</i>
    <i type="logical" name="KGAMMA"> F  </i>
   </separator>
   <separator name="electronic projectors" >
    <i type="logical" name="LREAL"> T  </i>
    <v name="ROPT">      0.00000000      0.00000000</v>
    <i type="int" name="LMAXPAW">  -100</i>
    <i type="int" name="LMAXMIX">     2</i>
    <i type="logical" name="NLSPLINE"> F  </i>
   </separator>
   <separator name="electronic startup" >
    <i type="int" name="ISTART">     0</i>
    <i type="int" name="ICHARG">     2</i>
    <i type="int" name="INIWAV">     1</i>
   </separator>
   <separator name="electronic spin" >
    <i type="int" name="ISPIN">     1</i>
    <i type="logical" name="LNONCOLLINEAR"> F  </i>
    <v name="MAGMOM">      1.00000000      1.00000000      1.00000000      1.00000000      1.00000000</v>
    <i name="NUPDOWN">     -1.00000000</i>
    <i type="logical" name="LSORBIT"> F  </i>
    <v name="SAXIS">      0.00000000      0.00000000      1.00000000</v>
    <i type="logical" name="LSPIRAL"> F  </i>
    <v name="QSPIRAL">      0.00000000      0.00000000      0.00000000</v>
    <i type="logical" name="LZEROZ"> F  </i>
   </separator>
   <separator name="electronic exchange-correlation" >
    <i type="logical" name="LASPH"> F  </i>
    <i type="logical" name="LMETAGGA"> F  </i>
   </separator>
   <separator name="electronic convergence" >
    <i type="int" name="NELM">    60</i>
    <i type="int" name="NELMDL">    -5</i>
    <i type="int" name="NELMIN">     2</i>
    <i name="ENINI">    400.00000000</i>
    <separator name="electronic convergence detail" >
     <i type="logical" name="LDIAG"> T  </i>
     <i type="logical" name="LSUBROT"> F  </i>
     <i name="WEIMIN">      0.00100000</i>
     <i name="EBREAK">      0.00000003</i>
     <i name="DEPER">      0.30000000</i>
     <i type="int" name="NRMM">     4</i>
     <i name="TIME">      0.40000000</i>
    </separator>
   </separator>
   <separator name="electronic mixer" >
    <i name="AMIX">      0.40000000</i>
    <i name="BMIX">      1.00000000</i>
    <i name="AMIN">      0.10000000</i>
    <i name="AMIX_MAG">      1.60000000</i>
    <i name="BMIX_MAG">      1.00000000</i>
    <separator name="electronic mixer details" >
     <i type="int" name="IMIX">     4</i>
     <i type="logical" name="MIXFIRST"> F  </i>
     <i type="int" name="MAXMIX">    50</i>
     <i name="WC">    100.00000000</i>
     <i type="int" name="INIMIX">     1</i>
     <i type="int" name="MIXPRE">     1</i>
     <i type="int" name="MREMOVE">     5</i>
    </separator>
   </separator>
   <separator name="electronic dipolcorrection" >
    <i type="logical" name="LDIPOL"> F  </i>
    <i type="logical" name="LMONO"> F  </i>
    <i type="int" name="IDIPOL">     0</i>
    <i name="EPSILON">      1.00000000</i>
    <v name="DIPOL">   -100.00000000   -100.00000000   -100.00000000</v>
    <i name="EFIELD">      0.00000000</i>
   </separator>
  </separator>
  <separator name="grids" >
   <i type="int" name="NGX">    64</i>
   <i type="int" name="NGY">    70</i>
   <i type="int" name="NGZ">    70</i>
   <i type="int" name="NGXF">   128</i>
   <i type="int" name="NGYF">   140</i>
   <i type="int" name="NGZF">   140</i>
   <i type="logical" name="ADDGRID"> F  </i>
  </separator>
  <separator name="ionic" >
   <i type="int" name="NSW">    10</i>
   <i type="int" name="IBRION">     0</i>
   <i type="int" name="MDALGO">     0</i>
   <i type="int" name="ISIF">     2</i>
   <i name="PSTRESS">      0.00000000</i>
   <i name="EDIFFG">      0.00001000</i>
   <i type="int" name="NFREE">     0</i>
   <i name="POTIM">      2.00000000</i>
   <i name="SMASS">      0.00170648</i>
   <i name="SCALEE">      1.00000000</i>
  </separator>
  <separator name="ionic md" >
   <i name="TEBEG">     50.00000000</i>
   <i name="TEEND">     50.00000000</i>
   <i type="int" name="NBLOCK">     1</i>
   <i type="int" name="KBLOCK">     1</i>
   <i type="int" name="NPACO">   256</i>
   <i name="APACO">     16.00000000</i>
  </separator>
  <separator name="symmetry" >
   <i type="int" name="ISYM">     0</i>
   <i name="SYMPREC">      0.00001000</i>
  </separator>
  <separator name="dos" >
   <i type="int" name="LORBIT">     0</i>
   <v name="RWIGS">     -1.00000000     -1.00000000</v>
   <i type="int" name="NEDOS">   301</i>
   <i name="EMIN">     10.00000000</i>
   <i name="EMAX">    -10.00000000</i>
   <i name="EFERMI">      0.00000000</i>
  </separator>
  <separator name="writing" >
   <i type="int" name="NWRITE">     2</i>
   <i type="logical" name="LWAVE"> F  </i>
   <i type="logical" name="LDOWNSAMPLE"> F  </i>
   <i type="logical" name="LCHARG"> F  </i>
   <i type="logical" name="LPARD"> F  </i>
   <i type="logical" name="LVTOT"> F  </i>
   <i type="logical" name="LVHAR"> F  </i>
   <i type="logical" name="LELF"> F  </i>
   <i type="logical" name="LOPTICS"> F  </i>
   <v name="STM">      0.00000000      0.00000000      0.00000000      0.00000000      0.00000000      0.00000000      0.00000000</v>
  </separator>
  <separator name="performance" >
   <i type="int" name="NPAR">     1</i>
   <i type="int" name="NSIM">     4</i>
   <i type="int" name="NBLK">    -1</i>
   <i type="logical" name="LPLANE"> T  </i>
   <i type="logical" name="LSCALAPACK"> T  </i>
   <i type="logical" name="LSCAAWARE"> F  </i>
   <i type="logical" name="LSCALU"> F  </i>
   <i type="logical" name="LASYNC"> F  </i>
   <i type="logical" name="LORBITALREAL"> F  </i>
  </separator>
  <separator name="miscellaneous" >
   <i type="int" name="IDIOT">     3</i>
   <i type="int" name="ISPECIAL">     0</i>
   <i type="logical" name="LMUSIC"> F  </i>
   <v name="POMASS">      1.00000000     12.01100000</v>
   <v name="DARWINR">      0.00000000      0.00000000</v>
   <v name="DARWINV">      1.00000000      1.00000000</v>
   <i type="logical" name="LCORR"> T  </i>
  </separator>
  <i type="logical" name="GGA_COMPAT"> T  </i>
  <i type="logical" name="LBERRY"> F  </i>
  <i type="int" name="ICORELEVEL">     0</i>
  <i type="logical" name="LDAU"> F  </i>
  <i type="int" name="I_CONSTRAINED_M">     0</i>
  <separator name="electronic exchange-correlation" >
   <i type="string" name="GGA">--</i>
   <i type="int" name="VOSKOWN">     0</i>
   <i type="logical" name="LHFCALC"> F  </i>
   <i type="string" name="PRECFOCK"></i>
   <i type="logical" name="LSYMGRAD"> F  </i>
   <i type="logical" name="LHFONE"> F  </i>
   <i type="logical" name="LRHFCALC"> F  </i>
   <i type="logical" name="LTHOMAS"> F  </i>
   <i type="logical" name="LMODELHF"> F  </i>
   <i name="ENCUT4O">     -1.00000000</i>
   <i type="int" name="EXXOEP">     0</i>
   <i type="int" name="FOURORBIT">     0</i>
   <i name="AEXX">      0.00000000</i>
   <i name="HFALPHA">      0.00000000</i>
   <i name="MCALPHA">      0.00000000</i>
   <i name="ALDAX">      1.00000000</i>
   <i name="AGGAX">      1.00000000</i>
   <i name="ALDAC">      1.00000000</i>
   <i name="AGGAC">      1.00000000</i>
   <i type="int" name="NKREDX">     1</i>
   <i type="int" name="NKREDY">     1</i>
   <i type="int" name="NKREDZ">     1</i>
   <i type="logical" name="SHIFTRED"> F  </i>
   <i type="logical" name="ODDONLY"> F  </i>
   <i type="logical" name="EVENONLY"> F  </i>
   <i type="int" name="LMAXFOCK">     0</i>
   <i type="int" name="NMAXFOCKAE">     0</i>
   <i type="logical" name="LFOCKAEDFT"> F  </i>
   <i name="HFSCREEN">      0.00000000</i>
   <i name="HFSCREENC">      0.00000000</i>
   <i type="int" name="NBANDSGWLOW">     0</i>
  </separator>
  <separator name="vdW DFT" >
   <i type="logical" name="LUSE_VDW"> F  </i>
   <i name="Zab_VDW">     -0.84910000</i>
   <i name="PARAM1">      0.12340000</i>
   <i name="PARAM2">      1.00000000</i>
   <i name="PARAM3">      0.00000000</i>
  </separator>
  <separator name="model GW" >
   <i type="int" name="MODEL_GW">     0</i>
   <i name="MODEL_EPS0">    117.22695917</i>
   <i name="MODEL_ALPHA">      1.00000000</i>
  </separator>
  <separator name="linear response parameters" >
   <i type="logical" name="LEPSILON"> F  </i>
   <i type="logical" name="LRPA"> F  </i>
   <i type="logical" name="LNABLA"> F  </i>
   <i type="logical" name="LVEL"> F  </i>
   <i type="int" name="KINTER">     0</i>
   <i name="CSHIFT">      0.10000000</i>
   <i name="OMEGAMAX">     -1.00000000</i>
   <i name="DEG_THRESHOLD">      0.00200000</i>
   <i name="RTIME">     -0.10000000</i>
   <i name="WPLASMAI">      0.00000000</i>
   <v name="DFIELD">      0.00000000      0.00000000      0.00000000</v>
   <v name="WPLASMA">      0.00000000      0.00000000      0.00000000      0.00000000      0.00000000      0.00000000      0.00000000      0.00000000      0.00000000</v>
  </separator>
  <separator name="orbital magnetization" >
   <i type="logical" name="NUCIND"> F  </i>
   <v name="MAGPOS">      0.00000000      0.00000000      0.00000000</v>
   <i type="logical" name="LNICSALL"> T  </i>
   <i type="logical" name="ORBITALMAG"> F  </i>
   <i type="logical" name="LMAGBLOCH"> F  </i>
   <i type="logical" name="LCHIMAG"> F  </i>
   <i type="logical" name="LGAUGE"> T  </i>
   <i type="int" name="MAGATOM">     0</i>
   <v name="MAGDIPOL">      0.00000000      0.00000000      0.00000000</v>
   <v name="AVECCONST">      0.00000000      0.00000000      0.00000000</v>
  </separator>
  <separator name="response functions" >
   <i type="logical" name="LADDER"> F  </i>
   <i type="logical" name="LRPAFORCE"> F  </i>
   <i type="logical" name="LFXC"> F  </i>
   <i type="logical" name="LHARTREE"> T  </i>
   <i type="int" name="IBSE">     0</i>
   <v type="int" name="KPOINT">    -1     0     0     0</v>
   <i type="logical" name="LTCTE"> F  </i>
   <i type="logical" name="LTETE"> F  </i>
   <i type="logical" name="LTRIPLET"> F  </i>
   <i type="logical" name="LFXCEPS"> F  </i>
   <i type="logical" name="LFXHEG"> F  </i>
   <i type="int" name="NATURALO">     2</i>
   <i type="logical" name="L2ORDER"> F  </i>
   <i type="logical" name="LMP2LT"> F  </i>
   <i type="logical" name="LUSEW"> F  </i>
   <i name="ENCUTGW">     -2.00000000</i>
   <i name="ENCUTGWSOFT">     -2.00000000</i>
   <i name="ENCUTLF">     -1.00000000</i>
   <i type="int" name="LMAXMP2">    -1</i>
   <i name="SCISSOR">      0.00000000</i>
   <i type="int" name="NOMEGA">     0</i>
   <i type="int" name="NOMEGAR">     0</i>
   <i type="int" name="NBANDSGW">    -1</i>
   <i type="int" name="NBANDSO">    -1</i>
   <i type="int" name="NBANDSV">    -1</i>
   <i type="int" name="NELM">     1</i>
   <i type="int" name="NELMHF">     1</i>
   <i type="int" name="DIM">     3</i>
   <i type="int" name="ANTIRES">     0</i>
   <i name="OMEGAMAX">    -30.00000000</i>
   <i name="OMEGAMIN">    -30.00000000</i>
   <i name="OMEGATL">   -200.00000000</i>
   <i type="int" name="OMEGAGRID">   140</i>
   <i name="CSHIFT">     -0.10000000</i>
   <i type="logical" name="SELFENERGY"> F  </i>
   <i type="logical" name="LSPECTRAL"> F  </i>
   <i type="logical" name="LSPECTRALGW"> F  </i>
   <i type="logical" name="LSINGLES"> F  </i>
   <i type="logical" name="LFERMIGW"> F  </i>
   <i type="logical" name="ODDONLYGW"> F  </i>
   <i type="logical" name="EVENONLYGW"> F  </i>
   <i type="int" name="NKREDLFX">     1</i>
   <i type="int" name="NKREDLFY">     1</i>
   <i type="int" name="NKREDLFZ">     1</i>
   <i type="int" name="MAXMEM">  2800</i>
   <i type="int" name="TELESCOPE">     0</i>
   <i type="int" name="TAUPAR">     1</i>
   <i type="int" name="OMEGAPAR">    -1</i>
   <i name="LAMBDA">      1.00000000</i>
  </separator>
  <separator name="External order field" >
   <i name="OFIELD_KAPPA">      0.00000000</i>
   <v name="OFIELD_K">      0.00000000      0.00000000      0.00000000</v>
   <i name="OFIELD_Q6_NEAR">      0.00000000</i>
   <i name="OFIELD_Q6_FAR">      0.00000000</i>
   <i name="OFIELD_A">      0.00000000</i>
  </separator>
 </parameters>
 <atominfo>
  <atoms>       5 </atoms>
  <types>       2 </types>
  <array name="atoms" >
   <dimension dim="1">ion</dimension>
   <field type="string">element</field>
   <field type="int">atomtype</field>
   <set>
    <rc><c>H </c><c>   1</c></rc>
    <rc><c>H </c><c>   1</c></rc>
    <rc><c>H </c><c>   1</c></rc>
    <rc><c>H </c><c>   1</c></rc>
    <rc><c>C </c><c>   2</c></rc>
   </set>
  </array>
  <array name="atomtypes" >
   <dimension dim="1">type</dimension>
   <field type="int">atomspertype</field>
   <field type="string">element</field>
   <field>mass</field>
   <field>valence</field>
   <field type="string">pseudopotential</field>
   <set>
    <rc><c>   4</c><c>H </c><c>      1.00000000</c><c>      1.00000000</c><c>  PAW_PBE H 15Jun2001                   </c></rc>
    <rc><c>   1</c><c>C </c><c>     12.01100000</c><c>      4.00000000</c><c>  PAW_PBE C 08Apr2002                   </c></rc>
   </set>
  </array>
 </atominfo>
 <structure name="initialpos" >
  <crystal>
   <varray name="basis" >
    <v>       9.73572866       0.00000000       0.00000000 </v>
    <v>      -0.16556745      10.00546235       0.00000000 </v>
    <v>      -0.24660566       0.28506637      10.02860740 </v>
   </varray>
   <i name="volume">    976.89132638 </i>
   <varray name="rec_basis" >
    <v>       0.10271445       0.00169969       0.00247746 </v>
    <v>       0.00000000       0.09994541      -0.00284098 </v>
    <v>       0.00000000      -0.00000000       0.09971474 </v>
   </varray>
  </crystal>
  <varray name="positions" >
   <v>       0.53813752       0.40660902       0.36037898 </v>
   <v>       0.39496579       0.48035953       0.43834041 </v>
   <v>       0.55186776       0.56561646       0.44252365 </v>
   <v>       0.52820858       0.41639857       0.53920712 </v>
   <v>       0.50345948       0.46732647       0.44467401 </v>
  </varray>
  <varray name="velocities" >
   <v>      -0.00098127      -0.00052142      -0.00025331 </v>
   <v>      -0.00057794      -0.00066292       0.00143276 </v>
   <v>       0.00039089       0.00186254       0.00037627 </v>
   <v>      -0.00155250      -0.00240725      -0.00179637 </v>
   <v>       0.00022653       0.00014396       0.00002004 </v>
  </varray>
 </structure>
 <calculation>
  <scstep>
   <time name="dav">    2.81    2.82</time>
   <time name="total">    4.58    4.59</time>
   <energy>
    <i name="alphaZ">      0.24798131 </i>
    <i name="ewald">    129.70197277 </i>
    <i name="hartreedc">   -244.02730322 </i>
    <i name="XCdc">     22.05584919 </i>
    <i name="pawpsdc">    117.05815612 </i>
    <i name="pawaedc">   -117.66307307 </i>
    <i name="eentropy">     -0.01923820 </i>
    <i name="bandstr">    -82.25820371 </i>
    <i name="atom">    197.04175453 </i>
    <i name="e_fr_energy">     22.13789573 </i>
    <i name="e_wo_entrp">     22.15713392 </i>
    <i name="e_0_energy">     22.14430846 </i>
   </energy>
  </scstep>
  <scstep>
   <time name="dav">    2.38    2.39</time>
   <time name="total">    2.38    2.39</time>
   <energy>
    <i name="e_fr_energy">    -19.52111369 </i>
    <i name="e_wo_entrp">    -19.52401265 </i>
    <i name="e_0_energy">    -19.52208001 </i>
   </energy>
  </scstep>
  <scstep>
   <time name="dav">    2.17    2.17</time>
   <time name="total">    2.17    2.17</time>
   <energy>
    <i name="e_fr_energy">    -27.21687767 </i>
    <i name="e_wo_entrp">    -27.22488232 </i>
    <i name="e_0_energy">    -27.21954589 </i>
   </energy>
  </scstep>
  <scstep>
   <time name="dav">    3.45    3.46</time>
   <time name="total">    3.45    3.46</time>
   <energy>
    <i name="e_fr_energy">    -27.67071853 </i>
    <i name="e_wo_entrp">    -27.70127167 </i>
    <i name="e_0_energy">    -27.68090291 </i>
   </energy>
  </scstep>
  <scstep>
   <time name="dav">    3.19    3.19</time>
   <time name="total">    3.44    3.45</time>
   <energy>
    <i name="e_fr_energy">    -27.68061961 </i>
    <i name="e_wo_entrp">    -27.71106616 </i>
    <i name="e_0_energy">    -27.69076846 </i>
   </energy>
  </scstep>
  <scstep>
   <time name="diag">    0.47    0.47</time>
   <time name="diis">    1.62    1.63</time>
   <time name="orth">    0.01    0.01</time>
   <time name="total">    4.10    4.11</time>
   <energy>
    <i name="e_fr_energy">    -24.65978093 </i>
    <i name="e_wo_entrp">    -24.69730081 </i>
    <i name="e_0_energy">    -24.67228755 </i>
   </energy>
  </scstep>
  <scstep>
   <time name="diag">    0.48    0.48</time>
   <time name="diis">    1.59    1.59</time>
   <time name="orth">    0.01    0.01</time>
   <time name="total">    4.08    4.09</time>
   <energy>
    <i name="e_fr_energy">    -24.14898462 </i>
    <i name="e_wo_entrp">    -24.18592459 </i>
    <i name="e_0_energy">    -24.16129794 </i>
   </energy>
  </scstep>
  <scstep>
   <time name="diag">    0.49    0.49</time>
   <time name="diis">    1.54    1.54</time>
   <time name="orth">    0.01    0.01</time>
   <time name="total">    4.05    4.06</time>
   <energy>
    <i name="e_fr_energy">    -24.01551081 </i>
    <i name="e_wo_entrp">    -24.05545191 </i>
    <i name="e_0_energy">    -24.02882451 </i>
   </energy>
  </scstep>
  <scstep>
   <time name="diag">    0.50    0.50</time>
   <time name="diis">    1.52    1.52</time>
   <time name="orth">    0.01    0.01</time>
   <time name="total">    4.06    4.07</time>
   <energy>
    <i name="e_fr_energy">    -23.99809524 </i>
    <i name="e_wo_entrp">    -24.03576923 </i>
    <i name="e_0_energy">    -24.01065324 </i>
   </energy>
  </scstep>
  <scstep>
   <time name="diag">    0.49    0.49</time>
   <time name="diis">    1.52    1.53</time>
   <time name="orth">    0.01    0.01</time>
   <time name="total">    4.05    4.06</time>
   <energy>
    <i name="e_fr_energy">    -23.99458878 </i>
    <i name="e_wo_entrp">    -24.03096333 </i>
    <i name="e_0_energy">    -24.00671363 </i>
   </energy>
  </scstep>
  <scstep>
   <time name="diag">    0.50    0.50</time>
   <time name="diis">    1.55    1.55</time>
   <time name="orth">    0.01    0.01</time>
   <time name="total">    4.09    4.10</time>
   <energy>
    <i name="e_fr_energy">    -23.99380870 </i>
    <i name="e_wo_entrp">    -24.03011534 </i>
    <i name="e_0_energy">    -24.00591092 </i>
   </energy>
  </scstep>
  <scstep>
   <time name="diag">    0.51    0.52</time>
   <time name="diis">    1.56    1.56</time>
   <time name="orth">    0.01    0.01</time>
   <time name="total">    4.04    4.05</time>
   <energy>
    <i name="e_fr_energy">    -23.98998605 </i>
    <i name="e_wo_entrp">    -24.02708702 </i>
    <i name="e_0_energy">    -24.00235304 </i>
   </energy>
  </scstep>
  <scstep>
   <time name="diag">    0.52    0.52</time>
   <time name="diis">    1.54    1.54</time>
   <time name="orth">    0.01    0.01</time>
   <time name="total">    4.00    4.01</time>
   <energy>
    <i name="e_fr_energy">    -23.99208358 </i>
    <i name="e_wo_entrp">    -24.02843587 </i>
    <i name="e_0_energy">    -24.00420101 </i>
   </energy>
  </scstep>
  <scstep>
   <time name="diag">    0.52    0.52</time>
   <time name="diis">    1.55    1.55</time>
   <time name="orth">    0.01    0.01</time>
   <time name="total">    3.94    3.95</time>
   <energy>
    <i name="e_fr_energy">    -23.99713455 </i>
    <i name="e_wo_entrp">    -24.03349636 </i>
    <i name="e_0_energy">    -24.00925516 </i>
   </energy>
  </scstep>
  <scstep>
   <time name="diag">    0.50    0.50</time>
   <time name="diis">    1.57    1.57</time>
   <time name="orth">    0.01    0.01</time>
   <time name="total">    3.95    3.95</time>
   <energy>
    <i name="e_fr_energy">    -23.99972480 </i>
    <i name="e_wo_entrp">    -24.03634614 </i>
    <i name="e_0_energy">    -24.01193191 </i>
   </energy>
  </scstep>
  <scstep>
   <time name="diag">    0.50    0.50</time>
   <time name="diis">    1.61    1.61</time>
   <time name="orth">    0.01    0.01</time>
   <time name="total">    3.96    3.97</time>
   <energy>
    <i name="e_fr_energy">    -24.00067706 </i>
    <i name="e_wo_entrp">    -24.03704662 </i>
    <i name="e_0_energy">    -24.01280025 </i>
   </energy>
  </scstep>
  <scstep>
   <time name="diag">    0.50    0.50</time>
   <time name="diis">    1.64    1.65</time>
   <time name="orth">    0.01    0.01</time>
   <time name="total">    3.96    3.97</time>
   <energy>
    <i name="e_fr_energy">    -24.00182035 </i>
    <i name="e_wo_entrp">    -24.03812278 </i>
    <i name="e_0_energy">    -24.01392116 </i>
   </energy>
  </scstep>
  <scstep>
   <time name="diag">    0.51    0.51</time>
   <time name="diis">    1.60    1.60</time>
   <time name="orth">    0.01    0.01</time>
   <time name="total">    3.91    3.92</time>
   <energy>
    <i name="e_fr_energy">    -24.00186010 </i>
    <i name="e_wo_entrp">    -24.03822774 </i>
    <i name="e_0_energy">    -24.01398265 </i>
   </energy>
  </scstep>
  <scstep>
   <time name="diag">    0.51    0.51</time>
   <time name="diis">    1.59    1.60</time>
   <time name="orth">    0.01    0.01</time>
   <time name="total">    3.91    3.92</time>
   <energy>
    <i name="e_fr_energy">    -24.00202557 </i>
    <i name="e_wo_entrp">    -24.03842695 </i>
    <i name="e_0_energy">    -24.01415937 </i>
   </energy>
  </scstep>
  <scstep>
   <time name="diag">    0.49    0.49</time>
   <time name="diis">    1.54    1.54</time>
   <time name="orth">    0.01    0.01</time>
   <time name="total">    3.86    3.87</time>
   <energy>
    <i name="e_fr_energy">    -24.00207213 </i>
    <i name="e_wo_entrp">    -24.03844669 </i>
    <i name="e_0_energy">    -24.01419698 </i>
   </energy>
  </scstep>
  <scstep>
   <time name="diag">    0.51    0.51</time>
   <time name="diis">    1.26    1.26</time>
   <time name="orth">    0.01    0.01</time>
   <time name="total">    3.60    3.61</time>
   <energy>
    <i name="e_fr_energy">    -24.00208270 </i>
    <i name="e_wo_entrp">    -24.03844887 </i>
    <i name="e_0_energy">    -24.01420476 </i>
   </energy>
  </scstep>
  <scstep>
   <time name="diag">    0.48    0.48</time>
   <time name="diis">    1.16    1.16</time>
   <time name="orth">    0.01    0.01</time>
   <time name="total">    3.54    3.55</time>
   <energy>
    <i name="e_fr_energy">    -24.00208753 </i>
    <i name="e_wo_entrp">    -24.03845892 </i>
    <i name="e_0_energy">    -24.01421133 </i>
   </energy>
  </scstep>
  <scstep>
   <time name="diag">    0.47    0.47</time>
   <time name="diis">    1.12    1.13</time>
   <time name="orth">    0.01    0.01</time>
   <time name="total">    3.24    3.25</time>
   <energy>
    <i name="alphaZ">      0.24798131 </i>
    <i name="ewald">    129.70197277 </i>
    <i name="hartreedc">   -285.30520377 </i>
    <i name="XCdc">     24.83530442 </i>
    <i name="pawpsdc">    483.48788295 </i>
    <i name="pawaedc">   -484.28477168 </i>
    <i name="eentropy">      0.03637169 </i>
    <i name="bandstr">    -89.76338059 </i>
    <i name="atom">    197.04175453 </i>
    <i name="e_fr_energy">    -24.00208836 </i>
    <i name="e_wo_entrp">    -24.03846005 </i>
    <i name="e_0_energy">    -24.01421225 </i>
   </energy>
  </scstep>
  <structure>
   <crystal>
    <varray name="basis" >
     <v>       9.73572866       0.00000000       0.00000000 </v>
     <v>      -0.16556745      10.00546235       0.00000000 </v>
     <v>      -0.24660566       0.28506637      10.02860740 </v>
    </varray>
    <i name="volume">    976.89132638 </i>
    <varray name="rec_basis" >
     <v>       0.10271445       0.00169969       0.00247746 </v>
     <v>       0.00000000       0.09994541      -0.00284098 </v>
     <v>       0.00000000      -0.00000000       0.09971474 </v>
    </varray>
   </crystal>
   <varray name="positions" >
    <v>       0.53813752       0.40660902       0.36037898 </v>
    <v>       0.39496579       0.48035953       0.43834041 </v>
    <v>       0.55186776       0.56561646       0.44252365 </v>
    <v>       0.52820858       0.41639857       0.53920712 </v>
    <v>       0.50345948       0.46732647       0.44467401 </v>
   </varray>
  </structure>
  <varray name="forces" >
   <v>      -0.14950119       0.14748077       0.57109396 </v>
   <v>      -1.17158092       0.36909788       0.08690882 </v>
   <v>       0.53161350       0.62203821       0.12832248 </v>
   <v>      -0.70645628      -0.44118589       0.50091426 </v>
   <v>      -0.02103383       0.64293792      -0.11347137 </v>
  </varray>
  <varray name="stress" >
   <v>       2.11766478      -0.00794404       0.66379914 </v>
   <v>      -0.00794404       1.03979641      -1.28461214 </v>
   <v>       0.66379914      -1.28461214      -0.99213748 </v>
  </varray>
  <energy>
   <i name="e_fr_energy">    -24.00208836 </i>
   <i name="e_wo_entrp">    -24.01421225 </i>
   <i name="e_0_energy">      0.03637169 </i>
   <i name="kinetic">      0.05678534 </i>
   <i name="lattice kinetic">      0.00000000 </i>
   <i name="nosepot">      0.00000000 </i>
   <i name="nosekinetic">      0.00011501 </i>
   <i name="total">    -23.94518801 </i>
  </energy>
  <dos>
   <i name="efermi">     -9.13668991 </i>
   <total>
    <array>
     <dimension dim="1">gridpoints</dimension>
     <dimension dim="2">spin</dimension>
     <field>energy</field>
     <field>total</field>
     <field>integrated</field>
     <set>
      <set comment="spin 1">
       <r>   -18.9467     0.0000     0.0000 </r>
       <r>   -18.8745     0.0000     0.0000 </r>
       <r>   -18.8022     0.0000     0.0000 </r>
       <r>   -18.7300     0.0000     0.0000 </r>
       <r>   -18.6577     0.0000     0.0000 </r>
       <r>   -18.5854    -0.0000    -0.0000 </r>
       <r>   -18.5132    -0.0000    -0.0000 </r>
       <r>   -18.4409    -0.0000    -0.0000 </r>
       <r>   -18.3686    -0.0000    -0.0000 </r>
       <r>   -18.2964    -0.0000    -0.0000 </r>
       <r>   -18.2241    -0.0000    -0.0000 </r>
       <r>   -18.1518    -0.0000    -0.0000 </r>
       <r>   -18.0796    -0.0000    -0.0000 </r>
       <r>   -18.0073    -0.0000    -0.0000 </r>
       <r>   -17.9351    -0.0000    -0.0000 </r>
       <r>   -17.8628    -0.0000    -0.0000 </r>
       <r>   -17.7905    -0.0000    -0.0000 </r>
       <r>   -17.7183    -0.0000    -0.0000 </r>
       <r>   -17.6460    -0.0001    -0.0000 </r>
       <r>   -17.5737    -0.0011    -0.0001 </r>
       <r>   -17.5015    -0.0075    -0.0006 </r>
       <r>   -17.4292    -0.0383    -0.0034 </r>
       <r>   -17.3569    -0.1399    -0.0135 </r>
       <r>   -17.2847    -0.3388    -0.0380 </r>
       <r>   -17.2124    -0.4160    -0.0680 </r>
       <r>   -17.1401     0.3500    -0.0428 </r>
       <r>   -17.0679     2.7332     0.1548 </r>
       <r>   -16.9956     6.1548     0.5995 </r>
       <r>   -16.9234     8.2567     1.1962 </r>
       <r>   -16.8511     7.1888     1.7157 </r>
       <r>   -16.7788     3.9195     1.9989 </r>
       <r>   -16.7066     0.9938     2.0707 </r>
       <r>   -16.6343    -0.2918     2.0496 </r>
       <r>   -16.5620    -0.4058     2.0203 </r>
       <r>   -16.4898    -0.2018     2.0057 </r>
       <r>   -16.4175    -0.0631     2.0012 </r>
       <r>   -16.3452    -0.0138     2.0002 </r>
       <r>   -16.2730    -0.0022     2.0000 </r>
       <r>   -16.2007    -0.0003     2.0000 </r>
       <r>   -16.1285    -0.0000     2.0000 </r>
       <r>   -16.0562    -0.0000     2.0000 </r>
       <r>   -15.9839    -0.0000     2.0000 </r>
       <r>   -15.9117    -0.0000     2.0000 </r>
       <r>   -15.8394    -0.0000     2.0000 </r>
       <r>   -15.7671    -0.0000     2.0000 </r>
       <r>   -15.6949    -0.0000     2.0000 </r>
       <r>   -15.6226     0.0000     2.0000 </r>
       <r>   -15.5503     0.0000     2.0000 </r>
       <r>   -15.4781     0.0000     2.0000 </r>
       <r>   -15.4058     0.0000     2.0000 </r>
       <r>   -15.3336     0.0000     2.0000 </r>
       <r>   -15.2613     0.0000     2.0000 </r>
       <r>   -15.1890     0.0000     2.0000 </r>
       <r>   -15.1168     0.0000     2.0000 </r>
       <r>   -15.0445     0.0000     2.0000 </r>
       <r>   -14.9722     0.0000     2.0000 </r>
       <r>   -14.9000     0.0000     2.0000 </r>
       <r>   -14.8277     0.0000     2.0000 </r>
       <r>   -14.7554     0.0000     2.0000 </r>
       <r>   -14.6832     0.0000     2.0000 </r>
       <r>   -14.6109     0.0000     2.0000 </r>
       <r>   -14.5386     0.0000     2.0000 </r>
       <r>   -14.4664     0.0000     2.0000 </r>
       <r>   -14.3941     0.0000     2.0000 </r>
       <r>   -14.3219     0.0000     2.0000 </r>
       <r>   -14.2496     0.0000     2.0000 </r>
       <r>   -14.1773     0.0000     2.0000 </r>
       <r>   -14.1051     0.0000     2.0000 </r>
       <r>   -14.0328     0.0000     2.0000 </r>
       <r>   -13.9605     0.0000     2.0000 </r>
       <r>   -13.8883     0.0000     2.0000 </r>
       <r>   -13.8160     0.0000     2.0000 </r>
       <r>   -13.7437     0.0000     2.0000 </r>
       <r>   -13.6715     0.0000     2.0000 </r>
       <r>   -13.5992     0.0000     2.0000 </r>
       <r>   -13.5270     0.0000     2.0000 </r>
       <r>   -13.4547     0.0000     2.0000 </r>
       <r>   -13.3824     0.0000     2.0000 </r>
       <r>   -13.3102     0.0000     2.0000 </r>
       <r>   -13.2379     0.0000     2.0000 </r>
       <r>   -13.1656     0.0000     2.0000 </r>
       <r>   -13.0934     0.0000     2.0000 </r>
       <r>   -13.0211     0.0000     2.0000 </r>
       <r>   -12.9488     0.0000     2.0000 </r>
       <r>   -12.8766     0.0000     2.0000 </r>
       <r>   -12.8043     0.0000     2.0000 </r>
       <r>   -12.7321     0.0000     2.0000 </r>
       <r>   -12.6598     0.0000     2.0000 </r>
       <r>   -12.5875     0.0000     2.0000 </r>
       <r>   -12.5153     0.0000     2.0000 </r>
       <r>   -12.4430     0.0000     2.0000 </r>
       <r>   -12.3707     0.0000     2.0000 </r>
       <r>   -12.2985     0.0000     2.0000 </r>
       <r>   -12.2262     0.0000     2.0000 </r>
       <r>   -12.1539     0.0000     2.0000 </r>
       <r>   -12.0817     0.0000     2.0000 </r>
       <r>   -12.0094     0.0000     2.0000 </r>
       <r>   -11.9371     0.0000     2.0000 </r>
       <r>   -11.8649     0.0000     2.0000 </r>
       <r>   -11.7926     0.0000     2.0000 </r>
       <r>   -11.7204     0.0000     2.0000 </r>
       <r>   -11.6481     0.0000     2.0000 </r>
       <r>   -11.5758     0.0000     2.0000 </r>
       <r>   -11.5036     0.0000     2.0000 </r>
       <r>   -11.4313     0.0000     2.0000 </r>
       <r>   -11.3590     0.0000     2.0000 </r>
       <r>   -11.2868     0.0000     2.0000 </r>
       <r>   -11.2145     0.0000     2.0000 </r>
       <r>   -11.1422     0.0000     2.0000 </r>
       <r>   -11.0700     0.0000     2.0000 </r>
       <r>   -10.9977    -0.0000     2.0000 </r>
       <r>   -10.9255    -0.0000     2.0000 </r>
       <r>   -10.8532    -0.0000     2.0000 </r>
       <r>   -10.7809    -0.0000     2.0000 </r>
       <r>   -10.7087    -0.0000     2.0000 </r>
       <r>   -10.6364    -0.0000     2.0000 </r>
       <r>   -10.5641    -0.0000     2.0000 </r>
       <r>   -10.4919    -0.0000     2.0000 </r>
       <r>   -10.4196    -0.0000     2.0000 </r>
       <r>   -10.3473    -0.0000     2.0000 </r>
       <r>   -10.2751    -0.0000     2.0000 </r>
       <r>   -10.2028    -0.0000     2.0000 </r>
       <r>   -10.1306    -0.0000     2.0000 </r>
       <r>   -10.0583    -0.0001     2.0000 </r>
       <r>    -9.9860    -0.0010     1.9999 </r>
       <r>    -9.9138    -0.0080     1.9993 </r>
       <r>    -9.8415    -0.0470     1.9959 </r>
       <r>    -9.7692    -0.2025     1.9813 </r>
       <r>    -9.6970    -0.6116     1.9371 </r>
       <r>    -9.6247    -1.1548     1.8537 </r>
       <r>    -9.5524    -0.6766     1.8048 </r>
       <r>    -9.4802     3.2029     2.0362 </r>
       <r>    -9.4079    11.6546     2.8784 </r>
       <r>    -9.3356    20.9922     4.3954 </r>
       <r>    -9.2634    24.1734     6.1423 </r>
       <r>    -9.1911    18.3924     7.4714 </r>
       <r>    -9.1189     8.5899     8.0921 </r>
       <r>    -9.0466     1.4415     8.1963 </r>
       <r>    -8.9743    -1.0909     8.1174 </r>
       <r>    -8.9021    -1.0145     8.0441 </r>
       <r>    -8.8298    -0.4486     8.0117 </r>
       <r>    -8.7575    -0.1305     8.0023 </r>
       <r>    -8.6853    -0.0270     8.0003 </r>
       <r>    -8.6130    -0.0041     8.0000 </r>
       <r>    -8.5407    -0.0005     8.0000 </r>
       <r>    -8.4685    -0.0000     8.0000 </r>
       <r>    -8.3962    -0.0000     8.0000 </r>
       <r>    -8.3240    -0.0000     8.0000 </r>
       <r>    -8.2517    -0.0000     8.0000 </r>
       <r>    -8.1794    -0.0000     8.0000 </r>
       <r>    -8.1072    -0.0000     8.0000 </r>
       <r>    -8.0349    -0.0000     8.0000 </r>
       <r>    -7.9626     0.0000     8.0000 </r>
       <r>    -7.8904     0.0000     8.0000 </r>
       <r>    -7.8181     0.0000     8.0000 </r>
       <r>    -7.7458     0.0000     8.0000 </r>
       <r>    -7.6736     0.0000     8.0000 </r>
       <r>    -7.6013     0.0000     8.0000 </r>
       <r>    -7.5290     0.0000     8.0000 </r>
       <r>    -7.4568     0.0000     8.0000 </r>
       <r>    -7.3845     0.0000     8.0000 </r>
       <r>    -7.3123     0.0000     8.0000 </r>
       <r>    -7.2400     0.0000     8.0000 </r>
       <r>    -7.1677     0.0000     8.0000 </r>
       <r>    -7.0955     0.0000     8.0000 </r>
       <r>    -7.0232     0.0000     8.0000 </r>
       <r>    -6.9509     0.0000     8.0000 </r>
       <r>    -6.8787     0.0000     8.0000 </r>
       <r>    -6.8064     0.0000     8.0000 </r>
       <r>    -6.7341     0.0000     8.0000 </r>
       <r>    -6.6619     0.0000     8.0000 </r>
       <r>    -6.5896     0.0000     8.0000 </r>
       <r>    -6.5174     0.0000     8.0000 </r>
       <r>    -6.4451     0.0000     8.0000 </r>
       <r>    -6.3728     0.0000     8.0000 </r>
       <r>    -6.3006     0.0000     8.0000 </r>
       <r>    -6.2283     0.0000     8.0000 </r>
       <r>    -6.1560     0.0000     8.0000 </r>
       <r>    -6.0838     0.0000     8.0000 </r>
       <r>    -6.0115     0.0000     8.0000 </r>
       <r>    -5.9392     0.0000     8.0000 </r>
       <r>    -5.8670     0.0000     8.0000 </r>
       <r>    -5.7947     0.0000     8.0000 </r>
       <r>    -5.7225     0.0000     8.0000 </r>
       <r>    -5.6502     0.0000     8.0000 </r>
       <r>    -5.5779     0.0000     8.0000 </r>
       <r>    -5.5057     0.0000     8.0000 </r>
       <r>    -5.4334     0.0000     8.0000 </r>
       <r>    -5.3611     0.0000     8.0000 </r>
       <r>    -5.2889     0.0000     8.0000 </r>
       <r>    -5.2166     0.0000     8.0000 </r>
       <r>    -5.1443     0.0000     8.0000 </r>
       <r>    -5.0721     0.0000     8.0000 </r>
       <r>    -4.9998     0.0000     8.0000 </r>
       <r>    -4.9275     0.0000     8.0000 </r>
       <r>    -4.8553     0.0000     8.0000 </r>
       <r>    -4.7830     0.0000     8.0000 </r>
       <r>    -4.7108     0.0000     8.0000 </r>
       <r>    -4.6385     0.0000     8.0000 </r>
       <r>    -4.5662     0.0000     8.0000 </r>
       <r>    -4.4940     0.0000     8.0000 </r>
       <r>    -4.4217     0.0000     8.0000 </r>
       <r>    -4.3494     0.0000     8.0000 </r>
       <r>    -4.2772     0.0000     8.0000 </r>
       <r>    -4.2049     0.0000     8.0000 </r>
       <r>    -4.1326     0.0000     8.0000 </r>
       <r>    -4.0604     0.0000     8.0000 </r>
       <r>    -3.9881     0.0000     8.0000 </r>
       <r>    -3.9159     0.0000     8.0000 </r>
       <r>    -3.8436     0.0000     8.0000 </r>
       <r>    -3.7713     0.0000     8.0000 </r>
       <r>    -3.6991     0.0000     8.0000 </r>
       <r>    -3.6268     0.0000     8.0000 </r>
       <r>    -3.5545     0.0000     8.0000 </r>
       <r>    -3.4823     0.0000     8.0000 </r>
       <r>    -3.4100     0.0000     8.0000 </r>
       <r>    -3.3377     0.0000     8.0000 </r>
       <r>    -3.2655     0.0000     8.0000 </r>
       <r>    -3.1932     0.0000     8.0000 </r>
       <r>    -3.1210     0.0000     8.0000 </r>
       <r>    -3.0487     0.0000     8.0000 </r>
       <r>    -2.9764     0.0000     8.0000 </r>
       <r>    -2.9042     0.0000     8.0000 </r>
       <r>    -2.8319     0.0000     8.0000 </r>
       <r>    -2.7596     0.0000     8.0000 </r>
       <r>    -2.6874     0.0000     8.0000 </r>
       <r>    -2.6151     0.0000     8.0000 </r>
       <r>    -2.5428     0.0000     8.0000 </r>
       <r>    -2.4706     0.0000     8.0000 </r>
       <r>    -2.3983     0.0000     8.0000 </r>
       <r>    -2.3260     0.0000     8.0000 </r>
       <r>    -2.2538     0.0000     8.0000 </r>
       <r>    -2.1815     0.0000     8.0000 </r>
       <r>    -2.1093     0.0000     8.0000 </r>
       <r>    -2.0370     0.0000     8.0000 </r>
       <r>    -1.9647    -0.0000     8.0000 </r>
       <r>    -1.8925    -0.0000     8.0000 </r>
       <r>    -1.8202    -0.0000     8.0000 </r>
       <r>    -1.7479    -0.0000     8.0000 </r>
       <r>    -1.6757    -0.0000     8.0000 </r>
       <r>    -1.6034    -0.0000     8.0000 </r>
       <r>    -1.5311    -0.0000     8.0000 </r>
       <r>    -1.4589    -0.0000     8.0000 </r>
       <r>    -1.3866    -0.0000     8.0000 </r>
       <r>    -1.3144    -0.0000     8.0000 </r>
       <r>    -1.2421    -0.0000     8.0000 </r>
       <r>    -1.1698    -0.0000     8.0000 </r>
       <r>    -1.0976    -0.0000     8.0000 </r>
       <r>    -1.0253    -0.0001     8.0000 </r>
       <r>    -0.9530    -0.0005     8.0000 </r>
       <r>    -0.8808    -0.0041     7.9997 </r>
       <r>    -0.8085    -0.0235     7.9980 </r>
       <r>    -0.7362    -0.0961     7.9910 </r>
       <r>    -0.6640    -0.2687     7.9716 </r>
       <r>    -0.5917    -0.4373     7.9400 </r>
       <r>    -0.5195    -0.0467     7.9366 </r>
       <r>    -0.4472     1.7822     8.0654 </r>
       <r>    -0.3749     5.0593     8.4310 </r>
       <r>    -0.3027     7.8779     9.0003 </r>
       <r>    -0.2304     7.8762     9.5695 </r>
       <r>    -0.1581     5.0558     9.9348 </r>
       <r>    -0.0859     1.7791    10.0634 </r>
       <r>    -0.0136    -0.0511    10.0597 </r>
       <r>     0.0587    -0.4577    10.0266 </r>
       <r>     0.1309    -0.3602    10.0006 </r>
       <r>     0.2032    -0.3943     9.9721 </r>
       <r>     0.2755    -0.6798     9.9230 </r>
       <r>     0.3477    -0.7637     9.8678 </r>
       <r>     0.4200     0.5779     9.9095 </r>
       <r>     0.4922     4.8177    10.2577 </r>
       <r>     0.5645    11.9358    11.1202 </r>
       <r>     0.6368    18.9853    12.4922 </r>
       <r>     0.7090    21.4543    14.0425 </r>
       <r>     0.7813    17.3044    15.2930 </r>
       <r>     0.8536     9.3727    15.9703 </r>
       <r>     0.9258     2.6161    16.1594 </r>
       <r>     0.9981    -0.5126    16.1223 </r>
       <r>     1.0704    -0.9452    16.0540 </r>
       <r>     1.1426    -0.5191    16.0165 </r>
       <r>     1.2149    -0.1777    16.0037 </r>
       <r>     1.2871    -0.0426    16.0006 </r>
       <r>     1.3594    -0.0074    16.0001 </r>
       <r>     1.4317    -0.0010    16.0000 </r>
       <r>     1.5039    -0.0001    16.0000 </r>
       <r>     1.5762    -0.0000    16.0000 </r>
       <r>     1.6485    -0.0000    16.0000 </r>
       <r>     1.7207    -0.0000    16.0000 </r>
       <r>     1.7930    -0.0000    16.0000 </r>
       <r>     1.8653    -0.0000    16.0000 </r>
       <r>     1.9375    -0.0000    16.0000 </r>
       <r>     2.0098    -0.0000    16.0000 </r>
       <r>     2.0820     0.0000    16.0000 </r>
       <r>     2.1543     0.0000    16.0000 </r>
       <r>     2.2266     0.0000    16.0000 </r>
       <r>     2.2988     0.0000    16.0000 </r>
       <r>     2.3711     0.0000    16.0000 </r>
       <r>     2.4434     0.0000    16.0000 </r>
       <r>     2.5156     0.0000    16.0000 </r>
       <r>     2.5879     0.0000    16.0000 </r>
       <r>     2.6602     0.0000    16.0000 </r>
       <r>     2.7324     0.0000    16.0000 </r>
      </set>
     </set>
    </array>
   </total>
  </dos>
  <time name="totalsc">   94.13   94.36</time>
 </calculation>
 <calculation>
  <scstep>
   <time name="dav">    2.16    2.16</time>
   <time name="total">    4.08    4.09</time>
   <energy>
    <i name="alphaZ">      0.24798131 </i>
    <i name="ewald">    124.36244640 </i>
    <i name="hartreedc">   -282.20087649 </i>
    <i name="XCdc">     24.67714688 </i>
    <i name="pawpsdc">    483.48356010 </i>
    <i name="pawaedc">   -484.28044983 </i>
    <i name="eentropy">      0.01217760 </i>
    <i name="bandstr">    -87.34436658 </i>
    <i name="atom">    197.04175453 </i>
    <i name="e_fr_energy">    -24.00062608 </i>
    <i name="e_wo_entrp">    -24.01280368 </i>
    <i name="e_0_energy">    -24.00468528 </i>
   </energy>
  </scstep>
  <scstep>
   <time name="diag">    0.49    0.49</time>
   <time name="diis">    1.64    1.64</time>
   <time name="orth">    0.01    0.01</time>
   <time name="total">    3.95    3.96</time>
   <energy>
    <i name="e_fr_energy">    -23.98862420 </i>
    <i name="e_wo_entrp">    -24.00267441 </i>
    <i name="e_0_energy">    -23.99330760 </i>
   </energy>
  </scstep>
  <scstep>
   <time name="diag">    0.50    0.50</time>
   <time name="diis">    1.64    1.64</time>
   <time name="orth">    0.01    0.01</time>
   <time name="total">    4.00    4.01</time>
   <energy>
    <i name="e_fr_energy">    -24.00452506 </i>
    <i name="e_wo_entrp">    -24.01742812 </i>
    <i name="e_0_energy">    -24.00882608 </i>
   </energy>
  </scstep>
  <scstep>
   <time name="diag">    0.50    0.50</time>
   <time name="diis">    1.60    1.61</time>
   <time name="orth">    0.01    0.01</time>
   <time name="total">    3.98    3.99</time>
   <energy>
    <i name="e_fr_energy">    -23.99628091 </i>
    <i name="e_wo_entrp">    -24.00997137 </i>
    <i name="e_0_energy">    -24.00084440 </i>
   </energy>
  </scstep>
  <scstep>
   <time name="diag">    0.48    0.49</time>
   <time name="diis">    1.59    1.59</time>
   <time name="orth">    0.01    0.01</time>
   <time name="total">    3.96    3.97</time>
   <energy>
    <i name="e_fr_energy">    -23.99180069 </i>
    <i name="e_wo_entrp">    -24.00568097 </i>
    <i name="e_0_energy">    -23.99642745 </i>
   </energy>
  </scstep>
  <scstep>
   <time name="diag">    0.47    0.47</time>
   <time name="diis">    1.60    1.60</time>
   <time name="orth">    0.01    0.01</time>
   <time name="total">    3.99    4.00</time>
   <energy>
    <i name="e_fr_energy">    -23.99121098 </i>
    <i name="e_wo_entrp">    -24.00508002 </i>
    <i name="e_0_energy">    -23.99583399 </i>
   </energy>
  </scstep>
  <scstep>
   <time name="diag">    0.47    0.47</time>
   <time name="diis">    1.61    1.62</time>
   <time name="orth">    0.01    0.01</time>
   <time name="total">    4.00    4.01</time>
   <energy>
    <i name="e_fr_energy">    -23.99032100 </i>
    <i name="e_wo_entrp">    -24.00410982 </i>
    <i name="e_0_energy">    -23.99491727 </i>
   </energy>
  </scstep>
  <scstep>
   <time name="diag">    0.48    0.48</time>
   <time name="diis">    1.62    1.63</time>
   <time name="orth">    0.01    0.01</time>
   <time name="total">    4.02    4.03</time>
   <energy>
    <i name="e_fr_energy">    -23.98987524 </i>
    <i name="e_wo_entrp">    -24.00355657 </i>
    <i name="e_0_energy">    -23.99443568 </i>
   </energy>
  </scstep>
  <scstep>
   <time name="diag">    0.50    0.50</time>
   <time name="diis">    1.56    1.56</time>
   <time name="orth">    0.01    0.01</time>
   <time name="total">    3.99    4.00</time>
   <energy>
    <i name="e_fr_energy">    -23.98924771 </i>
    <i name="e_wo_entrp">    -24.00269208 </i>
    <i name="e_0_energy">    -23.99372917 </i>
   </energy>
  </scstep>
  <scstep>
   <time name="diag">    0.49    0.49</time>
   <time name="diis">    1.56    1.57</time>
   <time name="orth">    0.01    0.01</time>
   <time name="total">    4.03    4.03</time>
   <energy>
    <i name="e_fr_energy">    -23.98910051 </i>
    <i name="e_wo_entrp">    -24.00242816 </i>
    <i name="e_0_energy">    -23.99354306 </i>
   </energy>
  </scstep>
  <scstep>
   <time name="diag">    0.48    0.48</time>
   <time name="diis">    1.54    1.55</time>
   <time name="orth">    0.01    0.01</time>
   <time name="total">    3.96    3.97</time>
   <energy>
    <i name="e_fr_energy">    -23.98895332 </i>
    <i name="e_wo_entrp">    -24.00207880 </i>
    <i name="e_0_energy">    -23.99332848 </i>
   </energy>
  </scstep>
  <scstep>
   <time name="diag">    0.49    0.49</time>
   <time name="diis">    1.61    1.62</time>
   <time name="orth">    0.01    0.01</time>
   <time name="total">    4.00    4.01</time>
   <energy>
    <i name="e_fr_energy">    -23.98893214 </i>
    <i name="e_wo_entrp">    -24.00199557 </i>
    <i name="e_0_energy">    -23.99328662 </i>
   </energy>
  </scstep>
  <scstep>
   <time name="diag">    0.49    0.50</time>
   <time name="diis">    1.55    1.55</time>
   <time name="orth">    0.01    0.01</time>
   <time name="total">    3.97    3.98</time>
   <energy>
    <i name="e_fr_energy">    -23.98891868 </i>
    <i name="e_wo_entrp">    -24.00190658 </i>
    <i name="e_0_energy">    -23.99324798 </i>
   </energy>
  </scstep>
  <scstep>
   <time name="diag">    0.50    0.50</time>
   <time name="diis">    1.58    1.58</time>
   <time name="orth">    0.01    0.01</time>
   <time name="total">    4.01    4.02</time>
   <energy>
    <i name="e_fr_energy">    -23.98891985 </i>
    <i name="e_wo_entrp">    -24.00187479 </i>
    <i name="e_0_energy">    -23.99323816 </i>
   </energy>
  </scstep>
  <scstep>
   <time name="diag">    0.48    0.48</time>
   <time name="diis">    1.52    1.52</time>
   <time name="orth">    0.01    0.01</time>
   <time name="total">    3.96    3.97</time>
   <energy>
    <i name="e_fr_energy">    -23.98892611 </i>
    <i name="e_wo_entrp">    -24.00185574 </i>
    <i name="e_0_energy">    -23.99323599 </i>
   </energy>
  </scstep>
  <scstep>
   <time name="diag">    0.46    0.46</time>
   <time name="diis">    1.23    1.24</time>
   <time name="orth">    0.01    0.01</time>
   <time name="total">    3.65    3.66</time>
   <energy>
    <i name="e_fr_energy">    -23.98892762 </i>
    <i name="e_wo_entrp">    -24.00185554 </i>
    <i name="e_0_energy">    -23.99323693 </i>
   </energy>
  </scstep>
  <scstep>
   <time name="diag">    0.49    0.49</time>
   <time name="diis">    1.27    1.27</time>
   <time name="orth">    0.01    0.01</time>
   <time name="total">    3.76    3.77</time>
   <energy>
    <i name="e_fr_energy">    -23.98892880 </i>
    <i name="e_wo_entrp">    -24.00185288 </i>
    <i name="e_0_energy">    -23.99323683 </i>
   </energy>
  </scstep>
  <scstep>
   <time name="diag">    0.51    0.51</time>
   <time name="diis">    1.31    1.31</time>
   <time name="orth">    0.01    0.01</time>
   <time name="total">    3.53    3.54</time>
   <energy>
    <i name="alphaZ">      0.24798131 </i>
    <i name="ewald">    124.36244640 </i>
    <i name="hartreedc">   -280.56495801 </i>
    <i name="XCdc">     24.58287199 </i>
    <i name="pawpsdc">    452.33810401 </i>
    <i name="pawaedc">   -453.11493988 </i>
    <i name="eentropy">      0.01292138 </i>
    <i name="bandstr">    -88.89511076 </i>
    <i name="atom">    197.04175453 </i>
    <i name="e_fr_energy">    -23.98892904 </i>
    <i name="e_wo_entrp">    -24.00185042 </i>
    <i name="e_0_energy">    -23.99323617 </i>
   </energy>
  </scstep>
  <structure>
   <crystal>
    <varray name="basis" >
     <v>       9.73572866       0.00000000       0.00000000 </v>
     <v>      -0.16556745      10.00546235       0.00000000 </v>
     <v>      -0.24660566       0.28506637      10.02860740 </v>
    </varray>
    <i name="volume">    976.89132638 </i>
    <varray name="rec_basis" >
     <v>       0.10271445       0.00169969       0.00247746 </v>
     <v>       0.00000000       0.09994541      -0.00284098 </v>
     <v>       0.00000000      -0.00000000       0.09971474 </v>
    </varray>
   </crystal>
   <varray name="positions" >
    <v>       0.53699882       0.40628212       0.36203614 </v>
    <v>       0.39015905       0.48079676       0.43981473 </v>
    <v>       0.55477002       0.56952806       0.44310807 </v>
    <v>       0.52425799       0.41194514       0.53906352 </v>
    <v>       0.50404176       0.46736240       0.44437659 </v>
   </varray>
  </structure>
  <varray name="forces" >
   <v>       0.75206915      -0.59165293      -1.59649118 </v>
   <v>       0.83108542      -0.40841497      -0.06501773 </v>
   <v>      -0.15795343      -0.71099677       0.10533009 </v>
   <v>       0.29436620       0.81660519       0.05905105 </v>
   <v>      -0.77410631       1.94203154       0.35750616 </v>
  </varray>
  <varray name="stress" >
   <v>      -1.16802522      -1.11621550       0.60165389 </v>
   <v>      -1.11621550      -2.03269737       0.67937198 </v>
   <v>       0.60165390       0.67937197       0.17564892 </v>
  </varray>
  <energy>
   <i name="e_fr_energy">    -23.98892904 </i>
   <i name="e_wo_entrp">    -23.99323617 </i>
   <i name="e_0_energy">      0.01292138 </i>
   <i name="kinetic">      0.06478187 </i>
   <i name="lattice kinetic">      0.00000000 </i>
   <i name="nosepot">      0.00076046 </i>
   <i name="nosekinetic">      0.00122534 </i>
   <i name="total">    -23.92216137 </i>
  </energy>
  <dos>
   <i name="efermi">     -8.81885150 </i>
   <total>
    <array>
     <dimension dim="1">gridpoints</dimension>
     <dimension dim="2">spin</dimension>
     <field>energy</field>
     <field>total</field>
     <field>integrated</field>
     <set>
      <set comment="spin 1">
       <r>   -18.7739     0.0000     0.0000 </r>
       <r>   -18.7022     0.0000     0.0000 </r>
       <r>   -18.6305     0.0000     0.0000 </r>
       <r>   -18.5588     0.0000     0.0000 </r>
       <r>   -18.4871     0.0000     0.0000 </r>
       <r>   -18.4155    -0.0000    -0.0000 </r>
       <r>   -18.3438    -0.0000    -0.0000 </r>
       <r>   -18.2721    -0.0000    -0.0000 </r>
       <r>   -18.2004    -0.0000    -0.0000 </r>
       <r>   -18.1288    -0.0000    -0.0000 </r>
       <r>   -18.0571    -0.0000    -0.0000 </r>
       <r>   -17.9854    -0.0000    -0.0000 </r>
       <r>   -17.9137    -0.0000    -0.0000 </r>
       <r>   -17.8420    -0.0000    -0.0000 </r>
       <r>   -17.7704    -0.0000    -0.0000 </r>
       <r>   -17.6987    -0.0000    -0.0000 </r>
       <r>   -17.6270    -0.0000    -0.0000 </r>
       <r>   -17.5553    -0.0000    -0.0000 </r>
       <r>   -17.4837    -0.0001    -0.0000 </r>
       <r>   -17.4120    -0.0008    -0.0001 </r>
       <r>   -17.3403    -0.0056    -0.0005 </r>
       <r>   -17.2686    -0.0298    -0.0026 </r>
       <r>   -17.1969    -0.1146    -0.0108 </r>
       <r>   -17.1253    -0.2992    -0.0323 </r>
       <r>   -17.0536    -0.4377    -0.0636 </r>
       <r>   -16.9819     0.0831    -0.0577 </r>
       <r>   -16.9102     2.1030     0.0931 </r>
       <r>   -16.8386     5.4352     0.4827 </r>
       <r>   -16.7669     8.0363     1.0587 </r>
       <r>   -16.6952     7.7160     1.6117 </r>
       <r>   -16.6235     4.7629     1.9531 </r>
       <r>   -16.5518     1.5772     2.0662 </r>
       <r>   -16.4802    -0.1130     2.0581 </r>
       <r>   -16.4085    -0.4356     2.0269 </r>
       <r>   -16.3368    -0.2574     2.0084 </r>
       <r>   -16.2651    -0.0908     2.0019 </r>
       <r>   -16.1935    -0.0221     2.0003 </r>
       <r>   -16.1218    -0.0039     2.0000 </r>
       <r>   -16.0501    -0.0005     2.0000 </r>
       <r>   -15.9784    -0.0001     2.0000 </r>
       <r>   -15.9068    -0.0000     2.0000 </r>
       <r>   -15.8351    -0.0000     2.0000 </r>
       <r>   -15.7634    -0.0000     2.0000 </r>
       <r>   -15.6917    -0.0000     2.0000 </r>
       <r>   -15.6200    -0.0000     2.0000 </r>
       <r>   -15.5484    -0.0000     2.0000 </r>
       <r>   -15.4767     0.0000     2.0000 </r>
       <r>   -15.4050     0.0000     2.0000 </r>
       <r>   -15.3333     0.0000     2.0000 </r>
       <r>   -15.2617     0.0000     2.0000 </r>
       <r>   -15.1900     0.0000     2.0000 </r>
       <r>   -15.1183     0.0000     2.0000 </r>
       <r>   -15.0466     0.0000     2.0000 </r>
       <r>   -14.9749     0.0000     2.0000 </r>
       <r>   -14.9033     0.0000     2.0000 </r>
       <r>   -14.8316     0.0000     2.0000 </r>
       <r>   -14.7599     0.0000     2.0000 </r>
       <r>   -14.6882     0.0000     2.0000 </r>
       <r>   -14.6166     0.0000     2.0000 </r>
       <r>   -14.5449     0.0000     2.0000 </r>
       <r>   -14.4732     0.0000     2.0000 </r>
       <r>   -14.4015     0.0000     2.0000 </r>
       <r>   -14.3298     0.0000     2.0000 </r>
       <r>   -14.2582     0.0000     2.0000 </r>
       <r>   -14.1865     0.0000     2.0000 </r>
       <r>   -14.1148     0.0000     2.0000 </r>
       <r>   -14.0431     0.0000     2.0000 </r>
       <r>   -13.9715     0.0000     2.0000 </r>
       <r>   -13.8998     0.0000     2.0000 </r>
       <r>   -13.8281     0.0000     2.0000 </r>
       <r>   -13.7564     0.0000     2.0000 </r>
       <r>   -13.6847     0.0000     2.0000 </r>
       <r>   -13.6131     0.0000     2.0000 </r>
       <r>   -13.5414     0.0000     2.0000 </r>
       <r>   -13.4697     0.0000     2.0000 </r>
       <r>   -13.3980     0.0000     2.0000 </r>
       <r>   -13.3264     0.0000     2.0000 </r>
       <r>   -13.2547     0.0000     2.0000 </r>
       <r>   -13.1830     0.0000     2.0000 </r>
       <r>   -13.1113     0.0000     2.0000 </r>
       <r>   -13.0396     0.0000     2.0000 </r>
       <r>   -12.9680     0.0000     2.0000 </r>
       <r>   -12.8963     0.0000     2.0000 </r>
       <r>   -12.8246     0.0000     2.0000 </r>
       <r>   -12.7529     0.0000     2.0000 </r>
       <r>   -12.6813     0.0000     2.0000 </r>
       <r>   -12.6096     0.0000     2.0000 </r>
       <r>   -12.5379     0.0000     2.0000 </r>
       <r>   -12.4662     0.0000     2.0000 </r>
       <r>   -12.3945     0.0000     2.0000 </r>
       <r>   -12.3229     0.0000     2.0000 </r>
       <r>   -12.2512     0.0000     2.0000 </r>
       <r>   -12.1795     0.0000     2.0000 </r>
       <r>   -12.1078     0.0000     2.0000 </r>
       <r>   -12.0362     0.0000     2.0000 </r>
       <r>   -11.9645     0.0000     2.0000 </r>
       <r>   -11.8928     0.0000     2.0000 </r>
       <r>   -11.8211     0.0000     2.0000 </r>
       <r>   -11.7494     0.0000     2.0000 </r>
       <r>   -11.6778     0.0000     2.0000 </r>
       <r>   -11.6061     0.0000     2.0000 </r>
       <r>   -11.5344     0.0000     2.0000 </r>
       <r>   -11.4627     0.0000     2.0000 </r>
       <r>   -11.3911     0.0000     2.0000 </r>
       <r>   -11.3194     0.0000     2.0000 </r>
       <r>   -11.2477     0.0000     2.0000 </r>
       <r>   -11.1760     0.0000     2.0000 </r>
       <r>   -11.1043     0.0000     2.0000 </r>
       <r>   -11.0327    -0.0000     2.0000 </r>
       <r>   -10.9610    -0.0000     2.0000 </r>
       <r>   -10.8893    -0.0000     2.0000 </r>
       <r>   -10.8176    -0.0000     2.0000 </r>
       <r>   -10.7460    -0.0000     2.0000 </r>
       <r>   -10.6743    -0.0000     2.0000 </r>
       <r>   -10.6026    -0.0000     2.0000 </r>
       <r>   -10.5309    -0.0000     2.0000 </r>
       <r>   -10.4592    -0.0000     2.0000 </r>
       <r>   -10.3876    -0.0000     2.0000 </r>
       <r>   -10.3159    -0.0000     2.0000 </r>
       <r>   -10.2442    -0.0000     2.0000 </r>
       <r>   -10.1725    -0.0000     2.0000 </r>
       <r>   -10.1009    -0.0001     2.0000 </r>
       <r>   -10.0292    -0.0006     2.0000 </r>
       <r>    -9.9575    -0.0049     1.9996 </r>
       <r>    -9.8858    -0.0281     1.9976 </r>
       <r>    -9.8141    -0.1198     1.9890 </r>
       <r>    -9.7425    -0.3616     1.9631 </r>
       <r>    -9.6708    -0.6984     1.9130 </r>
       <r>    -9.5991    -0.4993     1.8772 </r>
       <r>    -9.5274     1.6119     1.9928 </r>
       <r>    -9.4558     6.5196     2.4601 </r>
       <r>    -9.3841    12.4587     3.3531 </r>
       <r>    -9.3124    15.3219     4.4513 </r>
       <r>    -9.2407    12.8813     5.3746 </r>
       <r>    -9.1690     7.9190     5.9422 </r>
       <r>    -9.0974     5.2595     6.3192 </r>
       <r>    -9.0257     6.1824     6.7624 </r>
       <r>    -8.9540     7.5829     7.3059 </r>
       <r>    -8.8823     6.4899     7.7711 </r>
       <r>    -8.8107     3.4251     8.0166 </r>
       <r>    -8.7390     0.7650     8.0714 </r>
       <r>    -8.6673    -0.3408     8.0470 </r>
       <r>    -8.5956    -0.3939     8.0187 </r>
       <r>    -8.5239    -0.1885     8.0052 </r>
       <r>    -8.4523    -0.0580     8.0011 </r>
       <r>    -8.3806    -0.0126     8.0002 </r>
       <r>    -8.3089    -0.0020     8.0000 </r>
       <r>    -8.2372    -0.0002     8.0000 </r>
       <r>    -8.1656    -0.0000     8.0000 </r>
       <r>    -8.0939    -0.0000     8.0000 </r>
       <r>    -8.0222    -0.0000     8.0000 </r>
       <r>    -7.9505    -0.0000     8.0000 </r>
       <r>    -7.8788    -0.0000     8.0000 </r>
       <r>    -7.8072    -0.0000     8.0000 </r>
       <r>    -7.7355    -0.0000     8.0000 </r>
       <r>    -7.6638     0.0000     8.0000 </r>
       <r>    -7.5921     0.0000     8.0000 </r>
       <r>    -7.5205     0.0000     8.0000 </r>
       <r>    -7.4488     0.0000     8.0000 </r>
       <r>    -7.3771     0.0000     8.0000 </r>
       <r>    -7.3054     0.0000     8.0000 </r>
       <r>    -7.2337     0.0000     8.0000 </r>
       <r>    -7.1621     0.0000     8.0000 </r>
       <r>    -7.0904     0.0000     8.0000 </r>
       <r>    -7.0187     0.0000     8.0000 </r>
       <r>    -6.9470     0.0000     8.0000 </r>
       <r>    -6.8754     0.0000     8.0000 </r>
       <r>    -6.8037     0.0000     8.0000 </r>
       <r>    -6.7320     0.0000     8.0000 </r>
       <r>    -6.6603     0.0000     8.0000 </r>
       <r>    -6.5886     0.0000     8.0000 </r>
       <r>    -6.5170     0.0000     8.0000 </r>
       <r>    -6.4453     0.0000     8.0000 </r>
       <r>    -6.3736     0.0000     8.0000 </r>
       <r>    -6.3019     0.0000     8.0000 </r>
       <r>    -6.2303     0.0000     8.0000 </r>
       <r>    -6.1586     0.0000     8.0000 </r>
       <r>    -6.0869     0.0000     8.0000 </r>
       <r>    -6.0152     0.0000     8.0000 </r>
       <r>    -5.9435     0.0000     8.0000 </r>
       <r>    -5.8719     0.0000     8.0000 </r>
       <r>    -5.8002     0.0000     8.0000 </r>
       <r>    -5.7285     0.0000     8.0000 </r>
       <r>    -5.6568     0.0000     8.0000 </r>
       <r>    -5.5852     0.0000     8.0000 </r>
       <r>    -5.5135     0.0000     8.0000 </r>
       <r>    -5.4418     0.0000     8.0000 </r>
       <r>    -5.3701     0.0000     8.0000 </r>
       <r>    -5.2984     0.0000     8.0000 </r>
       <r>    -5.2268     0.0000     8.0000 </r>
       <r>    -5.1551     0.0000     8.0000 </r>
       <r>    -5.0834     0.0000     8.0000 </r>
       <r>    -5.0117     0.0000     8.0000 </r>
       <r>    -4.9401     0.0000     8.0000 </r>
       <r>    -4.8684     0.0000     8.0000 </r>
       <r>    -4.7967     0.0000     8.0000 </r>
       <r>    -4.7250     0.0000     8.0000 </r>
       <r>    -4.6533     0.0000     8.0000 </r>
       <r>    -4.5817     0.0000     8.0000 </r>
       <r>    -4.5100     0.0000     8.0000 </r>
       <r>    -4.4383     0.0000     8.0000 </r>
       <r>    -4.3666     0.0000     8.0000 </r>
       <r>    -4.2950     0.0000     8.0000 </r>
       <r>    -4.2233     0.0000     8.0000 </r>
       <r>    -4.1516     0.0000     8.0000 </r>
       <r>    -4.0799     0.0000     8.0000 </r>
       <r>    -4.0082     0.0000     8.0000 </r>
       <r>    -3.9366     0.0000     8.0000 </r>
       <r>    -3.8649     0.0000     8.0000 </r>
       <r>    -3.7932     0.0000     8.0000 </r>
       <r>    -3.7215     0.0000     8.0000 </r>
       <r>    -3.6499     0.0000     8.0000 </r>
       <r>    -3.5782     0.0000     8.0000 </r>
       <r>    -3.5065     0.0000     8.0000 </r>
       <r>    -3.4348     0.0000     8.0000 </r>
       <r>    -3.3631     0.0000     8.0000 </r>
       <r>    -3.2915     0.0000     8.0000 </r>
       <r>    -3.2198     0.0000     8.0000 </r>
       <r>    -3.1481     0.0000     8.0000 </r>
       <r>    -3.0764     0.0000     8.0000 </r>
       <r>    -3.0048     0.0000     8.0000 </r>
       <r>    -2.9331     0.0000     8.0000 </r>
       <r>    -2.8614     0.0000     8.0000 </r>
       <r>    -2.7897     0.0000     8.0000 </r>
       <r>    -2.7180     0.0000     8.0000 </r>
       <r>    -2.6464     0.0000     8.0000 </r>
       <r>    -2.5747     0.0000     8.0000 </r>
       <r>    -2.5030     0.0000     8.0000 </r>
       <r>    -2.4313     0.0000     8.0000 </r>
       <r>    -2.3597     0.0000     8.0000 </r>
       <r>    -2.2880     0.0000     8.0000 </r>
       <r>    -2.2163     0.0000     8.0000 </r>
       <r>    -2.1446     0.0000     8.0000 </r>
       <r>    -2.0729     0.0000     8.0000 </r>
       <r>    -2.0013    -0.0000     8.0000 </r>
       <r>    -1.9296    -0.0000     8.0000 </r>
       <r>    -1.8579    -0.0000     8.0000 </r>
       <r>    -1.7862    -0.0000     8.0000 </r>
       <r>    -1.7146    -0.0000     8.0000 </r>
       <r>    -1.6429    -0.0000     8.0000 </r>
       <r>    -1.5712    -0.0000     8.0000 </r>
       <r>    -1.4995    -0.0000     8.0000 </r>
       <r>    -1.4278    -0.0000     8.0000 </r>
       <r>    -1.3562    -0.0000     8.0000 </r>
       <r>    -1.2845    -0.0000     8.0000 </r>
       <r>    -1.2128    -0.0000     8.0000 </r>
       <r>    -1.1411    -0.0000     8.0000 </r>
       <r>    -1.0695    -0.0000     8.0000 </r>
       <r>    -0.9978    -0.0004     8.0000 </r>
       <r>    -0.9261    -0.0029     7.9998 </r>
       <r>    -0.8544    -0.0171     7.9985 </r>
       <r>    -0.7827    -0.0739     7.9932 </r>
       <r>    -0.7111    -0.2236     7.9772 </r>
       <r>    -0.6394    -0.4198     7.9471 </r>
       <r>    -0.5677    -0.2348     7.9303 </r>
       <r>    -0.4960     1.1849     8.0152 </r>
       <r>    -0.4244     4.1909     8.3156 </r>
       <r>    -0.3527     7.3585     8.8431 </r>
       <r>    -0.2810     8.2095     9.4315 </r>
       <r>    -0.2093     5.9809     9.8602 </r>
       <r>    -0.1376     2.5926    10.0460 </r>
       <r>    -0.0660     0.2961    10.0673 </r>
       <r>     0.0057    -0.4280    10.0366 </r>
       <r>     0.0774    -0.3748    10.0097 </r>
       <r>     0.1491    -0.2952     9.9886 </r>
       <r>     0.2207    -0.4711     9.9548 </r>
       <r>     0.2924    -0.7734     9.8994 </r>
       <r>     0.3641    -0.4716     9.8656 </r>
       <r>     0.4358     1.8274     9.9965 </r>
       <r>     0.5075     7.1993    10.5126 </r>
       <r>     0.5791    14.6222    11.5607 </r>
       <r>     0.6508    20.4134    13.0238 </r>
       <r>     0.7225    20.6252    14.5022 </r>
       <r>     0.7942    14.8451    15.5663 </r>
       <r>     0.8658     6.9459    16.0641 </r>
       <r>     0.9375     1.3130    16.1582 </r>
       <r>     1.0092    -0.8056    16.1005 </r>
       <r>     1.0809    -0.8407    16.0402 </r>
       <r>     1.1526    -0.4015    16.0115 </r>
       <r>     1.2242    -0.1262    16.0024 </r>
       <r>     1.2959    -0.0284    16.0004 </r>
       <r>     1.3676    -0.0047    16.0000 </r>
       <r>     1.4393    -0.0006    16.0000 </r>
       <r>     1.5109    -0.0001    16.0000 </r>
       <r>     1.5826    -0.0000    16.0000 </r>
       <r>     1.6543    -0.0000    16.0000 </r>
       <r>     1.7260    -0.0000    16.0000 </r>
       <r>     1.7977    -0.0000    16.0000 </r>
       <r>     1.8693    -0.0000    16.0000 </r>
       <r>     1.9410    -0.0000    16.0000 </r>
       <r>     2.0127    -0.0000    16.0000 </r>
       <r>     2.0844     0.0000    16.0000 </r>
       <r>     2.1560     0.0000    16.0000 </r>
       <r>     2.2277     0.0000    16.0000 </r>
       <r>     2.2994     0.0000    16.0000 </r>
       <r>     2.3711     0.0000    16.0000 </r>
       <r>     2.4428     0.0000    16.0000 </r>
       <r>     2.5144     0.0000    16.0000 </r>
       <r>     2.5861     0.0000    16.0000 </r>
       <r>     2.6578     0.0000    16.0000 </r>
       <r>     2.7295     0.0000    16.0000 </r>
      </set>
     </set>
    </array>
   </total>
  </dos>
  <time name="totalsc">   78.98   79.18</time>
 </calculation>
 <calculation>
  <scstep>
   <time name="dav">    2.19    2.20</time>
   <time name="total">    4.17    4.18</time>
   <energy>
    <i name="alphaZ">      0.24798131 </i>
    <i name="ewald">    119.46459299 </i>
    <i name="hartreedc">   -277.09551952 </i>
    <i name="XCdc">     24.40427743 </i>
    <i name="pawpsdc">    442.33763276 </i>
    <i name="pawaedc">   -443.10799926 </i>
    <i name="eentropy">      0.01529919 </i>
    <i name="bandstr">    -87.22891488 </i>
    <i name="atom">    197.04175453 </i>
    <i name="e_fr_energy">    -23.92089544 </i>
    <i name="e_wo_entrp">    -23.93619463 </i>
    <i name="e_0_energy">    -23.92599517 </i>
   </energy>
  </scstep>
  <scstep>
   <time name="diag">    0.49    0.49</time>
   <time name="diis">    1.65    1.66</time>
   <time name="orth">    0.01    0.01</time>
   <time name="total">    4.03    4.04</time>
   <energy>
    <i name="e_fr_energy">    -23.91536985 </i>
    <i name="e_wo_entrp">    -23.92921644 </i>
    <i name="e_0_energy">    -23.91998538 </i>
   </energy>
  </scstep>
  <scstep>
   <time name="diag">    0.49    0.49</time>
   <time name="diis">    1.66    1.66</time>
   <time name="orth">    0.01    0.01</time>
   <time name="total">    4.01    4.02</time>
   <energy>
    <i name="e_fr_energy">    -23.92051477 </i>
    <i name="e_wo_entrp">    -23.93259323 </i>
    <i name="e_0_energy">    -23.92454092 </i>
   </energy>
  </scstep>
  <scstep>
   <time name="diag">    0.51    0.52</time>
   <time name="diis">    1.60    1.61</time>
   <time name="orth">    0.01    0.01</time>
   <time name="total">    4.00    4.01</time>
   <energy>
    <i name="e_fr_energy">    -23.91674043 </i>
    <i name="e_wo_entrp">    -23.93030159 </i>
    <i name="e_0_energy">    -23.92126081 </i>
   </energy>
  </scstep>
  <scstep>
   <time name="diag">    0.51    0.51</time>
   <time name="diis">    1.58    1.58</time>
   <time name="orth">    0.01    0.01</time>
   <time name="total">    4.00    4.01</time>
   <energy>
    <i name="e_fr_energy">    -23.91688220 </i>
    <i name="e_wo_entrp">    -23.93029586 </i>
    <i name="e_0_energy">    -23.92135342 </i>
   </energy>
  </scstep>
  <scstep>
   <time name="diag">    0.52    0.52</time>
   <time name="diis">    1.59    1.59</time>
   <time name="orth">    0.01    0.01</time>
   <time name="total">    4.02    4.03</time>
   <energy>
    <i name="e_fr_energy">    -23.91711304 </i>
    <i name="e_wo_entrp">    -23.93049293 </i>
    <i name="e_0_energy">    -23.92157300 </i>
   </energy>
  </scstep>
  <scstep>
   <time name="diag">    0.50    0.50</time>
   <time name="diis">    1.62    1.62</time>
   <time name="orth">    0.01    0.01</time>
   <time name="total">    4.06    4.07</time>
   <energy>
    <i name="e_fr_energy">    -23.91707061 </i>
    <i name="e_wo_entrp">    -23.93021747 </i>
    <i name="e_0_energy">    -23.92145289 </i>
   </energy>
  </scstep>
  <scstep>
   <time name="diag">    0.49    0.49</time>
   <time name="diis">    1.62    1.63</time>
   <time name="orth">    0.01    0.01</time>
   <time name="total">    4.09    4.10</time>
   <energy>
    <i name="e_fr_energy">    -23.91720304 </i>
    <i name="e_wo_entrp">    -23.93026154 </i>
    <i name="e_0_energy">    -23.92155587 </i>
   </energy>
  </scstep>
  <scstep>
   <time name="diag">    0.50    0.50</time>
   <time name="diis">    1.63    1.63</time>
   <time name="orth">    0.01    0.01</time>
   <time name="total">    4.10    4.11</time>
   <energy>
    <i name="e_fr_energy">    -23.91725664 </i>
    <i name="e_wo_entrp">    -23.93033473 </i>
    <i name="e_0_energy">    -23.92161600 </i>
   </energy>
  </scstep>
  <scstep>
   <time name="diag">    0.51    0.51</time>
   <time name="diis">    1.34    1.34</time>
   <time name="orth">    0.01    0.01</time>
   <time name="total">    3.82    3.83</time>
   <energy>
    <i name="e_fr_energy">    -23.91727185 </i>
    <i name="e_wo_entrp">    -23.93035798 </i>
    <i name="e_0_energy">    -23.92163389 </i>
   </energy>
  </scstep>
  <scstep>
   <time name="diag">    0.48    0.49</time>
   <time name="diis">    1.22    1.22</time>
   <time name="orth">    0.01    0.01</time>
   <time name="total">    3.68    3.69</time>
   <energy>
    <i name="e_fr_energy">    -23.91727947 </i>
    <i name="e_wo_entrp">    -23.93036246 </i>
    <i name="e_0_energy">    -23.92164046 </i>
   </energy>
  </scstep>
  <scstep>
   <time name="diag">    0.48    0.48</time>
   <time name="diis">    1.29    1.29</time>
   <time name="orth">    0.01    0.01</time>
   <time name="total">    3.78    3.79</time>
   <energy>
    <i name="e_fr_energy">    -23.91728338 </i>
    <i name="e_wo_entrp">    -23.93034804 </i>
    <i name="e_0_energy">    -23.92163827 </i>
   </energy>
  </scstep>
  <scstep>
   <time name="diag">    0.48    0.48</time>
   <time name="diis">    1.21    1.21</time>
   <time name="orth">    0.01    0.01</time>
   <time name="total">    3.38    3.39</time>
   <energy>
    <i name="alphaZ">      0.24798131 </i>
    <i name="ewald">    119.46459299 </i>
    <i name="hartreedc">   -276.18188737 </i>
    <i name="XCdc">     24.35029358 </i>
    <i name="pawpsdc">    416.00498173 </i>
    <i name="pawaedc">   -416.76552457 </i>
    <i name="eentropy">      0.01305397 </i>
    <i name="bandstr">    -88.09253057 </i>
    <i name="atom">    197.04175453 </i>
    <i name="e_fr_energy">    -23.91728438 </i>
    <i name="e_wo_entrp">    -23.93033835 </i>
    <i name="e_0_energy">    -23.92163570 </i>
   </energy>
  </scstep>
  <structure>
   <crystal>
    <varray name="basis" >
     <v>       9.73572866       0.00000000       0.00000000 </v>
     <v>      -0.16556745      10.00546235       0.00000000 </v>
     <v>      -0.24660566       0.28506637      10.02860740 </v>
    </varray>
    <i name="volume">    976.89132638 </i>
    <varray name="rec_basis" >
     <v>       0.10271445       0.00169969       0.00247746 </v>
     <v>       0.00000000       0.09994541      -0.00284098 </v>
     <v>       0.00000000      -0.00000000       0.09971474 </v>
    </varray>
   </crystal>
   <varray name="positions" >
    <v>       0.53841506       0.40362400       0.35785381 </v>
    <v>       0.38846094       0.47941695       0.44127725 </v>
    <v>       0.55671932       0.57036795       0.44434969 </v>
    <v>       0.52138447       0.41044691       0.53941854 </v>
    <v>       0.50414217       0.46775340       0.44447010 </v>
   </varray>
  </structure>
  <varray name="forces" >
   <v>      -0.53796821       1.12160778       1.36765363 </v>
   <v>       1.30627639       0.06614993      -0.15214633 </v>
   <v>      -0.54515377      -1.12737990      -0.03635205 </v>
   <v>       0.33296570       0.45499289       0.05764332 </v>
   <v>      -0.72347589       0.95632712      -0.70184117 </v>
  </varray>
  <varray name="stress" >
   <v>      -2.78882035      -0.86606527       1.82179907 </v>
   <v>      -0.86606526      -4.22157540      -1.12693445 </v>
   <v>       1.82179907      -1.12693445      -3.00447936 </v>
  </varray>
  <energy>
   <i name="e_fr_energy">    -23.91728438 </i>
   <i name="e_wo_entrp">    -23.92163570 </i>
   <i name="e_0_energy">      0.01305397 </i>
   <i name="kinetic">      0.02323445 </i>
   <i name="lattice kinetic">      0.00000000 </i>
   <i name="nosepot">      0.00247733 </i>
   <i name="nosekinetic">      0.00222234 </i>
   <i name="total">    -23.88935026 </i>
  </energy>
  <dos>
   <i name="efermi">     -8.70518041 </i>
   <total>
    <array>
     <dimension dim="1">gridpoints</dimension>
     <dimension dim="2">spin</dimension>
     <field>energy</field>
     <field>total</field>
     <field>integrated</field>
     <set>
      <set comment="spin 1">
       <r>   -18.6259     0.0000     0.0000 </r>
       <r>   -18.5547     0.0000     0.0000 </r>
       <r>   -18.4836     0.0000     0.0000 </r>
       <r>   -18.4124     0.0000     0.0000 </r>
       <r>   -18.3412     0.0000     0.0000 </r>
       <r>   -18.2701    -0.0000    -0.0000 </r>
       <r>   -18.1989    -0.0000    -0.0000 </r>
       <r>   -18.1277    -0.0000    -0.0000 </r>
       <r>   -18.0566    -0.0000    -0.0000 </r>
       <r>   -17.9854    -0.0000    -0.0000 </r>
       <r>   -17.9143    -0.0000    -0.0000 </r>
       <r>   -17.8431    -0.0000    -0.0000 </r>
       <r>   -17.7719    -0.0000    -0.0000 </r>
       <r>   -17.7008    -0.0000    -0.0000 </r>
       <r>   -17.6296    -0.0000    -0.0000 </r>
       <r>   -17.5584    -0.0000    -0.0000 </r>
       <r>   -17.4873    -0.0000    -0.0000 </r>
       <r>   -17.4161    -0.0000    -0.0000 </r>
       <r>   -17.3449    -0.0001    -0.0000 </r>
       <r>   -17.2738    -0.0006    -0.0000 </r>
       <r>   -17.2026    -0.0043    -0.0004 </r>
       <r>   -17.1315    -0.0237    -0.0020 </r>
       <r>   -17.0603    -0.0952    -0.0088 </r>
       <r>   -16.9891    -0.2642    -0.0276 </r>
       <r>   -16.9180    -0.4373    -0.0587 </r>
       <r>   -16.8468    -0.0983    -0.0657 </r>
       <r>   -16.7756     1.6031     0.0484 </r>
       <r>   -16.7045     4.7746     0.3881 </r>
       <r>   -16.6333     7.7102     0.9368 </r>
       <r>   -16.5621     8.0530     1.5099 </r>
       <r>   -16.4910     5.4978     1.9011 </r>
       <r>   -16.4198     2.1755     2.0559 </r>
       <r>   -16.3487     0.1209     2.0646 </r>
       <r>   -16.2775    -0.4358     2.0335 </r>
       <r>   -16.2063    -0.3094     2.0115 </r>
       <r>   -16.1352    -0.1219     2.0028 </r>
       <r>   -16.0640    -0.0327     2.0005 </r>
       <r>   -15.9928    -0.0063     2.0001 </r>
       <r>   -15.9217    -0.0009     2.0000 </r>
       <r>   -15.8505    -0.0001     2.0000 </r>
       <r>   -15.7794    -0.0000     2.0000 </r>
       <r>   -15.7082    -0.0000     2.0000 </r>
       <r>   -15.6370    -0.0000     2.0000 </r>
       <r>   -15.5659    -0.0000     2.0000 </r>
       <r>   -15.4947    -0.0000     2.0000 </r>
       <r>   -15.4235    -0.0000     2.0000 </r>
       <r>   -15.3524    -0.0000     2.0000 </r>
       <r>   -15.2812     0.0000     2.0000 </r>
       <r>   -15.2100     0.0000     2.0000 </r>
       <r>   -15.1389     0.0000     2.0000 </r>
       <r>   -15.0677     0.0000     2.0000 </r>
       <r>   -14.9966     0.0000     2.0000 </r>
       <r>   -14.9254     0.0000     2.0000 </r>
       <r>   -14.8542     0.0000     2.0000 </r>
       <r>   -14.7831     0.0000     2.0000 </r>
       <r>   -14.7119     0.0000     2.0000 </r>
       <r>   -14.6407     0.0000     2.0000 </r>
       <r>   -14.5696     0.0000     2.0000 </r>
       <r>   -14.4984     0.0000     2.0000 </r>
       <r>   -14.4273     0.0000     2.0000 </r>
       <r>   -14.3561     0.0000     2.0000 </r>
       <r>   -14.2849     0.0000     2.0000 </r>
       <r>   -14.2138     0.0000     2.0000 </r>
       <r>   -14.1426     0.0000     2.0000 </r>
       <r>   -14.0714     0.0000     2.0000 </r>
       <r>   -14.0003     0.0000     2.0000 </r>
       <r>   -13.9291     0.0000     2.0000 </r>
       <r>   -13.8579     0.0000     2.0000 </r>
[...]
       <r>     0.2657    -0.6350     9.9311 </r>
       <r>     0.3380    -0.8074     9.8727 </r>
       <r>     0.4103     0.2291     9.8893 </r>
       <r>     0.4826     4.0298    10.1806 </r>
       <r>     0.5549    10.9596    10.9729 </r>
       <r>     0.6272    18.4304    12.3054 </r>
       <r>     0.6995    21.7472    13.8776 </r>
       <r>     0.7718    18.2184    15.1948 </r>
       <r>     0.8441    10.2710    15.9373 </r>
       <r>     0.9164     3.0903    16.1608 </r>
       <r>     0.9887    -0.4131    16.1309 </r>
       <r>     1.0610    -0.9896    16.0593 </r>
       <r>     1.1333    -0.5653    16.0185 </r>
       <r>     1.2056    -0.1977    16.0042 </r>
       <r>     1.2779    -0.0481    16.0007 </r>
       <r>     1.3502    -0.0085    16.0001 </r>
       <r>     1.4225    -0.0011    16.0000 </r>
       <r>     1.4948    -0.0001    16.0000 </r>
       <r>     1.5671    -0.0000    16.0000 </r>
       <r>     1.6394    -0.0000    16.0000 </r>
       <r>     1.7117    -0.0000    16.0000 </r>
       <r>     1.7840    -0.0000    16.0000 </r>
       <r>     1.8563    -0.0000    16.0000 </r>
       <r>     1.9286    -0.0000    16.0000 </r>
       <r>     2.0009    -0.0000    16.0000 </r>
       <r>     2.0732     0.0000    16.0000 </r>
       <r>     2.1455     0.0000    16.0000 </r>
       <r>     2.2178     0.0000    16.0000 </r>
       <r>     2.2901     0.0000    16.0000 </r>
       <r>     2.3624     0.0000    16.0000 </r>
       <r>     2.4346     0.0000    16.0000 </r>
       <r>     2.5069     0.0000    16.0000 </r>
       <r>     2.5792     0.0000    16.0000 </r>
       <r>     2.6515     0.0000    16.0000 </r>
       <r>     2.7238     0.0000    16.0000 </r>
      </set>
     </set>
    </array>
   </total>
  </dos>
  <time name="totalsc">   81.21   82.27</time>
  <eigenvalues>
   <array>
    <dimension dim="1">band</dimension>
    <dimension dim="2">kpoint</dimension>
    <dimension dim="3">spin</dimension>
    <field>eigene</field>
    <field>occ</field>
    <set>
     <set comment="spin 1">
      <set comment="kpoint 1">
       <r>  -16.6555    1.0000 </r>
       <r>   -9.3143    1.0000 </r>
       <r>   -9.0857    1.0064 </r>
       <r>   -8.8355    0.9936 </r>
       <r>   -0.3207    0.0000 </r>
       <r>    0.5698    0.0000 </r>
       <r>    0.6647    0.0000 </r>
       <r>    0.7088    0.0000 </r>
      </set>
      <set comment="kpoint 2">
       <r>  -16.6556    1.0000 </r>
       <r>   -9.3145    1.0000 </r>
       <r>   -9.0859    1.0064 </r>
       <r>   -8.8356    0.9937 </r>
       <r>   -0.3294    0.0000 </r>
       <r>    0.5859    0.0000 </r>
       <r>    0.6876    0.0000 </r>
       <r>    0.7214    0.0000 </r>
      </set>
      <set comment="kpoint 3">
       <r>  -16.6556    1.0000 </r>
       <r>   -9.3145    1.0000 </r>
       <r>   -9.0861    1.0064 </r>
       <r>   -8.8355    0.9936 </r>
       <r>   -0.3169    0.0000 </r>
       <r>    0.5371    0.0000 </r>
       <r>    0.6690    0.0000 </r>
       <r>    0.7097    0.0000 </r>
      </set>
      <set comment="kpoint 4">
       <r>  -16.6556    1.0000 </r>
       <r>   -9.3144    1.0000 </r>
       <r>   -9.0860    1.0064 </r>
       <r>   -8.8354    0.9934 </r>
       <r>   -0.3204    0.0000 </r>
       <r>    0.5701    0.0000 </r>
       <r>    0.6738    0.0000 </r>
       <r>    0.6913    0.0000 </r>
      </set>
     </set>
    </set>
   </array>
  </eigenvalues>
  <separator name="orbital magnetization" >
   <v name="MAGDIPOLOUT">      0.00000000      0.00000000      0.00000000</v>
  </separator>
  <dos>
   <i name="efermi">     -8.67267745 </i>
   <total>
    <array>
     <dimension dim="1">gridpoints</dimension>
     <dimension dim="2">spin</dimension>
     <field>energy</field>
     <field>total</field>
     <field>integrated</field>
     <set>
      <set comment="spin 1">
       <r>   -18.6556     0.0000     0.0000 </r>
       <r>   -18.5844     0.0000     0.0000 </r>
       <r>   -18.5131     0.0000     0.0000 </r>
       <r>   -18.4419     0.0000     0.0000 </r>
       <r>   -18.3706     0.0000     0.0000 </r>
       <r>   -18.2993    -0.0000    -0.0000 </r>
       <r>   -18.2281    -0.0000    -0.0000 </r>
       <r>   -18.1568    -0.0000    -0.0000 </r>
       <r>   -18.0856    -0.0000    -0.0000 </r>
       <r>   -18.0143    -0.0000    -0.0000 </r>
       <r>   -17.9431    -0.0000    -0.0000 </r>
       <r>   -17.8718    -0.0000    -0.0000 </r>
       <r>   -17.8005    -0.0000    -0.0000 </r>
       <r>   -17.7293    -0.0000    -0.0000 </r>
       <r>   -17.6580    -0.0000    -0.0000 </r>
       <r>   -17.5868    -0.0000    -0.0000 </r>
       <r>   -17.5155    -0.0000    -0.0000 </r>
       <r>   -17.4443    -0.0000    -0.0000 </r>
       <r>   -17.3730    -0.0001    -0.0000 </r>
       <r>   -17.3017    -0.0006    -0.0000 </r>
       <r>   -17.2305    -0.0045    -0.0004 </r>
       <r>   -17.1592    -0.0247    -0.0021 </r>
       <r>   -17.0880    -0.0985    -0.0092 </r>
       <r>   -17.0167    -0.2705    -0.0284 </r>
       <r>   -16.9455    -0.4385    -0.0597 </r>
       <r>   -16.8742    -0.0688    -0.0646 </r>
       <r>   -16.8029     1.6898     0.0558 </r>
       <r>   -16.7317     4.8956     0.4047 </r>
       <r>   -16.6604     7.7781     0.9589 </r>
       <r>   -16.5892     8.0013     1.5291 </r>
       <r>   -16.5179     5.3660     1.9114 </r>
       <r>   -16.4467     2.0612     2.0583 </r>
       <r>   -16.3754     0.0725     2.0635 </r>
       <r>   -16.3042    -0.4381     2.0323 </r>
       <r>   -16.2329    -0.2999     2.0109 </r>
       <r>   -16.1616    -0.1157     2.0026 </r>
       <r>   -16.0904    -0.0305     2.0005 </r>
       <r>   -16.0191    -0.0058     2.0001 </r>
       <r>   -15.9479    -0.0008     2.0000 </r>
       <r>   -15.8766    -0.0001     2.0000 </r>
       <r>   -15.8054    -0.0000     2.0000 </r>
       <r>   -15.7341    -0.0000     2.0000 </r>
       <r>   -15.6628    -0.0000     2.0000 </r>
       <r>   -15.5916    -0.0000     2.0000 </r>
       <r>   -15.5203    -0.0000     2.0000 </r>
       <r>   -15.4491    -0.0000     2.0000 </r>
       <r>   -15.3778    -0.0000     2.0000 </r>
       <r>   -15.3066     0.0000     2.0000 </r>
       <r>   -15.2353     0.0000     2.0000 </r>
       <r>   -15.1640     0.0000     2.0000 </r>
       <r>   -15.0928     0.0000     2.0000 </r>
       <r>   -15.0215     0.0000     2.0000 </r>
       <r>   -14.9503     0.0000     2.0000 </r>
       <r>   -14.8790     0.0000     2.0000 </r>
       <r>   -14.8078     0.0000     2.0000 </r>
       <r>   -14.7365     0.0000     2.0000 </r>
       <r>   -14.6652     0.0000     2.0000 </r>
       <r>   -14.5940     0.0000     2.0000 </r>
       <r>   -14.5227     0.0000     2.0000 </r>
       <r>   -14.4515     0.0000     2.0000 </r>
       <r>   -14.3802     0.0000     2.0000 </r>
       <r>   -14.3090     0.0000     2.0000 </r>
       <r>   -14.2377     0.0000     2.0000 </r>
       <r>   -14.1664     0.0000     2.0000 </r>
       <r>   -14.0952     0.0000     2.0000 </r>
       <r>   -14.0239     0.0000     2.0000 </r>
       <r>   -13.9527     0.0000     2.0000 </r>
       <r>   -13.8814     0.0000     2.0000 </r>
       <r>   -13.8102     0.0000     2.0000 </r>
       <r>   -13.7389     0.0000     2.0000 </r>
       <r>   -13.6676     0.0000     2.0000 </r>
       <r>   -13.5964     0.0000     2.0000 </r>
       <r>   -13.5251     0.0000     2.0000 </r>
       <r>   -13.4539     0.0000     2.0000 </r>
       <r>   -13.3826     0.0000     2.0000 </r>
       <r>   -13.3114     0.0000     2.0000 </r>
       <r>   -13.2401     0.0000     2.0000 </r>
       <r>   -13.1689     0.0000     2.0000 </r>
       <r>   -13.0976     0.0000     2.0000 </r>
       <r>   -13.0263     0.0000     2.0000 </r>
       <r>   -12.9551     0.0000     2.0000 </r>
       <r>   -12.8838     0.0000     2.0000 </r>
       <r>   -12.8126     0.0000     2.0000 </r>
       <r>   -12.7413     0.0000     2.0000 </r>
       <r>   -12.6701     0.0000     2.0000 </r>
       <r>   -12.5988     0.0000     2.0000 </r>
       <r>   -12.5275     0.0000     2.0000 </r>
       <r>   -12.4563     0.0000     2.0000 </r>
       <r>   -12.3850     0.0000     2.0000 </r>
       <r>   -12.3138     0.0000     2.0000 </r>
       <r>   -12.2425     0.0000     2.0000 </r>
       <r>   -12.1713     0.0000     2.0000 </r>
       <r>   -12.1000     0.0000     2.0000 </r>
       <r>   -12.0287     0.0000     2.0000 </r>
       <r>   -11.9575     0.0000     2.0000 </r>
       <r>   -11.8862     0.0000     2.0000 </r>
       <r>   -11.8150     0.0000     2.0000 </r>
       <r>   -11.7437     0.0000     2.0000 </r>
       <r>   -11.6725     0.0000     2.0000 </r>
       <r>   -11.6012     0.0000     2.0000 </r>
       <r>   -11.5299     0.0000     2.0000 </r>
       <r>   -11.4587     0.0000     2.0000 </r>
       <r>   -11.3874     0.0000     2.0000 </r>
       <r>   -11.3162     0.0000     2.0000 </r>
       <r>   -11.2449     0.0000     2.0000 </r>
       <r>   -11.1737     0.0000     2.0000 </r>
       <r>   -11.1024     0.0000     2.0000 </r>
       <r>   -11.0311     0.0000     2.0000 </r>
       <r>   -10.9599    -0.0000     2.0000 </r>
       <r>   -10.8886    -0.0000     2.0000 </r>
       <r>   -10.8174    -0.0000     2.0000 </r>
       <r>   -10.7461    -0.0000     2.0000 </r>
       <r>   -10.6749    -0.0000     2.0000 </r>
       <r>   -10.6036    -0.0000     2.0000 </r>
       <r>   -10.5323    -0.0000     2.0000 </r>
       <r>   -10.4611    -0.0000     2.0000 </r>
       <r>   -10.3898    -0.0000     2.0000 </r>
       <r>   -10.3186    -0.0000     2.0000 </r>
       <r>   -10.2473    -0.0000     2.0000 </r>
       <r>   -10.1761    -0.0000     2.0000 </r>
       <r>   -10.1048    -0.0000     2.0000 </r>
       <r>   -10.0336    -0.0001     2.0000 </r>
       <r>    -9.9623    -0.0006     2.0000 </r>
       <r>    -9.8910    -0.0043     1.9996 </r>
       <r>    -9.8198    -0.0239     1.9979 </r>
       <r>    -9.7485    -0.0960     1.9911 </r>
       <r>    -9.6773    -0.2683     1.9720 </r>
       <r>    -9.6060    -0.4547     1.9396 </r>
       <r>    -9.5348    -0.1648     1.9278 </r>
       <r>    -9.4635     1.4039     2.0279 </r>
       <r>    -9.3922     4.3856     2.3404 </r>
       <r>    -9.3210     7.4486     2.8711 </r>
       <r>    -9.2497     9.0330     3.5148 </r>
       <r>    -9.1785     9.2141     4.1714 </r>
       <r>    -9.1072     8.9819     4.8114 </r>
       <r>    -9.0360     8.5661     5.4218 </r>
       <r>    -8.9647     8.1022     5.9991 </r>
       <r>    -8.8934     8.2130     6.5844 </r>
       <r>    -8.8222     8.4090     7.1836 </r>
       <r>    -8.7509     7.0987     7.6894 </r>
       <r>    -8.6797     4.1274     7.9835 </r>
       <r>    -8.6084     1.2409     8.0719 </r>
       <r>    -8.5372    -0.2126     8.0568 </r>
       <r>    -8.4659    -0.4400     8.0254 </r>
       <r>    -8.3946    -0.2468     8.0078 </r>
       <r>    -8.3234    -0.0853     8.0018 </r>
       <r>    -8.2521    -0.0206     8.0003 </r>
       <r>    -8.1809    -0.0036     8.0000 </r>
       <r>    -8.1096    -0.0005     8.0000 </r>
       <r>    -8.0384    -0.0000     8.0000 </r>
       <r>    -7.9671    -0.0000     8.0000 </r>
       <r>    -7.8958    -0.0000     8.0000 </r>
       <r>    -7.8246    -0.0000     8.0000 </r>
       <r>    -7.7533    -0.0000     8.0000 </r>
       <r>    -7.6821    -0.0000     8.0000 </r>
       <r>    -7.6108    -0.0000     8.0000 </r>
       <r>    -7.5396     0.0000     8.0000 </r>
       <r>    -7.4683     0.0000     8.0000 </r>
       <r>    -7.3971     0.0000     8.0000 </r>
       <r>    -7.3258     0.0000     8.0000 </r>
       <r>    -7.2545     0.0000     8.0000 </r>
       <r>    -7.1833     0.0000     8.0000 </r>
       <r>    -7.1120     0.0000     8.0000 </r>
       <r>    -7.0408     0.0000     8.0000 </r>
       <r>    -6.9695     0.0000     8.0000 </r>
       <r>    -6.8983     0.0000     8.0000 </r>
       <r>    -6.8270     0.0000     8.0000 </r>
       <r>    -6.7557     0.0000     8.0000 </r>
       <r>    -6.6845     0.0000     8.0000 </r>
       <r>    -6.6132     0.0000     8.0000 </r>
       <r>    -6.5420     0.0000     8.0000 </r>
       <r>    -6.4707     0.0000     8.0000 </r>
       <r>    -6.3995     0.0000     8.0000 </r>
       <r>    -6.3282     0.0000     8.0000 </r>
       <r>    -6.2569     0.0000     8.0000 </r>
       <r>    -6.1857     0.0000     8.0000 </r>
       <r>    -6.1144     0.0000     8.0000 </r>
       <r>    -6.0432     0.0000     8.0000 </r>
       <r>    -5.9719     0.0000     8.0000 </r>
       <r>    -5.9007     0.0000     8.0000 </r>
       <r>    -5.8294     0.0000     8.0000 </r>
       <r>    -5.7581     0.0000     8.0000 </r>
       <r>    -5.6869     0.0000     8.0000 </r>
       <r>    -5.6156     0.0000     8.0000 </r>
       <r>    -5.5444     0.0000     8.0000 </r>
       <r>    -5.4731     0.0000     8.0000 </r>
       <r>    -5.4019     0.0000     8.0000 </r>
       <r>    -5.3306     0.0000     8.0000 </r>
       <r>    -5.2593     0.0000     8.0000 </r>
       <r>    -5.1881     0.0000     8.0000 </r>
       <r>    -5.1168     0.0000     8.0000 </r>
       <r>    -5.0456     0.0000     8.0000 </r>
       <r>    -4.9743     0.0000     8.0000 </r>
       <r>    -4.9031     0.0000     8.0000 </r>
       <r>    -4.8318     0.0000     8.0000 </r>
       <r>    -4.7605     0.0000     8.0000 </r>
       <r>    -4.6893     0.0000     8.0000 </r>
       <r>    -4.6180     0.0000     8.0000 </r>
       <r>    -4.5468     0.0000     8.0000 </r>
       <r>    -4.4755     0.0000     8.0000 </r>
       <r>    -4.4043     0.0000     8.0000 </r>
       <r>    -4.3330     0.0000     8.0000 </r>
       <r>    -4.2618     0.0000     8.0000 </r>
       <r>    -4.1905     0.0000     8.0000 </r>
       <r>    -4.1192     0.0000     8.0000 </r>
       <r>    -4.0480     0.0000     8.0000 </r>
       <r>    -3.9767     0.0000     8.0000 </r>
       <r>    -3.9055     0.0000     8.0000 </r>
       <r>    -3.8342     0.0000     8.0000 </r>
       <r>    -3.7630     0.0000     8.0000 </r>
       <r>    -3.6917     0.0000     8.0000 </r>
       <r>    -3.6204     0.0000     8.0000 </r>
       <r>    -3.5492     0.0000     8.0000 </r>
       <r>    -3.4779     0.0000     8.0000 </r>
       <r>    -3.4067     0.0000     8.0000 </r>
       <r>    -3.3354     0.0000     8.0000 </r>
       <r>    -3.2642     0.0000     8.0000 </r>
       <r>    -3.1929     0.0000     8.0000 </r>
       <r>    -3.1216     0.0000     8.0000 </r>
       <r>    -3.0504     0.0000     8.0000 </r>
       <r>    -2.9791     0.0000     8.0000 </r>
       <r>    -2.9079     0.0000     8.0000 </r>
       <r>    -2.8366     0.0000     8.0000 </r>
       <r>    -2.7654     0.0000     8.0000 </r>
       <r>    -2.6941     0.0000     8.0000 </r>
       <r>    -2.6228     0.0000     8.0000 </r>
       <r>    -2.5516     0.0000     8.0000 </r>
       <r>    -2.4803     0.0000     8.0000 </r>
       <r>    -2.4091     0.0000     8.0000 </r>
       <r>    -2.3378     0.0000     8.0000 </r>
       <r>    -2.2666     0.0000     8.0000 </r>
       <r>    -2.1953     0.0000     8.0000 </r>
       <r>    -2.1240     0.0000     8.0000 </r>
       <r>    -2.0528     0.0000     8.0000 </r>
       <r>    -1.9815    -0.0000     8.0000 </r>
       <r>    -1.9103    -0.0000     8.0000 </r>
       <r>    -1.8390    -0.0000     8.0000 </r>
       <r>    -1.7678    -0.0000     8.0000 </r>
       <r>    -1.6965    -0.0000     8.0000 </r>
       <r>    -1.6252    -0.0000     8.0000 </r>
       <r>    -1.5540    -0.0000     8.0000 </r>
       <r>    -1.4827    -0.0000     8.0000 </r>
       <r>    -1.4115    -0.0000     8.0000 </r>
       <r>    -1.3402    -0.0000     8.0000 </r>
       <r>    -1.2690    -0.0000     8.0000 </r>
       <r>    -1.1977    -0.0000     8.0000 </r>
       <r>    -1.1265    -0.0000     8.0000 </r>
       <r>    -1.0552    -0.0000     8.0000 </r>
       <r>    -0.9839    -0.0004     8.0000 </r>
       <r>    -0.9127    -0.0030     7.9998 </r>
       <r>    -0.8414    -0.0175     7.9985 </r>
       <r>    -0.7702    -0.0747     7.9932 </r>
       <r>    -0.6989    -0.2242     7.9772 </r>
       <r>    -0.6277    -0.4194     7.9473 </r>
       <r>    -0.5564    -0.2407     7.9302 </r>
       <r>    -0.4851     1.1511     8.0122 </r>
       <r>    -0.4139     4.1184     8.3057 </r>
       <r>    -0.3426     7.2943     8.8254 </r>
       <r>    -0.2714     8.2345     9.4122 </r>
       <r>    -0.2001     6.1054     9.8473 </r>
       <r>    -0.1289     2.7309    10.0418 </r>
       <r>    -0.0576     0.3697    10.0682 </r>
       <r>     0.0137    -0.4194    10.0383 </r>
       <r>     0.0849    -0.3940    10.0102 </r>
       <r>     0.1562    -0.3213     9.9873 </r>
       <r>     0.2274    -0.4977     9.9519 </r>
       <r>     0.2987    -0.7761     9.8966 </r>
       <r>     0.3699    -0.3993     9.8681 </r>
       <r>     0.4412     2.0181    10.0119 </r>
       <r>     0.5125     7.5021    10.5465 </r>
       <r>     0.5837    14.9639    11.6128 </r>
       <r>     0.6550    20.6553    13.0846 </r>
       <r>     0.7262    20.6388    14.5553 </r>
       <r>     0.7975    14.6499    15.5992 </r>
       <r>     0.8687     6.7070    16.0771 </r>
       <r>     0.9400     1.1661    16.1602 </r>
       <r>     1.0113    -0.8526    16.0994 </r>
       <r>     1.0825    -0.8426    16.0394 </r>
       <r>     1.1538    -0.3962    16.0111 </r>
       <r>     1.2250    -0.1235    16.0023 </r>
       <r>     1.2963    -0.0276    16.0004 </r>
       <r>     1.3675    -0.0046    16.0000 </r>
       <r>     1.4388    -0.0006    16.0000 </r>
       <r>     1.5101    -0.0001    16.0000 </r>
       <r>     1.5813    -0.0000    16.0000 </r>
       <r>     1.6526    -0.0000    16.0000 </r>
       <r>     1.7238    -0.0000    16.0000 </r>
       <r>     1.7951    -0.0000    16.0000 </r>
       <r>     1.8663    -0.0000    16.0000 </r>
       <r>     1.9376    -0.0000    16.0000 </r>
       <r>     2.0088    -0.0000    16.0000 </r>
       <r>     2.0801     0.0000    16.0000 </r>
       <r>     2.1514     0.0000    16.0000 </r>
       <r>     2.2226     0.0000    16.0000 </r>
       <r>     2.2939     0.0000    16.0000 </r>
       <r>     2.3651     0.0000    16.0000 </r>
       <r>     2.4364     0.0000    16.0000 </r>
       <r>     2.5076     0.0000    16.0000 </r>
       <r>     2.5789     0.0000    16.0000 </r>
       <r>     2.6502     0.0000    16.0000 </r>
       <r>     2.7214     0.0000    16.0000 </r>
      </set>
     </set>
    </array>
   </total>
  </dos>
 </calculation>
 <structure name="finalpos" >
  <crystal>
   <varray name="basis" >
    <v>       9.73572866       0.00000000       0.00000000 </v>
    <v>      -0.16556745      10.00546235       0.00000000 </v>
    <v>      -0.24660566       0.28506637      10.02860740 </v>
   </varray>
   <i name="volume">    976.89132638 </i>
   <varray name="rec_basis" >
    <v>       0.10271445       0.00169969       0.00247746 </v>
    <v>       0.00000000       0.09994541      -0.00284098 </v>
    <v>       0.00000000      -0.00000000       0.09971474 </v>
   </varray>
  </crystal>
  <varray name="positions" >
   <v>       0.54191192       0.41349730       0.36172676 </v>
   <v>       0.38937051       0.47762658       0.43290431 </v>
   <v>       0.55113193       0.56546696       0.44348827 </v>
   <v>       0.54014957       0.41372049       0.54017762 </v>
   <v>       0.50267817       0.46721593       0.44485328 </v>
  </varray>
  <varray name="velocities" >
   <v>       0.00239917      -0.00381062       0.00070453 </v>
   <v>      -0.00146644       0.00017779      -0.00266577 </v>
   <v>      -0.00253731       0.00071603       0.00073097 </v>
   <v>       0.00462512      -0.00419273       0.00062082 </v>
   <v>      -0.00025148       0.00059192       0.00005074 </v>
  </varray>
 </structure>
</modeling>
