unknown system                          
           1
     9.735729    0.000000    0.000000
    -0.165567   10.005462    0.000000
    -0.246606    0.285066   10.028607
   H    C 
   4   1
Direct configuration=     1
   0.53813752  0.40660902  0.36037898
   0.39496579  0.48035953  0.43834041
   0.55186776  0.56561646  0.44252365
   0.52820858  0.41639857  0.53920712
   0.50345948  0.46732647  0.44467401
Direct configuration=     2
   0.53699882  0.40628212  0.36203614
   0.39015905  0.48079676  0.43981473
   0.55477002  0.56952806  0.44310807
   0.52425799  0.41194514  0.53906352
   0.50404176  0.46736240  0.44437659
Direct configuration=     3
   0.53841506  0.40362400  0.35785381
   0.38846094  0.47941695  0.44127725
   0.55671932  0.57036795  0.44434969
   0.52138447  0.41044691  0.53941854
   0.50414217  0.46775340  0.44447010
Direct configuration=     4
   0.53792025  0.40481529  0.35885794
   0.39193423  0.47800357  0.44199024
   0.55643520  0.56656060  0.44528734
   0.51996830  0.41037212  0.53985395
   0.50403575  0.46809510  0.44421282
Direct configuration=     5
   0.53625437  0.40856392  0.36294621
   0.39737852  0.47803574  0.44138986
   0.55554225  0.56318710  0.44531841
   0.52105116  0.41252055  0.54038791
   0.50370536  0.46788232  0.44387539
Direct configuration=     6
   0.53554945  0.41077623  0.36231727
   0.39374269  0.47981029  0.44109686
   0.55626483  0.56235974  0.44288232
   0.52454702  0.41648477  0.54136443
   0.50371555  0.46728922  0.44407366
Direct configuration=     7
   0.53564713  0.41193221  0.35728817
   0.39066265  0.48091161  0.44003936
   0.55755436  0.56366969  0.44130216
   0.52933431  0.41785182  0.54291867
   0.50345791  0.46687840  0.44458257
Direct configuration=     8
   0.53833635  0.41302582  0.35405935
   0.39110675  0.47998528  0.43866835
   0.55885989  0.56736482  0.44085360
   0.53084432  0.41854660  0.54187178
   0.50296263  0.46649899  0.44509005
Direct configuration=     9
   0.53899138  0.41644961  0.35610068
   0.39502565  0.47835444  0.43731837
   0.55677592  0.56702161  0.44103647
   0.53263802  0.41883213  0.54010425
   0.50260598  0.46635451  0.44516442
Direct configuration=    10
   0.53951275  0.41730792  0.36102222
   0.39083694  0.47744878  0.43557009
   0.55366924  0.56475093  0.44275730
   0.53552445  0.41791322  0.53955680
   0.50292965  0.46662401  0.44480253
