   5   5   0****
  0.1957784E+03  0.9913971E-09  0.9784226E-09  0.1009335E-08  0.2000000E-14
   50.000000000000000     
  CAR 
 unknown system                          
      2.72262182    -18.93606349  301     -9.12800610      1.00000000
    -18.936  0.0000E+00  0.0000E+00
    -18.864  0.0000E+00  0.0000E+00
    -18.792  0.0000E+00  0.0000E+00
    -18.719  0.0000E+00  0.0000E+00
    -18.647  0.0000E+00  0.0000E+00
    -18.575 -0.4353E-27 -0.3143E-28
    -18.503 -0.1351E-24 -0.9788E-26
    -18.431 -0.3233E-22 -0.2344E-23
    -18.358 -0.5945E-20 -0.4316E-21
    -18.286 -0.8399E-18 -0.6107E-19
    -18.214 -0.9113E-16 -0.6640E-17
    -18.142 -0.7590E-14 -0.5546E-15
    -18.070 -0.4695E-12 -0.3445E-13
    -17.998 -0.2292E-10 -0.1689E-11
    -17.925 -0.8550E-09 -0.6342E-10
    -17.853 -0.2437E-07 -0.1823E-08
    -17.781 -0.5294E-06 -0.4004E-07
    -17.709 -0.8743E-05 -0.6712E-06
    -17.637 -0.1093E-03 -0.8564E-05
    -17.564 -0.1029E-02 -0.8285E-04
    -17.492 -0.7224E-02 -0.6044E-03
    -17.420 -0.3724E-01 -0.3293E-02
    -17.348 -0.1368E+00 -0.1317E-01
    -17.276 -0.3343E+00 -0.3731E-01
    -17.203 -0.4199E+00 -0.6762E-01
    -17.131  0.3158E+00 -0.4482E-01
    -17.059  0.2658E+01  0.1470E+00
    -16.987  0.6074E+01  0.5856E+00
    -16.915  0.8240E+01  0.1180E+01
    -16.842  0.7257E+01  0.1704E+01
    -16.770  0.4016E+01  0.1994E+01
    -16.698  0.1056E+01  0.2071E+01
    -16.626 -0.2755E+00  0.2051E+01
    -16.554 -0.4104E+00  0.2021E+01
    -16.481 -0.2079E+00  0.2006E+01
    -16.409 -0.6591E-01  0.2001E+01
    -16.337 -0.1459E-01  0.2000E+01
    -16.265 -0.2351E-02  0.2000E+01
    -16.193 -0.2809E-03  0.2000E+01
    -16.120 -0.2518E-04  0.2000E+01
    -16.048 -0.1706E-05  0.2000E+01
    -15.976 -0.8772E-07  0.2000E+01
    -15.904 -0.3435E-08  0.2000E+01
    -15.832 -0.1027E-09  0.2000E+01
    -15.759 -0.2345E-11  0.2000E+01
    -15.687 -0.4306E-13  0.2000E+01
    -15.615  0.0000E+00  0.2000E+01
    -15.543  0.0000E+00  0.2000E+01
    -15.471  0.0000E+00  0.2000E+01
    -15.398  0.0000E+00  0.2000E+01
    -15.326  0.0000E+00  0.2000E+01
    -15.254  0.0000E+00  0.2000E+01
    -15.182  0.0000E+00  0.2000E+01
    -15.110  0.0000E+00  0.2000E+01
    -15.038  0.0000E+00  0.2000E+01
    -14.965  0.0000E+00  0.2000E+01
    -14.893  0.0000E+00  0.2000E+01
    -14.821  0.0000E+00  0.2000E+01
    -14.749  0.0000E+00  0.2000E+01
    -14.677  0.0000E+00  0.2000E+01
    -14.604  0.0000E+00  0.2000E+01
    -14.532  0.0000E+00  0.2000E+01
    -14.460  0.0000E+00  0.2000E+01
    -14.388  0.0000E+00  0.2000E+01
    -14.316  0.0000E+00  0.2000E+01
    -14.243  0.0000E+00  0.2000E+01
    -14.171  0.0000E+00  0.2000E+01
    -14.099  0.0000E+00  0.2000E+01
    -14.027  0.0000E+00  0.2000E+01
    -13.955  0.0000E+00  0.2000E+01
    -13.882  0.0000E+00  0.2000E+01
    -13.810  0.0000E+00  0.2000E+01
    -13.738  0.0000E+00  0.2000E+01
    -13.666  0.0000E+00  0.2000E+01
    -13.594  0.0000E+00  0.2000E+01
    -13.521  0.0000E+00  0.2000E+01
    -13.449  0.0000E+00  0.2000E+01
    -13.377  0.0000E+00  0.2000E+01
    -13.305  0.0000E+00  0.2000E+01
    -13.233  0.0000E+00  0.2000E+01
    -13.160  0.0000E+00  0.2000E+01
    -13.088  0.0000E+00  0.2000E+01
    -13.016  0.0000E+00  0.2000E+01
    -12.944  0.0000E+00  0.2000E+01
    -12.872  0.0000E+00  0.2000E+01
    -12.799  0.0000E+00  0.2000E+01
    -12.727  0.0000E+00  0.2000E+01
    -12.655  0.0000E+00  0.2000E+01
    -12.583  0.0000E+00  0.2000E+01
    -12.511  0.0000E+00  0.2000E+01
    -12.438  0.0000E+00  0.2000E+01
    -12.366  0.0000E+00  0.2000E+01
    -12.294  0.0000E+00  0.2000E+01
    -12.222  0.0000E+00  0.2000E+01
    -12.150  0.0000E+00  0.2000E+01
    -12.077  0.0000E+00  0.2000E+01
    -12.005  0.0000E+00  0.2000E+01
    -11.933  0.0000E+00  0.2000E+01
    -11.861  0.0000E+00  0.2000E+01
    -11.789  0.0000E+00  0.2000E+01
    -11.717  0.0000E+00  0.2000E+01
    -11.644  0.0000E+00  0.2000E+01
    -11.572  0.0000E+00  0.2000E+01
    -11.500  0.0000E+00  0.2000E+01
    -11.428  0.0000E+00  0.2000E+01
    -11.356  0.0000E+00  0.2000E+01
    -11.283  0.0000E+00  0.2000E+01
    -11.211  0.0000E+00  0.2000E+01
    -11.139  0.0000E+00  0.2000E+01
    -11.067  0.0000E+00  0.2000E+01
    -10.995 -0.5021E-28  0.2000E+01
    -10.922 -0.1831E-25  0.2000E+01
    -10.850 -0.4871E-23  0.2000E+01
    -10.778 -0.9978E-21  0.2000E+01
    -10.706 -0.1573E-18  0.2000E+01
    -10.634 -0.1909E-16  0.2000E+01
    -10.561 -0.1783E-14  0.2000E+01
    -10.489 -0.1251E-12  0.2000E+01
    -10.417 -0.6847E-11  0.2000E+01
    -10.345 -0.2896E-09  0.2000E+01
    -10.273 -0.9396E-08  0.2000E+01
    -10.200 -0.2336E-06  0.2000E+01
    -10.128 -0.4444E-05  0.2000E+01
    -10.056 -0.6447E-04  0.2000E+01
     -9.984 -0.7107E-03  0.2000E+01
     -9.912 -0.5913E-02  0.2000E+01
     -9.839 -0.3676E-01  0.1997E+01
     -9.767 -0.1677E+00  0.1985E+01
     -9.695 -0.5406E+00  0.1946E+01
     -9.623 -0.1119E+01  0.1865E+01
     -9.551 -0.9323E+00  0.1798E+01
     -9.478  0.2354E+01  0.1968E+01
     -9.406  0.1038E+02  0.2717E+01
     -9.334  0.2014E+02  0.4171E+01
     -9.262  0.2450E+02  0.5940E+01
     -9.190  0.1962E+02  0.7356E+01
     -9.117  0.9750E+01  0.8060E+01
     -9.045  0.1984E+01  0.8203E+01
     -8.973 -0.1026E+01  0.8129E+01
     -8.901 -0.1093E+01  0.8050E+01
     -8.829 -0.5068E+00  0.8014E+01
     -8.756 -0.1522E+00  0.8003E+01
     -8.684 -0.3233E-01  0.8000E+01
     -8.612 -0.5035E-02  0.8000E+01
     -8.540 -0.5848E-03  0.8000E+01
     -8.468 -0.5116E-04  0.8000E+01
     -8.396 -0.3392E-05  0.8000E+01
     -8.323 -0.1711E-06  0.8000E+01
     -8.251 -0.6591E-08  0.8000E+01
     -8.179 -0.1941E-09  0.8000E+01
     -8.107 -0.4373E-11  0.8000E+01
     -8.035 -0.7997E-13  0.8000E+01
     -7.962  0.0000E+00  0.8000E+01
     -7.890  0.0000E+00  0.8000E+01
     -7.818  0.0000E+00  0.8000E+01
     -7.746  0.0000E+00  0.8000E+01
     -7.674  0.0000E+00  0.8000E+01
     -7.601  0.0000E+00  0.8000E+01
     -7.529  0.0000E+00  0.8000E+01
     -7.457  0.0000E+00  0.8000E+01
     -7.385  0.0000E+00  0.8000E+01
     -7.313  0.0000E+00  0.8000E+01
     -7.240  0.0000E+00  0.8000E+01
     -7.168  0.0000E+00  0.8000E+01
     -7.096  0.0000E+00  0.8000E+01
     -7.024  0.0000E+00  0.8000E+01
     -6.952  0.0000E+00  0.8000E+01
     -6.879  0.0000E+00  0.8000E+01
     -6.807  0.0000E+00  0.8000E+01
     -6.735  0.0000E+00  0.8000E+01
     -6.663  0.0000E+00  0.8000E+01
     -6.591  0.0000E+00  0.8000E+01
     -6.518  0.0000E+00  0.8000E+01
     -6.446  0.0000E+00  0.8000E+01
     -6.374  0.0000E+00  0.8000E+01
     -6.302  0.0000E+00  0.8000E+01
     -6.230  0.0000E+00  0.8000E+01
     -6.157  0.0000E+00  0.8000E+01
     -6.085  0.0000E+00  0.8000E+01
     -6.013  0.0000E+00  0.8000E+01
     -5.941  0.0000E+00  0.8000E+01
     -5.869  0.0000E+00  0.8000E+01
     -5.796  0.0000E+00  0.8000E+01
     -5.724  0.0000E+00  0.8000E+01
     -5.652  0.0000E+00  0.8000E+01
     -5.580  0.0000E+00  0.8000E+01
     -5.508  0.0000E+00  0.8000E+01
     -5.435  0.0000E+00  0.8000E+01
     -5.363  0.0000E+00  0.8000E+01
     -5.291  0.0000E+00  0.8000E+01
     -5.219  0.0000E+00  0.8000E+01
     -5.147  0.0000E+00  0.8000E+01
     -5.075  0.0000E+00  0.8000E+01
     -5.002  0.0000E+00  0.8000E+01
     -4.930  0.0000E+00  0.8000E+01
     -4.858  0.0000E+00  0.8000E+01
     -4.786  0.0000E+00  0.8000E+01
     -4.714  0.0000E+00  0.8000E+01
     -4.641  0.0000E+00  0.8000E+01
     -4.569  0.0000E+00  0.8000E+01
     -4.497  0.0000E+00  0.8000E+01
     -4.425  0.0000E+00  0.8000E+01
     -4.353  0.0000E+00  0.8000E+01
     -4.280  0.0000E+00  0.8000E+01
     -4.208  0.0000E+00  0.8000E+01
     -4.136  0.0000E+00  0.8000E+01
     -4.064  0.0000E+00  0.8000E+01
     -3.992  0.0000E+00  0.8000E+01
     -3.919  0.0000E+00  0.8000E+01
     -3.847  0.0000E+00  0.8000E+01
     -3.775  0.0000E+00  0.8000E+01
     -3.703  0.0000E+00  0.8000E+01
     -3.631  0.0000E+00  0.8000E+01
     -3.558  0.0000E+00  0.8000E+01
     -3.486  0.0000E+00  0.8000E+01
     -3.414  0.0000E+00  0.8000E+01
     -3.342  0.0000E+00  0.8000E+01
     -3.270  0.0000E+00  0.8000E+01
     -3.197  0.0000E+00  0.8000E+01
     -3.125  0.0000E+00  0.8000E+01
     -3.053  0.0000E+00  0.8000E+01
     -2.981  0.0000E+00  0.8000E+01
     -2.909  0.0000E+00  0.8000E+01
     -2.836  0.0000E+00  0.8000E+01
     -2.764  0.0000E+00  0.8000E+01
     -2.692  0.0000E+00  0.8000E+01
     -2.620  0.0000E+00  0.8000E+01
     -2.548  0.0000E+00  0.8000E+01
     -2.475  0.0000E+00  0.8000E+01
     -2.403  0.0000E+00  0.8000E+01
     -2.331  0.0000E+00  0.8000E+01
     -2.259  0.0000E+00  0.8000E+01
     -2.187  0.0000E+00  0.8000E+01
     -2.114  0.0000E+00  0.8000E+01
     -2.042  0.0000E+00  0.8000E+01
     -1.970 -0.6460E-28  0.8000E+01
     -1.898 -0.2182E-25  0.8000E+01
     -1.826 -0.5681E-23  0.8000E+01
     -1.754 -0.1137E-20  0.8000E+01
     -1.681 -0.1748E-18  0.8000E+01
     -1.609 -0.2065E-16  0.8000E+01
     -1.537 -0.1873E-14  0.8000E+01
     -1.465 -0.1265E-12  0.8000E+01
     -1.393 -0.6720E-11  0.8000E+01
     -1.320 -0.2733E-09  0.8000E+01
     -1.248 -0.8498E-08  0.8000E+01
     -1.176 -0.2016E-06  0.8000E+01
     -1.104 -0.3638E-05  0.8000E+01
     -1.032 -0.4979E-04  0.8000E+01
     -0.959 -0.5141E-03  0.8000E+01
     -0.887 -0.3972E-02  0.8000E+01
     -0.815 -0.2268E-01  0.7998E+01
     -0.743 -0.9343E-01  0.7991E+01
     -0.671 -0.2638E+00  0.7972E+01
     -0.598 -0.4371E+00  0.7941E+01
     -0.526 -0.7166E-01  0.7936E+01
     -0.454  0.1713E+01  0.8059E+01
     -0.382  0.4969E+01  0.8418E+01
     -0.310  0.7835E+01  0.8984E+01
     -0.237  0.7926E+01  0.9556E+01
     -0.165  0.5157E+01  0.9928E+01
     -0.093  0.1858E+01  0.1006E+02
     -0.021 -0.2167E-01  0.1006E+02
      0.051 -0.4563E+00  0.1003E+02
      0.124 -0.3576E+00  0.1000E+02
      0.196 -0.3766E+00  0.9975E+01
      0.268 -0.6620E+00  0.9927E+01
      0.340 -0.8146E+00  0.9868E+01
      0.412  0.3529E+00  0.9894E+01
      0.485  0.4395E+01  0.1021E+02
      0.557  0.1149E+02  0.1104E+02
      0.629  0.1879E+02  0.1240E+02
      0.701  0.2166E+02  0.1396E+02
      0.773  0.1777E+02  0.1524E+02
      0.846  0.9821E+01  0.1595E+02
      0.918  0.2864E+01  0.1616E+02
      0.990 -0.4517E+00  0.1613E+02
      1.062 -0.9650E+00  0.1606E+02
      1.134 -0.5447E+00  0.1602E+02
      1.207 -0.1899E+00  0.1600E+02
      1.279 -0.4626E-01  0.1600E+02
      1.351 -0.8219E-02  0.1600E+02
      1.423 -0.1087E-02  0.1600E+02
      1.495 -0.1082E-03  0.1600E+02
      1.567 -0.8164E-05  0.1600E+02
      1.640 -0.4690E-06  0.1600E+02
      1.712 -0.2058E-07  0.1600E+02
      1.784 -0.6909E-09  0.1600E+02
      1.856 -0.1778E-10  0.1600E+02
      1.928 -0.3552E-12  0.1600E+02
      2.001 -0.3076E-14  0.1600E+02
      2.073  0.0000E+00  0.1600E+02
      2.145  0.0000E+00  0.1600E+02
      2.217  0.0000E+00  0.1600E+02
      2.289  0.0000E+00  0.1600E+02
      2.362  0.0000E+00  0.1600E+02
      2.434  0.0000E+00  0.1600E+02
      2.506  0.0000E+00  0.1600E+02
      2.578  0.0000E+00  0.1600E+02
      2.650  0.0000E+00  0.1600E+02
      2.723  0.0000E+00  0.1600E+02
      2.72326305    -18.90604074  301     -9.01618785      1.00000000
    -18.906  0.0000E+00  0.0000E+00
    -18.834  0.0000E+00  0.0000E+00
    -18.762  0.0000E+00  0.0000E+00
    -18.690  0.0000E+00  0.0000E+00
    -18.618  0.0000E+00  0.0000E+00
    -18.546 -0.4188E-27 -0.3019E-28
    -18.473 -0.1292E-24 -0.9348E-26
    -18.401 -0.3076E-22 -0.2227E-23
    -18.329 -0.5632E-20 -0.4083E-21
    -18.257 -0.7927E-18 -0.5756E-19
    -18.185 -0.8575E-16 -0.6240E-17
    -18.113 -0.7126E-14 -0.5200E-15
    -18.041 -0.4407E-12 -0.3230E-13
    -17.969 -0.2147E-10 -0.1580E-11
    -17.897 -0.8010E-09 -0.5933E-10
    -17.825 -0.2285E-07 -0.1706E-08
    -17.752 -0.4971E-06 -0.3755E-07
    -17.680 -0.8229E-05 -0.6308E-06
    -17.608 -0.1032E-03 -0.8073E-05
    -17.536 -0.9756E-03 -0.7841E-04
    -17.464 -0.6884E-02 -0.5748E-03
    -17.392 -0.3572E-01 -0.3150E-02
    -17.320 -0.1324E+00 -0.1270E-01
    -17.248 -0.3277E+00 -0.3633E-01
    -17.176 -0.4249E+00 -0.6696E-01
    -17.104  0.2678E+00 -0.4765E-01
    -17.032  0.2549E+01  0.1361E+00
    -16.959  0.5957E+01  0.5656E+00
    -16.887  0.8211E+01  0.1158E+01
    -16.815  0.7352E+01  0.1688E+01
    -16.743  0.4157E+01  0.1987E+01
    -16.671  0.1148E+01  0.2070E+01
    -16.599 -0.2499E+00  0.2052E+01
    -16.527 -0.4167E+00  0.2022E+01
    -16.455 -0.2169E+00  0.2006E+01
    -16.383 -0.7014E-01  0.2001E+01
    -16.311 -0.1581E-01  0.2000E+01
    -16.238 -0.2591E-02  0.2000E+01
    -16.166 -0.3150E-03  0.2000E+01
    -16.094 -0.2875E-04  0.2000E+01
    -16.022 -0.1983E-05  0.2000E+01
    -15.950 -0.1039E-06  0.2000E+01
    -15.878 -0.4149E-08  0.2000E+01
    -15.806 -0.1265E-09  0.2000E+01
    -15.734 -0.2950E-11  0.2000E+01
    -15.662 -0.5544E-13  0.2000E+01
    -15.590  0.0000E+00  0.2000E+01
    -15.517  0.0000E+00  0.2000E+01
    -15.445  0.0000E+00  0.2000E+01
    -15.373  0.0000E+00  0.2000E+01
    -15.301  0.0000E+00  0.2000E+01
    -15.229  0.0000E+00  0.2000E+01
    -15.157  0.0000E+00  0.2000E+01
    -15.085  0.0000E+00  0.2000E+01
    -15.013  0.0000E+00  0.2000E+01
    -14.941  0.0000E+00  0.2000E+01
    -14.869  0.0000E+00  0.2000E+01
    -14.796  0.0000E+00  0.2000E+01
    -14.724  0.0000E+00  0.2000E+01
    -14.652  0.0000E+00  0.2000E+01
    -14.580  0.0000E+00  0.2000E+01
    -14.508  0.0000E+00  0.2000E+01
    -14.436  0.0000E+00  0.2000E+01
    -14.364  0.0000E+00  0.2000E+01
    -14.292  0.0000E+00  0.2000E+01
    -14.220  0.0000E+00  0.2000E+01
    -14.148  0.0000E+00  0.2000E+01
    -14.075  0.0000E+00  0.2000E+01
    -14.003  0.0000E+00  0.2000E+01
    -13.931  0.0000E+00  0.2000E+01
    -13.859  0.0000E+00  0.2000E+01
    -13.787  0.0000E+00  0.2000E+01
    -13.715  0.0000E+00  0.2000E+01
    -13.643  0.0000E+00  0.2000E+01
    -13.571  0.0000E+00  0.2000E+01
    -13.499  0.0000E+00  0.2000E+01
    -13.427  0.0000E+00  0.2000E+01
    -13.355  0.0000E+00  0.2000E+01
    -13.282  0.0000E+00  0.2000E+01
    -13.210  0.0000E+00  0.2000E+01
    -13.138  0.0000E+00  0.2000E+01
    -13.066  0.0000E+00  0.2000E+01
    -12.994  0.0000E+00  0.2000E+01
    -12.922  0.0000E+00  0.2000E+01
    -12.850  0.0000E+00  0.2000E+01
    -12.778  0.0000E+00  0.2000E+01
    -12.706  0.0000E+00  0.2000E+01
    -12.634  0.0000E+00  0.2000E+01
    -12.561  0.0000E+00  0.2000E+01
    -12.489  0.0000E+00  0.2000E+01
    -12.417  0.0000E+00  0.2000E+01
    -12.345  0.0000E+00  0.2000E+01
    -12.273  0.0000E+00  0.2000E+01
    -12.201  0.0000E+00  0.2000E+01
    -12.129  0.0000E+00  0.2000E+01
    -12.057  0.0000E+00  0.2000E+01
    -11.985  0.0000E+00  0.2000E+01
    -11.913  0.0000E+00  0.2000E+01
    -11.840  0.0000E+00  0.2000E+01
    -11.768  0.0000E+00  0.2000E+01
    -11.696  0.0000E+00  0.2000E+01
    -11.624  0.0000E+00  0.2000E+01
    -11.552  0.0000E+00  0.2000E+01
    -11.480  0.0000E+00  0.2000E+01
    -11.408  0.0000E+00  0.2000E+01
    -11.336  0.0000E+00  0.2000E+01
    -11.264  0.0000E+00  0.2000E+01
    -11.192  0.0000E+00  0.2000E+01
    -11.119 -0.4053E-27  0.2000E+01
    -11.047 -0.1253E-24  0.2000E+01
    -10.975 -0.2986E-22  0.2000E+01
    -10.903 -0.5475E-20  0.2000E+01
    -10.831 -0.7718E-18  0.2000E+01
    -10.759 -0.8361E-16  0.2000E+01
    -10.687 -0.6958E-14  0.2000E+01
    -10.615 -0.4307E-12  0.2000E+01
    -10.543 -0.2103E-10  0.2000E+01
    -10.471 -0.7857E-09  0.2000E+01
    -10.399 -0.2244E-07  0.2000E+01
    -10.326 -0.4890E-06  0.2000E+01
    -10.254 -0.8108E-05  0.2000E+01
    -10.182 -0.1019E-03  0.2000E+01
    -10.110 -0.9643E-03  0.2000E+01
    -10.038 -0.6817E-02  0.1999E+01
     -9.966 -0.3545E-01  0.1997E+01
     -9.894 -0.1318E+00  0.1987E+01
     -9.822 -0.3284E+00  0.1964E+01
     -9.750 -0.4386E+00  0.1932E+01
     -9.678  0.1931E+00  0.1946E+01
     -9.605  0.2284E+01  0.2111E+01
     -9.533  0.5318E+01  0.2494E+01
     -9.461  0.7376E+01  0.3026E+01
     -9.389  0.7780E+01  0.3587E+01
     -9.317  0.8879E+01  0.4227E+01
     -9.245  0.1251E+02  0.5129E+01
     -9.173  0.1585E+02  0.6272E+01
     -9.101  0.1450E+02  0.7317E+01
     -9.029  0.8644E+01  0.7941E+01
     -8.957  0.2676E+01  0.8133E+01
     -8.884 -0.3411E+00  0.8109E+01
     -8.812 -0.8349E+00  0.8049E+01
     -8.740 -0.4693E+00  0.8015E+01
     -8.668 -0.1605E+00  0.8003E+01
     -8.596 -0.3810E-01  0.8001E+01
     -8.524 -0.6574E-02  0.8000E+01
     -8.452 -0.8425E-03  0.8000E+01
     -8.380 -0.8117E-04  0.8000E+01
     -8.308 -0.5922E-05  0.8000E+01
     -8.236 -0.3288E-06  0.8000E+01
     -8.163 -0.1393E-07  0.8000E+01
     -8.091 -0.4518E-09  0.8000E+01
     -8.019 -0.1122E-10  0.8000E+01
     -7.947 -0.2217E-12  0.8000E+01
     -7.875  0.0000E+00  0.8000E+01
     -7.803  0.0000E+00  0.8000E+01
     -7.731  0.0000E+00  0.8000E+01
     -7.659  0.0000E+00  0.8000E+01
     -7.587  0.0000E+00  0.8000E+01
     -7.515  0.0000E+00  0.8000E+01
     -7.443  0.0000E+00  0.8000E+01
     -7.370  0.0000E+00  0.8000E+01
     -7.298  0.0000E+00  0.8000E+01
     -7.226  0.0000E+00  0.8000E+01
     -7.154  0.0000E+00  0.8000E+01
     -7.082  0.0000E+00  0.8000E+01
     -7.010  0.0000E+00  0.8000E+01
     -6.938  0.0000E+00  0.8000E+01
     -6.866  0.0000E+00  0.8000E+01
     -6.794  0.0000E+00  0.8000E+01
     -6.722  0.0000E+00  0.8000E+01
     -6.649  0.0000E+00  0.8000E+01
     -6.577  0.0000E+00  0.8000E+01
     -6.505  0.0000E+00  0.8000E+01
     -6.433  0.0000E+00  0.8000E+01
     -6.361  0.0000E+00  0.8000E+01
     -6.289  0.0000E+00  0.8000E+01
     -6.217  0.0000E+00  0.8000E+01
     -6.145  0.0000E+00  0.8000E+01
     -6.073  0.0000E+00  0.8000E+01
     -6.001  0.0000E+00  0.8000E+01
     -5.928  0.0000E+00  0.8000E+01
     -5.856  0.0000E+00  0.8000E+01
     -5.784  0.0000E+00  0.8000E+01
     -5.712  0.0000E+00  0.8000E+01
     -5.640  0.0000E+00  0.8000E+01
     -5.568  0.0000E+00  0.8000E+01
     -5.496  0.0000E+00  0.8000E+01
     -5.424  0.0000E+00  0.8000E+01
     -5.352  0.0000E+00  0.8000E+01
     -5.280  0.0000E+00  0.8000E+01
     -5.207  0.0000E+00  0.8000E+01
     -5.135  0.0000E+00  0.8000E+01
     -5.063  0.0000E+00  0.8000E+01
     -4.991  0.0000E+00  0.8000E+01
     -4.919  0.0000E+00  0.8000E+01
     -4.847  0.0000E+00  0.8000E+01
     -4.775  0.0000E+00  0.8000E+01
     -4.703  0.0000E+00  0.8000E+01
     -4.631  0.0000E+00  0.8000E+01
     -4.559  0.0000E+00  0.8000E+01
     -4.487  0.0000E+00  0.8000E+01
     -4.414  0.0000E+00  0.8000E+01
     -4.342  0.0000E+00  0.8000E+01
     -4.270  0.0000E+00  0.8000E+01
     -4.198  0.0000E+00  0.8000E+01
     -4.126  0.0000E+00  0.8000E+01
     -4.054  0.0000E+00  0.8000E+01
     -3.982  0.0000E+00  0.8000E+01
     -3.910  0.0000E+00  0.8000E+01
     -3.838  0.0000E+00  0.8000E+01
     -3.766  0.0000E+00  0.8000E+01
     -3.693  0.0000E+00  0.8000E+01
     -3.621  0.0000E+00  0.8000E+01
     -3.549  0.0000E+00  0.8000E+01
     -3.477  0.0000E+00  0.8000E+01
     -3.405  0.0000E+00  0.8000E+01
     -3.333  0.0000E+00  0.8000E+01
     -3.261  0.0000E+00  0.8000E+01
     -3.189  0.0000E+00  0.8000E+01
     -3.117  0.0000E+00  0.8000E+01
     -3.045  0.0000E+00  0.8000E+01
     -2.972  0.0000E+00  0.8000E+01
     -2.900  0.0000E+00  0.8000E+01
     -2.828  0.0000E+00  0.8000E+01
     -2.756  0.0000E+00  0.8000E+01
     -2.684  0.0000E+00  0.8000E+01
     -2.612  0.0000E+00  0.8000E+01
     -2.540  0.0000E+00  0.8000E+01
     -2.468  0.0000E+00  0.8000E+01
     -2.396  0.0000E+00  0.8000E+01
     -2.324  0.0000E+00  0.8000E+01
     -2.251  0.0000E+00  0.8000E+01
     -2.179  0.0000E+00  0.8000E+01
     -2.107  0.0000E+00  0.8000E+01
     -2.035  0.0000E+00  0.8000E+01
     -1.963 -0.1718E-27  0.8000E+01
     -1.891 -0.5515E-25  0.8000E+01
     -1.819 -0.1365E-22  0.8000E+01
     -1.747 -0.2599E-20  0.8000E+01
     -1.675 -0.3806E-18  0.8000E+01
     -1.603 -0.4283E-16  0.8000E+01
     -1.531 -0.3703E-14  0.8000E+01
     -1.458 -0.2381E-12  0.8000E+01
     -1.386 -0.1209E-10  0.8000E+01
     -1.314 -0.4697E-09  0.8000E+01
     -1.242 -0.1395E-07  0.8000E+01
     -1.170 -0.3163E-06  0.8000E+01
     -1.098 -0.5458E-05  0.8000E+01
     -1.026 -0.7143E-04  0.8000E+01
     -0.954 -0.7051E-03  0.8000E+01
     -0.882 -0.5206E-02  0.8000E+01
     -0.810 -0.2835E-01  0.7998E+01
     -0.737 -0.1109E+00  0.7990E+01
     -0.665 -0.2943E+00  0.7968E+01
     -0.593 -0.4378E+00  0.7937E+01
     -0.521  0.7221E-01  0.7942E+01
     -0.449  0.2091E+01  0.8093E+01
     -0.377  0.5438E+01  0.8485E+01
     -0.305  0.8043E+01  0.9065E+01
     -0.233  0.7688E+01  0.9619E+01
     -0.161  0.4698E+01  0.9958E+01
     -0.089  0.1516E+01  0.1007E+02
     -0.016 -0.1404E+00  0.1006E+02
      0.056 -0.4510E+00  0.1002E+02
      0.128 -0.3329E+00  0.1000E+02
      0.200 -0.3688E+00  0.9974E+01
      0.272 -0.6705E+00  0.9925E+01
      0.344 -0.8252E+00  0.9866E+01
      0.416  0.3761E+00  0.9893E+01
      0.488  0.4510E+01  0.1022E+02
      0.560  0.1172E+02  0.1106E+02
      0.632  0.1904E+02  0.1244E+02
      0.705  0.2175E+02  0.1400E+02
      0.777  0.1764E+02  0.1528E+02
      0.849  0.9591E+01  0.1597E+02
      0.921  0.2697E+01  0.1616E+02
      0.993 -0.5104E+00  0.1613E+02
      1.065 -0.9644E+00  0.1606E+02
      1.137 -0.5334E+00  0.1602E+02
      1.209 -0.1838E+00  0.1600E+02
      1.281 -0.4437E-01  0.1600E+02
      1.353 -0.7827E-02  0.1600E+02
      1.426 -0.1029E-02  0.1600E+02
      1.498 -0.1019E-03  0.1600E+02
      1.570 -0.7655E-05  0.1600E+02
      1.642 -0.4382E-06  0.1600E+02
      1.714 -0.1917E-07  0.1600E+02
      1.786 -0.6424E-09  0.1600E+02
      1.858 -0.1651E-10  0.1600E+02
      1.930 -0.3280E-12  0.1600E+02
      2.002 -0.3080E-14  0.1600E+02
      2.074  0.0000E+00  0.1600E+02
      2.146  0.0000E+00  0.1600E+02
      2.219  0.0000E+00  0.1600E+02
      2.291  0.0000E+00  0.1600E+02
      2.363  0.0000E+00  0.1600E+02
      2.435  0.0000E+00  0.1600E+02
      2.507  0.0000E+00  0.1600E+02
      2.579  0.0000E+00  0.1600E+02
      2.651  0.0000E+00  0.1600E+02
      2.723  0.0000E+00  0.1600E+02
      2.71904885    -18.86808477  301     -8.93385965      1.00000000
    -18.868  0.0000E+00  0.0000E+00
    -18.796  0.0000E+00  0.0000E+00
    -18.724  0.0000E+00  0.0000E+00
    -18.652  0.0000E+00  0.0000E+00
    -18.580  0.0000E+00  0.0000E+00
    -18.508 -0.3962E-27 -0.2851E-28
    -18.436 -0.1213E-24 -0.8754E-26
    -18.364 -0.2865E-22 -0.2070E-23
    -18.292 -0.5212E-20 -0.3771E-21
    -18.220 -0.7298E-18 -0.5289E-19
    -18.149 -0.7861E-16 -0.5709E-17
    -18.077 -0.6511E-14 -0.4742E-15
    -18.005 -0.4021E-12 -0.2941E-13
    -17.933 -0.1955E-10 -0.1437E-11
    -17.861 -0.7295E-09 -0.5393E-10
    -17.789 -0.2083E-07 -0.1553E-08
    -17.717 -0.4541E-06 -0.3423E-07
    -17.645 -0.7542E-05 -0.5770E-06
    -17.573 -0.9504E-04 -0.7416E-05
    -17.501 -0.9036E-03 -0.7243E-04
    -17.429 -0.6423E-02 -0.5346E-03
    -17.357 -0.3364E-01 -0.2956E-02
    -17.285 -0.1263E+00 -0.1204E-01
    -17.213 -0.3182E+00 -0.3494E-01
    -17.141 -0.4306E+00 -0.6593E-01
    -17.069  0.2023E+00 -0.5137E-01
    -16.997  0.2397E+01  0.1211E+00
    -16.925  0.5785E+01  0.5373E+00
    -16.853  0.8162E+01  0.1125E+01
    -16.781  0.7482E+01  0.1663E+01
    -16.709  0.4359E+01  0.1977E+01
    -16.637  0.1285E+01  0.2069E+01
    -16.565 -0.2091E+00  0.2054E+01
    -16.494 -0.4245E+00  0.2024E+01
    -16.422 -0.2301E+00  0.2007E+01
    -16.350 -0.7657E-01  0.2002E+01
    -16.278 -0.1771E-01  0.2000E+01
    -16.206 -0.2975E-02  0.2000E+01
    -16.134 -0.3709E-03  0.2000E+01
    -16.062 -0.3472E-04  0.2000E+01
    -15.990 -0.2458E-05  0.2000E+01
    -15.918 -0.1323E-06  0.2000E+01
    -15.846 -0.5430E-08  0.2000E+01
    -15.774 -0.1704E-09  0.2000E+01
    -15.702 -0.4090E-11  0.2000E+01
    -15.630 -0.8023E-13  0.2000E+01
    -15.558  0.0000E+00  0.2000E+01
    -15.486  0.0000E+00  0.2000E+01
    -15.414  0.0000E+00  0.2000E+01
    -15.342  0.0000E+00  0.2000E+01
    -15.270  0.0000E+00  0.2000E+01
    -15.198  0.0000E+00  0.2000E+01
    -15.126  0.0000E+00  0.2000E+01
    -15.054  0.0000E+00  0.2000E+01
    -14.982  0.0000E+00  0.2000E+01
    -14.910  0.0000E+00  0.2000E+01
    -14.838  0.0000E+00  0.2000E+01
    -14.767  0.0000E+00  0.2000E+01
    -14.695  0.0000E+00  0.2000E+01
    -14.623  0.0000E+00  0.2000E+01
    -14.551  0.0000E+00  0.2000E+01
    -14.479  0.0000E+00  0.2000E+01
    -14.407  0.0000E+00  0.2000E+01
    -14.335  0.0000E+00  0.2000E+01
    -14.263  0.0000E+00  0.2000E+01
    -14.191  0.0000E+00  0.2000E+01
    -14.119  0.0000E+00  0.2000E+01
    -14.047  0.0000E+00  0.2000E+01
    -13.975  0.0000E+00  0.2000E+01
    -13.903  0.0000E+00  0.2000E+01
    -13.831  0.0000E+00  0.2000E+01
    -13.759  0.0000E+00  0.2000E+01
    -13.687  0.0000E+00  0.2000E+01
    -13.615  0.0000E+00  0.2000E+01
    -13.543  0.0000E+00  0.2000E+01
    -13.471  0.0000E+00  0.2000E+01
    -13.399  0.0000E+00  0.2000E+01
    -13.327  0.0000E+00  0.2000E+01
    -13.255  0.0000E+00  0.2000E+01
    -13.183  0.0000E+00  0.2000E+01
    -13.112  0.0000E+00  0.2000E+01
    -13.040  0.0000E+00  0.2000E+01
    -12.968  0.0000E+00  0.2000E+01
    -12.896  0.0000E+00  0.2000E+01
    -12.824  0.0000E+00  0.2000E+01
    -12.752  0.0000E+00  0.2000E+01
    -12.680  0.0000E+00  0.2000E+01
    -12.608  0.0000E+00  0.2000E+01
    -12.536  0.0000E+00  0.2000E+01
    -12.464  0.0000E+00  0.2000E+01
    -12.392  0.0000E+00  0.2000E+01
    -12.320  0.0000E+00  0.2000E+01
    -12.248  0.0000E+00  0.2000E+01
    -12.176  0.0000E+00  0.2000E+01
    -12.104  0.0000E+00  0.2000E+01
    -12.032  0.0000E+00  0.2000E+01
    -11.960  0.0000E+00  0.2000E+01
    -11.888  0.0000E+00  0.2000E+01
    -11.816  0.0000E+00  0.2000E+01
    -11.744  0.0000E+00  0.2000E+01
    -11.672  0.0000E+00  0.2000E+01
    -11.600  0.0000E+00  0.2000E+01
    -11.528  0.0000E+00  0.2000E+01
    -11.457  0.0000E+00  0.2000E+01
    -11.385  0.0000E+00  0.2000E+01
    -11.313  0.0000E+00  0.2000E+01
    -11.241  0.0000E+00  0.2000E+01
    -11.169 -0.1211E-26  0.2000E+01
    -11.097 -0.3526E-24  0.2000E+01
    -11.025 -0.7924E-22  0.2000E+01
    -10.953 -0.1371E-19  0.2000E+01
    -10.881 -0.1826E-17  0.2000E+01
    -10.809 -0.1870E-15  0.2000E+01
    -10.737 -0.1473E-13  0.2000E+01
    -10.665 -0.8635E-12  0.2000E+01
    -10.593 -0.3994E-10  0.2000E+01
    -10.521 -0.1416E-08  0.2000E+01
    -10.449 -0.3839E-07  0.2000E+01
    -10.377 -0.7947E-06  0.2000E+01
    -10.305 -0.1252E-04  0.2000E+01
    -10.233 -0.1496E-03  0.2000E+01
    -10.161 -0.1346E-02  0.2000E+01
    -10.089 -0.9038E-02  0.1999E+01
    -10.017 -0.4454E-01  0.1996E+01
     -9.945 -0.1559E+00  0.1985E+01
     -9.873 -0.3588E+00  0.1959E+01
     -9.801 -0.3970E+00  0.1930E+01
     -9.730  0.4793E+00  0.1965E+01
     -9.658  0.2959E+01  0.2178E+01
     -9.586  0.6248E+01  0.2627E+01
     -9.514  0.7874E+01  0.3194E+01
     -9.442  0.6323E+01  0.3649E+01
     -9.370  0.3533E+01  0.3903E+01
     -9.298  0.3327E+01  0.4143E+01
     -9.226  0.7259E+01  0.4665E+01
     -9.154  0.1264E+02  0.5574E+01
     -9.082  0.1492E+02  0.6648E+01
     -9.010  0.1211E+02  0.7519E+01
     -8.938  0.6480E+01  0.7985E+01
     -8.866  0.1762E+01  0.8112E+01
     -8.794 -0.3760E+00  0.8085E+01
     -8.722 -0.6577E+00  0.8038E+01
     -8.650 -0.3607E+00  0.8012E+01
     -8.578 -0.1244E+00  0.8003E+01
     -8.506 -0.3021E-01  0.8000E+01
     -8.434 -0.5372E-02  0.8000E+01
     -8.362 -0.7126E-03  0.8000E+01
     -8.290 -0.7124E-04  0.8000E+01
     -8.218 -0.5400E-05  0.8000E+01
     -8.146 -0.3116E-06  0.8000E+01
     -8.075 -0.1373E-07  0.8000E+01
     -8.003 -0.4628E-09  0.8000E+01
     -7.931 -0.1195E-10  0.8000E+01
     -7.859 -0.2345E-12  0.8000E+01
     -7.787 -0.6172E-14  0.8000E+01
     -7.715  0.0000E+00  0.8000E+01
     -7.643  0.0000E+00  0.8000E+01
     -7.571  0.0000E+00  0.8000E+01
     -7.499  0.0000E+00  0.8000E+01
     -7.427  0.0000E+00  0.8000E+01
     -7.355  0.0000E+00  0.8000E+01
     -7.283  0.0000E+00  0.8000E+01
     -7.211  0.0000E+00  0.8000E+01
     -7.139  0.0000E+00  0.8000E+01
     -7.067  0.0000E+00  0.8000E+01
     -6.995  0.0000E+00  0.8000E+01
     -6.923  0.0000E+00  0.8000E+01
     -6.851  0.0000E+00  0.8000E+01
     -6.779  0.0000E+00  0.8000E+01
     -6.707  0.0000E+00  0.8000E+01
     -6.635  0.0000E+00  0.8000E+01
     -6.563  0.0000E+00  0.8000E+01
     -6.491  0.0000E+00  0.8000E+01
     -6.420  0.0000E+00  0.8000E+01
     -6.348  0.0000E+00  0.8000E+01
     -6.276  0.0000E+00  0.8000E+01
     -6.204  0.0000E+00  0.8000E+01
     -6.132  0.0000E+00  0.8000E+01
     -6.060  0.0000E+00  0.8000E+01
     -5.988  0.0000E+00  0.8000E+01
     -5.916  0.0000E+00  0.8000E+01
     -5.844  0.0000E+00  0.8000E+01
     -5.772  0.0000E+00  0.8000E+01
     -5.700  0.0000E+00  0.8000E+01
     -5.628  0.0000E+00  0.8000E+01
     -5.556  0.0000E+00  0.8000E+01
     -5.484  0.0000E+00  0.8000E+01
     -5.412  0.0000E+00  0.8000E+01
     -5.340  0.0000E+00  0.8000E+01
     -5.268  0.0000E+00  0.8000E+01
     -5.196  0.0000E+00  0.8000E+01
     -5.124  0.0000E+00  0.8000E+01
     -5.052  0.0000E+00  0.8000E+01
     -4.980  0.0000E+00  0.8000E+01
     -4.908  0.0000E+00  0.8000E+01
     -4.836  0.0000E+00  0.8000E+01
     -4.764  0.0000E+00  0.8000E+01
     -4.693  0.0000E+00  0.8000E+01
     -4.621  0.0000E+00  0.8000E+01
     -4.549  0.0000E+00  0.8000E+01
     -4.477  0.0000E+00  0.8000E+01
     -4.405  0.0000E+00  0.8000E+01
     -4.333  0.0000E+00  0.8000E+01
     -4.261  0.0000E+00  0.8000E+01
     -4.189  0.0000E+00  0.8000E+01
     -4.117  0.0000E+00  0.8000E+01
     -4.045  0.0000E+00  0.8000E+01
     -3.973  0.0000E+00  0.8000E+01
     -3.901  0.0000E+00  0.8000E+01
     -3.829  0.0000E+00  0.8000E+01
     -3.757  0.0000E+00  0.8000E+01
     -3.685  0.0000E+00  0.8000E+01
     -3.613  0.0000E+00  0.8000E+01
     -3.541  0.0000E+00  0.8000E+01
     -3.469  0.0000E+00  0.8000E+01
     -3.397  0.0000E+00  0.8000E+01
     -3.325  0.0000E+00  0.8000E+01
     -3.253  0.0000E+00  0.8000E+01
     -3.181  0.0000E+00  0.8000E+01
     -3.109  0.0000E+00  0.8000E+01