    5    5    1    1
  0.1957784E+03  0.9913971E-09  0.9784226E-09  0.1009335E-08  0.2000000E-14
   50.000000000000000     
  CAR 
 unknown system                          
      8      4      8

  0.2500000E+00  0.2500000E+00  0.2500000E+00  0.2500000E+00
    1      -16.951144   1.000000
    2       -9.594940   1.000001
    3       -9.308020   1.002980
    4       -9.018739   0.997028
    5       -0.311159   0.000000
    6        0.568392   0.000000
    7        0.688410   0.000000
    8        0.715565   0.000000

 -0.2500000E+00  0.2500000E+00  0.2500000E+00  0.2500000E+00
    1      -16.951197   1.000000
    2       -9.595186   1.000001
    3       -9.308063   1.002977
    4       -9.018722   0.997008
    5       -0.313823   0.000000
    6        0.574175   0.000000
    7        0.685032   0.000000
    8        0.724183   0.000000

  0.2500000E+00 -0.2500000E+00  0.2500000E+00  0.2500000E+00
    1      -16.951155   1.000000
    2       -9.595020   1.000001
    3       -9.307994   1.002981
    4       -9.018805   0.997104
    5       -0.315637   0.000000
    6        0.589122   0.000000
    7        0.684844   0.000000
    8        0.718297   0.000000

 -0.2500000E+00 -0.2500000E+00  0.2500000E+00  0.2500000E+00
    1      -16.951093   1.000000
    2       -9.595002   1.000001
    3       -9.307939   1.002984
    4       -9.018658   0.996934
    5       -0.310202   0.000000
    6        0.575134   0.000000
    7        0.684680   0.000000
    8        0.702662   0.000000
