       N       E                     dE             d eps       ncg     rms          rms(c)
DAV:   1     0.144501569722E+02    0.14450E+02   -0.19838E+03    96   0.411E+02
DAV:   2    -0.229113416206E+02   -0.37361E+02   -0.37361E+02    64   0.113E+02
DAV:   3    -0.274353804051E+02   -0.45240E+01   -0.45433E+01    64   0.455E+01
DAV:   4    -0.276161862791E+02   -0.18081E+00   -0.18028E+00   128   0.100E+01
DAV:   5    -0.276162517231E+02   -0.65444E-04   -0.65444E-04    96   0.210E-01    0.880E+00
RMM:   6    -0.246465820961E+02    0.29697E+01   -0.55238E+00    64   0.144E+01    0.423E+00
RMM:   7    -0.241423988757E+02    0.50418E+00   -0.12738E+00    64   0.654E+00    0.223E+00
RMM:   8    -0.240081979214E+02    0.13420E+00   -0.13448E-01    64   0.254E+00    0.814E-01
RMM:   9    -0.239910011677E+02    0.17197E-01   -0.20079E-02    64   0.103E+00    0.357E-01
RMM:  10    -0.239885027610E+02    0.24984E-02   -0.24322E-03    64   0.325E-01    0.197E-01
RMM:  11    -0.239877011744E+02    0.80159E-03   -0.45658E-03    64   0.356E-01    0.133E-01
RMM:  12    -0.239829479657E+02    0.47532E-02   -0.30971E-03    64   0.382E-01    0.603E-02
RMM:  13    -0.239857384354E+02   -0.27905E-02   -0.48021E-04    64   0.120E-01    0.550E-02
RMM:  14    -0.239913517839E+02   -0.56133E-02   -0.92996E-04    64   0.179E-01    0.292E-02
RMM:  15    -0.239932411933E+02   -0.18894E-02   -0.23722E-04    64   0.872E-02    0.221E-02
RMM:  16    -0.239950869937E+02   -0.18458E-02   -0.29986E-04    64   0.933E-02    0.205E-02
RMM:  17    -0.239954074233E+02   -0.32043E-03   -0.46239E-05    64   0.362E-02    0.112E-02
RMM:  18    -0.239956388342E+02   -0.23141E-03   -0.19589E-05    60   0.262E-02    0.357E-03
RMM:  19    -0.239957474685E+02   -0.10863E-03   -0.68178E-06    60   0.152E-02    0.386E-03
RMM:  20    -0.239957633896E+02   -0.15921E-04   -0.87212E-07    48   0.607E-03    0.155E-03
RMM:  21    -0.239957697166E+02   -0.63270E-05   -0.71242E-07    48   0.519E-03    0.144E-03
RMM:  22    -0.239957706658E+02   -0.94916E-06   -0.74912E-08    44   0.220E-03
    1 T=    50. E= -.23969929E+02 F= -.23995771E+02 E0= -.24007724E+02  EK= 0.25842E-01 SP= 0.00E+00 SK= 0.13E-10
       N       E                     dE             d eps       ncg     rms          rms(c)
DAV:   1    -0.240340495852E+02   -0.38280E-01   -0.15203E+00    64   0.117E+01    0.628E-01
RMM:   2    -0.240347749561E+02   -0.72537E-03   -0.43836E-02    64   0.171E+00    0.602E-01
RMM:   3    -0.240253054862E+02    0.94695E-02   -0.17461E-02    64   0.932E-01    0.353E-01
RMM:   4    -0.240234224723E+02    0.18830E-02   -0.34853E-03    64   0.386E-01    0.180E-01
RMM:   5    -0.240237470482E+02   -0.32458E-03   -0.52007E-04    64   0.164E-01    0.136E-01
RMM:   6    -0.240234859520E+02    0.26110E-03   -0.20256E-03    64   0.258E-01    0.433E-02
RMM:   7    -0.240235658031E+02   -0.79851E-04   -0.13097E-04    64   0.790E-02    0.291E-02
RMM:   8    -0.240236434496E+02   -0.77647E-04   -0.55504E-05    64   0.496E-02    0.145E-02
RMM:   9    -0.240236782696E+02   -0.34820E-04   -0.62574E-05    64   0.478E-02    0.978E-03
RMM:  10    -0.240237023904E+02   -0.24121E-04   -0.50396E-06    60   0.162E-02    0.783E-03
RMM:  11    -0.240237120478E+02   -0.96574E-05   -0.10756E-05    64   0.183E-02    0.249E-03
RMM:  12    -0.240237198814E+02   -0.78336E-05   -0.15506E-06    48   0.878E-03    0.188E-03
RMM:  13    -0.240237220017E+02   -0.21203E-05   -0.58484E-07    48   0.511E-03    0.966E-04
RMM:  14    -0.240237231458E+02   -0.11440E-05   -0.27777E-07    48   0.330E-03    0.407E-04
RMM:  15    -0.240237236957E+02   -0.54991E-06   -0.72346E-08    44   0.191E-03
    2 T=    60. E= -.23992696E+02 F= -.24023724E+02 E0= -.24032217E+02  EK= 0.31025E-01 SP= -.26E-06 SK= 0.32E-05
       N       E                     dE             d eps       ncg     rms          rms(c)
DAV:   1    -0.240047620178E+02    0.18961E-01   -0.89204E-01    64   0.950E+00    0.356E-01
RMM:   2    -0.240030560094E+02    0.17060E-02   -0.23412E-02    64   0.121E+00    0.308E-01
RMM:   3    -0.240111151686E+02   -0.80592E-02   -0.75092E-03    64   0.616E-01    0.818E-01
RMM:   4    -0.240033510448E+02    0.77641E-02   -0.83054E-03    64   0.550E-01    0.146E-01
RMM:   5    -0.240045012413E+02   -0.11502E-02   -0.85105E-04    64   0.207E-01    0.680E-02
RMM:   6    -0.240047639139E+02   -0.26267E-03   -0.27403E-04    64   0.110E-01    0.337E-02
RMM:   7    -0.240048844968E+02   -0.12058E-03   -0.10821E-04    64   0.670E-02    0.191E-02
RMM:   8    -0.240049254658E+02   -0.40969E-04   -0.41602E-05    64   0.421E-02    0.891E-03
RMM:   9    -0.240049472268E+02   -0.21761E-04   -0.11575E-05    64   0.226E-02    0.842E-03
RMM:  10    -0.240049594229E+02   -0.12196E-04   -0.43816E-06    60   0.131E-02    0.600E-03
RMM:  11    -0.240049657662E+02   -0.63434E-05   -0.54774E-06    64   0.139E-02    0.328E-03
RMM:  12    -0.240049700227E+02   -0.42564E-05   -0.96446E-07    48   0.662E-03    0.203E-03
RMM:  13    -0.240049720354E+02   -0.20127E-05   -0.41867E-07    48   0.453E-03    0.808E-04
RMM:  14    -0.240049726297E+02   -0.59429E-06   -0.61358E-07    48   0.510E-03
    3 T=    41. E= -.23983589E+02 F= -.24004973E+02 E0= -.24013589E+02  EK= 0.21253E-01 SP= 0.13E-03 SK= 0.39E-05
       N       E                     dE             d eps       ncg     rms          rms(c)
DAV:   1    -0.240171918368E+02   -0.12220E-01   -0.29147E-01    64   0.538E+00    0.436E-01
RMM:   2    -0.240184828528E+02   -0.12910E-02   -0.19709E-02    64   0.969E-01    0.325E-01
RMM:   3    -0.240152868175E+02    0.31960E-02   -0.19059E-02    64   0.799E-01    0.221E-01
RMM:   4    -0.240150371341E+02    0.24968E-03   -0.16703E-03    64   0.269E-01    0.996E-02
RMM:   5    -0.240148191221E+02    0.21801E-03   -0.10069E-03    64   0.188E-01    0.241E-02
RMM:   6    -0.240149041734E+02   -0.85051E-04   -0.21499E-04    68   0.972E-02    0.204E-02
RMM:   7    -0.240149164146E+02   -0.12241E-04   -0.14020E-05    64   0.266E-02    0.137E-02
RMM:   8    -0.240149206907E+02   -0.42761E-05   -0.12833E-05    64   0.217E-02    0.707E-03
RMM:   9    -0.240149311346E+02   -0.10444E-04   -0.68121E-06    64   0.168E-02    0.274E-03
RMM:  10    -0.240149336270E+02   -0.24924E-05   -0.12298E-06    48   0.808E-03    0.226E-03
RMM:  11    -0.240149385944E+02   -0.49674E-05   -0.28284E-06    59   0.982E-03    0.175E-03
RMM:  12    -0.240149391628E+02   -0.56836E-06   -0.25197E-07    48   0.368E-03
    4 T=    58. E= -.23984894E+02 F= -.24014939E+02 E0= -.24023342E+02  EK= 0.29901E-01 SP= 0.14E-03 SK= 0.32E-05
       N       E                     dE             d eps       ncg     rms          rms(c)
DAV:   1    -0.240335435917E+02   -0.18605E-01   -0.31496E-01    64   0.530E+00    0.343E-01
RMM:   2    -0.240539993578E+02   -0.20456E-01   -0.94525E-02    64   0.190E+00    0.780E-01
RMM:   3    -0.240324869440E+02    0.21512E-01   -0.86726E-02    64   0.167E+00    0.232E-01
RMM:   4    -0.240338816034E+02   -0.13947E-02   -0.18730E-02    64   0.840E-01    0.241E-01
RMM:   5    -0.240330565377E+02    0.82507E-03   -0.12996E-03    64   0.265E-01    0.144E-01
RMM:   6    -0.240325811421E+02    0.47540E-03   -0.15004E-03    64   0.226E-01    0.480E-02
RMM:   7    -0.240325870489E+02   -0.59068E-05   -0.40297E-04    64   0.125E-01    0.255E-02
RMM:   8    -0.240326016284E+02   -0.14579E-04   -0.74645E-05    68   0.573E-02    0.110E-02
RMM:   9    -0.240326100797E+02   -0.84513E-05   -0.71460E-06    64   0.185E-02    0.825E-03
RMM:  10    -0.240326140459E+02   -0.39662E-05   -0.44376E-06    64   0.126E-02    0.570E-03
RMM:  11    -0.240326168121E+02   -0.27662E-05   -0.32863E-07    48   0.450E-03    0.279E-03
RMM:  12    -0.240326196766E+02   -0.28645E-05   -0.61929E-07    48   0.569E-03    0.212E-03
RMM:  13    -0.240326214878E+02   -0.18112E-05   -0.14262E-07    48   0.276E-03    0.331E-04
RMM:  14    -0.240326221067E+02   -0.61887E-06    0.00000E+00    32   0.150E-03
    5 T=    90. E= -.23985784E+02 F= -.24032622E+02 E0= -.24040735E+02  EK= 0.46477E-01 SP= 0.25E-03 SK= 0.11E-03
       N       E                     dE             d eps       ncg     rms          rms(c)
DAV:   1    -0.240262051409E+02    0.64163E-02   -0.71271E-01    64   0.846E+00    0.761E-01
RMM:   2    -0.240163208073E+02    0.98843E-02   -0.42600E-02    64   0.160E+00    0.289E-01
RMM:   3    -0.240220161983E+02   -0.56954E-02   -0.24995E-02    64   0.977E-01    0.502E-01
RMM:   4    -0.240201317258E+02    0.18845E-02   -0.46895E-03    64   0.472E-01    0.338E-01
RMM:   5    -0.240185646133E+02    0.15671E-02   -0.14745E-02    64   0.710E-01    0.144E-01
RMM:   6    -0.240181584387E+02    0.40617E-03   -0.11682E-03    64   0.213E-01    0.441E-02
RMM:   7    -0.240182596440E+02   -0.10121E-03   -0.85523E-05    64   0.628E-02    0.259E-02
RMM:   8    -0.240182825702E+02   -0.22926E-04   -0.24571E-05    64   0.305E-02    0.139E-02
RMM:   9    -0.240183011208E+02   -0.18551E-04   -0.29017E-05    64   0.335E-02    0.112E-02
RMM:  10    -0.240183205084E+02   -0.19388E-04   -0.19616E-05    64   0.256E-02    0.870E-03
RMM:  11    -0.240183239823E+02   -0.34739E-05   -0.34107E-06    60   0.116E-02    0.250E-03
RMM:  12    -0.240183274681E+02   -0.34858E-05   -0.59729E-07    48   0.530E-03    0.419E-03
RMM:  13    -0.240183287392E+02   -0.12711E-05   -0.48366E-07    48   0.447E-03    0.754E-04
RMM:  14    -0.240183295699E+02   -0.83070E-06   -0.13394E-07    48   0.303E-03
    6 T=   100. E= -.23964897E+02 F= -.24018330E+02 E0= -.24026973E+02  EK= 0.51854E-01 SP= 0.88E-03 SK= 0.70E-03
       N       E                     dE             d eps       ncg     rms          rms(c)
DAV:   1    -0.240163091871E+02    0.20196E-02   -0.83823E-01    64   0.910E+00    0.627E-01
RMM:   2    -0.240178038009E+02   -0.14946E-02   -0.62677E-02    64   0.168E+00    0.624E-01
RMM:   3    -0.240151399423E+02    0.26639E-02   -0.58142E-02    64   0.148E+00    0.532E-01
RMM:   4    -0.240158250874E+02   -0.68515E-03   -0.13518E-02    64   0.726E-01    0.491E-01
RMM:   5    -0.240126259350E+02    0.31992E-02   -0.28208E-03    64   0.344E-01    0.227E-01
RMM:   6    -0.240116025836E+02    0.10234E-02   -0.20366E-03    64   0.283E-01    0.115E-01
RMM:   7    -0.240115301801E+02    0.72403E-04   -0.19059E-04    64   0.984E-02    0.783E-02
RMM:   8    -0.240114158453E+02    0.11433E-03   -0.13821E-04    64   0.791E-02    0.469E-02
RMM:   9    -0.240114317700E+02   -0.15925E-04   -0.37276E-04    64   0.123E-01    0.220E-02
RMM:  10    -0.240114641521E+02   -0.32382E-04   -0.59387E-05    64   0.483E-02    0.945E-03
RMM:  11    -0.240115055691E+02   -0.41417E-04   -0.11617E-05    64   0.233E-02    0.152E-02
RMM:  12    -0.240115139924E+02   -0.84233E-05   -0.21080E-05    64   0.265E-02    0.108E-02
RMM:  13    -0.240115154022E+02   -0.14097E-05   -0.18788E-06    48   0.102E-02    0.692E-03
RMM:  14    -0.240115159276E+02   -0.52537E-06   -0.17018E-06    52   0.863E-03
    7 T=   102. E= -.23954871E+02 F= -.24011516E+02 E0= -.24019490E+02  EK= 0.52504E-01 SP= 0.21E-02 SK= 0.20E-02
       N       E                     dE             d eps       ncg     rms          rms(c)
DAV:   1    -0.239869228854E+02    0.24593E-01   -0.11029E+00    64   0.103E+01    0.536E-01
RMM:   2    -0.240358183018E+02   -0.48895E-01   -0.29613E-01    64   0.343E+00    0.122E+00
RMM:   3    -0.239915964940E+02    0.44222E-01   -0.90361E-02    64   0.174E+00    0.619E-01
RMM:   4    -0.239844605833E+02    0.71359E-02   -0.67168E-02    64   0.158E+00    0.266E-01
RMM:   5    -0.239831561727E+02    0.13044E-02   -0.63801E-03    64   0.500E-01    0.740E-02
RMM:   6    -0.239843022635E+02   -0.11461E-02   -0.38848E-03    64   0.380E-01    0.829E-02
RMM:   7    -0.239845416562E+02   -0.23939E-03   -0.16513E-03    64   0.238E-01    0.547E-02
RMM:   8    -0.239845927980E+02   -0.51142E-04   -0.11453E-04    64   0.726E-02    0.171E-02
RMM:   9    -0.239846298029E+02   -0.37005E-04   -0.44414E-05    64   0.406E-02    0.528E-03
RMM:  10    -0.239846610306E+02   -0.31228E-04   -0.97866E-06    64   0.204E-02    0.114E-02
RMM:  11    -0.239846740357E+02   -0.13005E-04   -0.67441E-06    64   0.160E-02    0.382E-03
RMM:  12    -0.239846766165E+02   -0.25808E-05   -0.21623E-06    52   0.981E-03    0.258E-03
RMM:  13    -0.239846784935E+02   -0.18770E-05   -0.36119E-07    48   0.514E-03    0.206E-03
RMM:  14    -0.239846792278E+02   -0.73426E-06   -0.27587E-07    48   0.344E-03
    8 T=    54. E= -.23949480E+02 F= -.23984679E+02 E0= -.23992470E+02  EK= 0.28174E-01 SP= 0.41E-02 SK= 0.30E-02
       N       E                     dE             d eps       ncg     rms          rms(c)
DAV:   1    -0.239765708028E+02    0.81077E-02   -0.30492E-01    64   0.541E+00    0.234E-01
RMM:   2    -0.239830973746E+02   -0.65266E-02   -0.56477E-02    64   0.151E+00    0.546E-01
RMM:   3    -0.239755691846E+02    0.75282E-02   -0.55102E-02    64   0.141E+00    0.181E-01
RMM:   4    -0.239753680463E+02    0.20114E-03   -0.94058E-04    64   0.242E-01    0.169E-01
RMM:   5    -0.239747837493E+02    0.58430E-03   -0.22915E-03    64   0.279E-01    0.964E-02
RMM:   6    -0.239746649118E+02    0.11884E-03   -0.16088E-04    64   0.868E-02    0.674E-02
RMM:   7    -0.239746010371E+02    0.63875E-04   -0.25242E-04    64   0.976E-02    0.310E-02
RMM:   8    -0.239746373102E+02   -0.36273E-04   -0.58632E-05    64   0.489E-02    0.168E-02
RMM:   9    -0.239746546523E+02   -0.17342E-04   -0.26068E-05    64   0.333E-02    0.631E-03
RMM:  10    -0.239746653178E+02   -0.10665E-04   -0.61255E-06    64   0.158E-02    0.173E-03
RMM:  11    -0.239746754097E+02   -0.10092E-04   -0.14250E-06    48   0.802E-03    0.221E-03
RMM:  12    -0.239746777029E+02   -0.22933E-05   -0.52132E-07    48   0.486E-03    0.908E-04
RMM:  13    -0.239746790806E+02   -0.13777E-05   -0.12302E-07    48   0.262E-03    0.648E-04
RMM:  14    -0.239746799785E+02   -0.89791E-06   -0.14047E-07    48   0.248E-03
    9 T=    54. E= -.23937329E+02 F= -.23974680E+02 E0= -.23983230E+02  EK= 0.28174E-01 SP= 0.60E-02 SK= 0.31E-02
       N       E                     dE             d eps       ncg     rms          rms(c)
DAV:   1    -0.240046654681E+02   -0.29986E-01   -0.63096E-01    64   0.774E+00    0.745E-01
RMM:   2    -0.240149406030E+02   -0.10275E-01   -0.11304E-01    64   0.219E+00    0.934E-01
RMM:   3    -0.239937905389E+02    0.21150E-01   -0.56895E-02    64   0.140E+00    0.529E-01
RMM:   4    -0.239869001651E+02    0.68904E-02   -0.18286E-02    64   0.876E-01    0.298E-01
RMM:   5    -0.239856203389E+02    0.12798E-02   -0.15104E-02    64   0.749E-01    0.177E-01
RMM:   6    -0.239849204198E+02    0.69992E-03   -0.17027E-03    64   0.273E-01    0.931E-02
RMM:   7    -0.239846793518E+02    0.24107E-03   -0.18114E-03    64   0.260E-01    0.305E-02
RMM:   8    -0.239847591147E+02   -0.79763E-04   -0.18750E-04    64   0.910E-02    0.906E-03
RMM:   9    -0.239848291028E+02   -0.69988E-04   -0.28487E-05    64   0.344E-02    0.816E-03
RMM:  10    -0.239848528209E+02   -0.23718E-04   -0.14476E-05    64   0.233E-02    0.362E-03
RMM:  11    -0.239848687085E+02   -0.15888E-04   -0.29688E-06    60   0.105E-02    0.229E-03
RMM:  12    -0.239848737362E+02   -0.50277E-05   -0.80609E-07    48   0.604E-03    0.159E-03
RMM:  13    -0.239848755332E+02   -0.17970E-05   -0.56385E-07    48   0.516E-03    0.837E-04
RMM:  14    -0.239848765604E+02   -0.10272E-05   -0.16162E-07    48   0.307E-03    0.419E-04
RMM:  15    -0.239848768604E+02   -0.29995E-06   -0.16924E-07    48   0.269E-03
   10 T=    75. E= -.23934144E+02 F= -.23984877E+02 E0= -.23988758E+02  EK= 0.38881E-01 SP= 0.81E-02 SK= 0.38E-02
