 vasp.5.4.4.18Apr17-6-g9f103f2a35 (build Jul 12 2018 13:43:46) complex           
 executed on             LinuxGNU date 2019.06.22  02:17:35
 running on    1 total cores
 distrk:  each k-point on    1 cores,    1 groups
 distr:  one band on NCORES_PER_BAND=   1 cores,    1 groups


--------------------------------------------------------------------------------------------------------


 INCAR:
 POTCAR:    PAW_PBE H 15Jun2001                   
 POTCAR:    PAW_PBE C 08Apr2002                   
 POTCAR:    PAW_PBE H 15Jun2001                   
   VRHFIN =H: ultrasoft test                                                    
   LEXCH  = PE                                                                  
   EATOM  =    12.4884 eV,    0.9179 Ry                                         
                                                                                
   TITEL  = PAW_PBE H 15Jun2001                                                 
   LULTRA =        F    use ultrasoft PP ?                                      
   IUNSCR =        0    unscreen: 0-lin 1-nonlin 2-no                           
   RPACOR =    0.000    partial core radius                                     
   POMASS =    1.000; ZVAL   =    1.000    mass and valenz                      
   RCORE  =    1.100    outmost cutoff radius                                   
   RWIGS  =    0.700; RWIGS  =    0.370    wigner-seitz radius (au A)           
   ENMAX  =  250.000; ENMIN  =  200.000 eV                                      
   RCLOC  =    0.701    cutoff for local pot                                    
   LCOR   =        T    correct aug charges                                     
   LPAW   =        T    paw PP                                                  
   EAUG   =  400.000                                                            
   RMAX   =    1.123    core radius for proj-oper                               
   RAUG   =    1.200    factor for augmentation sphere                          
   RDEP   =    1.112    radius for radial grids                                 
   RDEPT  =    0.926    core radius for aug-charge                              
                                                                                
   Atomic configuration                                                         
    2 entries                                                                   
     n  l   j            E        occ.                                          
     1  0  0.50        -6.4927   1.0000                                         
     2  1  0.50        -3.4015   0.0000                                         
   Description                                                                  
     l       E           TYP  RCUT    TYP  RCUT                                 
     0     -6.4927494     23  1.100                                             
     0      6.8029130     23  1.100                                             
     1     -4.0817478     23  1.100                                             
  local pseudopotential read in
  atomic valenz-charges read in
  non local Contribution for L=           0  read in
    real space projection operators read in
  non local Contribution for L=           0  read in
    real space projection operators read in
  non local Contribution for L=           1  read in
    real space projection operators read in
    PAW grid and wavefunctions read in

   number of l-projection  operators is LMAX  =           3
   number of lm-projection operators is LMMAX =           5

 POTCAR:    PAW_PBE C 08Apr2002                   
   VRHFIN =C: s2p2                                                              
   LEXCH  = PE                                                                  
   EATOM  =   147.1560 eV,   10.8157 Ry                                         
                                                                                
   TITEL  = PAW_PBE C 08Apr2002                                                 
   LULTRA =        F    use ultrasoft PP ?                                      
   IUNSCR =        1    unscreen: 0-lin 1-nonlin 2-no                           
   RPACOR =    1.200    partial core radius                                     
   POMASS =   12.011; ZVAL   =    4.000    mass and valenz                      
   RCORE  =    1.500    outmost cutoff radius                                   
   RWIGS  =    1.630; RWIGS  =    0.863    wigner-seitz radius (au A)           
   ENMAX  =  400.000; ENMIN  =  300.000 eV                                      
   ICORE  =        2    local potential                                         
   LCOR   =        T    correct aug charges                                     
   LPAW   =        T    paw PP                                                  
   EAUG   =  644.873                                                            
   DEXC   =    0.000                                                            
   RMAX   =    1.529    core radius for proj-oper                               
   RAUG   =    1.300    factor for augmentation sphere                          
   RDEP   =    1.501    radius for radial grids                                 
   RDEPT  =    1.300    core radius for aug-charge                              
                                                                                
   Atomic configuration                                                         
    4 entries                                                                   
     n  l   j            E        occ.                                          
     1  0  0.50      -273.3789   2.0000                                         
     2  0  0.50       -13.7508   2.0000                                         
     2  1  0.50        -5.2854   2.0000                                         
     3  2  1.50        -5.4423   0.0000                                         
   Description                                                                  
     l       E           TYP  RCUT    TYP  RCUT                                 
     0    -13.7508458     23  1.200                                             
     0     -8.2022199     23  1.200                                             
     1     -5.2854383     23  1.500                                             
     1     34.0145650     23  1.500                                             
     2     -5.4423304      7  1.500                                             
  local pseudopotential read in
  partial core-charges read in
  partial kinetic energy density read in
  atomic valenz-charges read in
  non local Contribution for L=           0  read in
    real space projection operators read in
  non local Contribution for L=           0  read in
    real space projection operators read in
  non local Contribution for L=           1  read in
    real space projection operators read in
  non local Contribution for L=           1  read in
    real space projection operators read in
    PAW grid and wavefunctions read in

   number of l-projection  operators is LMAX  =           4
   number of lm-projection operators is LMMAX =           8


 ----------------------------------------------------------------------------- 
|                                                                             |
|  ADVICE TO THIS USER RUNNING 'VASP/VAMP'   (HEAR YOUR MASTER'S VOICE ...):  |
|                                                                             |
|      You have a (more or less) 'small supercell' and for smaller cells      |
|      it is recommended  to use the reciprocal-space projection scheme!      |
|      The real space optimization is not  efficient for small cells and it   |
|      is also less accurate ...                                              |
|      Therefore set LREAL=.FALSE. in the  INCAR file                         |
|                                                                             |
 ----------------------------------------------------------------------------- 


 ----------------------------------------------------------------------------- 
|                                                                             |
|           W    W    AA    RRRRR   N    N  II  N    N   GGGG   !!!           |
|           W    W   A  A   R    R  NN   N  II  NN   N  G    G  !!!           |
|           W    W  A    A  R    R  N N  N  II  N N  N  G       !!!           |
|           W WW W  AAAAAA  RRRRR   N  N N  II  N  N N  G  GGG   !            |
|           WW  WW  A    A  R   R   N   NN  II  N   NN  G    G                |
|           W    W  A    A  R    R  N    N  II  N    N   GGGG   !!!           |
|                                                                             |
|     The real-space-projection scheme for the treatment of the nonlocal      |
|     pseudopotentials has been switched on -- but on file POTCAR I have      |
|     not found any entries signalling me that you have ever performed a      |
|     real-space optimization of all nonlocal projectors! BE WARNED that      |
|     a calculation using the real-space-projection scheme together with      |
|     nonlocal projectors which were not real-space-optimized (according      |
|     to the plane-wave-cutoff used in this calculation) might give more      |
|     or less inaccurate results                                              |
|     I hope you know what you are doing                                      |
|                                                                             |
 ----------------------------------------------------------------------------- 

  PAW_PBE H 15Jun2001                   :
 energy of atom  1       EATOM=  -12.4884
 kinetic energy error for atom=    0.0098 (will be added to EATOM!!)
  PAW_PBE C 08Apr2002                   :
 energy of atom  2       EATOM= -147.1560
 kinetic energy error for atom=    0.0288 (will be added to EATOM!!)


 POSCAR:  H  C                                   
  positions in cartesian coordinates
  No initial velocities read in
 exchange correlation table for  LEXCH =        8
   RHO(1)=    0.500       N(1)  =     2000
   RHO(2)=  100.500       N(2)  =     4000



--------------------------------------------------------------------------------------------------------


 ion  position               nearest neighbor table
   1  0.539  0.407  0.360-   5 1.10
   2  0.394  0.480  0.438-   5 1.09
   3  0.552  0.565  0.443-   5 1.07
   4  0.528  0.416  0.539-   5 1.11
   5  0.503  0.467  0.445-   3 1.07   2 1.09   1 1.10   4 1.11


IMPORTANT INFORMATION: All symmetrisations will be switched off!
NOSYMM: (Re-)initialisation of all symmetry stuff for point group C_1.




Automatic generation of k-mesh.
 generate k-points for:    2    2    2
Space group operators:
 irot       det(A)        alpha          n_x          n_y          n_z        tau_x        tau_y        tau_z
    1     1.000000     0.000000     1.000000     0.000000     0.000000     0.000000     0.000000     0.000000
 
 Subroutine IBZKPT returns following result:
 ===========================================
 
 Found      4 irreducible k-points:
 
 Following reciprocal coordinates:
            Coordinates               Weight
  0.250000  0.250000  0.250000      2.000000
 -0.250000  0.250000  0.250000      2.000000
  0.250000 -0.250000  0.250000      2.000000
 -0.250000 -0.250000  0.250000      2.000000
 
 Following cartesian coordinates:
            Coordinates               Weight
  0.025217  0.025967  0.024608      2.000000
 -0.025217  0.025143  0.025037      2.000000
  0.025217 -0.025143  0.024503      2.000000
 -0.025217 -0.025967  0.024932      2.000000
 


--------------------------------------------------------------------------------------------------------




 Dimension of arrays:
   k-points           NKPTS =      4   k-points in BZ     NKDIM =      4   number of bands    NBANDS=      8
   number of dos      NEDOS =    301   number of ions     NIONS =      5
   non local maximal  LDIM  =      4   non local SUM 2l+1 LMDIM =      8
   total plane-waves  NPLWV = 313600
   max r-space proj   IRMAX =    760   max aug-charges    IRDMAX=   3980
   dimension x,y,z NGX =    70 NGY =   64 NGZ =   70
   dimension x,y,z NGXF=   140 NGYF=  128 NGZF=  140
   support grid    NGXF=   140 NGYF=  128 NGZF=  140
   ions per type =               4   1
   NGX,Y,Z   is equivalent  to a cutoff of  11.74, 10.87, 11.53 a.u.
   NGXF,Y,Z  is equivalent  to a cutoff of  23.48, 21.75, 23.06 a.u.

 SYSTEM =  unknown system                          
 POSCAR =   H  C                                   

 Startparameter for this run:
   NWRITE =      2    write-flag & timer
   PREC   = a         normal or accurate (medium, high low for compatibility)
   ISTART =      0    job   : 0-new  1-cont  2-samecut
   ICHARG =      2    charge: 1-file 2-atom 10-const
   ISPIN  =      1    spin polarized calculation?
   LNONCOLLINEAR =      F non collinear calculations
   LSORBIT =      F    spin-orbit coupling
   INIWAV =      1    electr: 0-lowe 1-rand  2-diag
   LASPH  =      F    aspherical Exc in radial PAW
   METAGGA=      F    non-selfconsistent MetaGGA calc.

 Electronic Relaxation 1
   ENCUT  =  400.0 eV  29.40 Ry    5.42 a.u.  16.17 15.96 16.46*2*pi/ulx,y,z
   ENINI  =  400.0     initial cutoff
   ENAUG  =  644.9 eV  augmentation charge cutoff
   NELM   =     60;   NELMIN=  2; NELMDL= -5     # of ELM steps 
   EDIFF  = 0.1E-05   stopping-criterion for ELM
   LREAL  =      T    real-space projection
   NLSPLINE    = F    spline interpolate recip. space projectors
   LCOMPAT=      F    compatible to vasp.4.4
   GGA_COMPAT  = T    GGA compatible to vasp.4.4-vasp.4.6
   LMAXPAW     = -100 max onsite density
   LMAXMIX     =    2 max onsite mixed and CHGCAR
   VOSKOWN=      0    Vosko Wilk Nusair interpolation
   ROPT   =    0.00000   0.00000
 Ionic relaxation
   EDIFFG = 0.1E-04   stopping-criterion for IOM
   NSW    =     10    number of steps for IOM
   NBLOCK =      1;   KBLOCK =      1    inner block; outer block 
   IBRION =      0    ionic relax: 0-MD 1-quasi-New 2-CG
   NFREE  =      0    steps in history (QN), initial steepest desc. (CG)
   ISIF   =      2    stress and relaxation
   IWAVPR =     12    prediction:  0-non 1-charg 2-wave 3-comb
   ISYM   =      0    0-nonsym 1-usesym 2-fastsym
   LCORR  =      T    Harris-Foulkes like correction to forces

   POTIM  = 2.0000    time-step for ionic-motion
   TEIN   =   50.0    initial temperature
   TEBEG  =   50.0;   TEEND  =  50.0 temperature during run
   SMASS  =   0.00    Nose mass-parameter (am)
   estimated Nose-frequenzy (Omega)   =  0.79E+14 period in steps = 40.00 mass=   0.123E-29a.u.
   SCALEE = 1.0000    scale energy and forces
   NPACO  =    256;   APACO  = 16.0  distance and # of slots for P.C.
   PSTRESS=    0.0 pullay stress

  Mass of Ions in am
   POMASS =   1.00 12.01
  Ionic Valenz
   ZVAL   =   1.00  4.00
  Atomic Wigner-Seitz radii
   RWIGS  =  -1.00 -1.00
  virtual crystal weights 
   VCA    =   1.00  1.00
   NELECT =       8.0000    total number of electrons
   NUPDOWN=      -1.0000    fix difference up-down

 DOS related values:
   EMIN   =  10.00;   EMAX   =-10.00  energy-range for DOS
   EFERMI =   0.00
   ISMEAR =     1;   SIGMA  =   0.20  broadening in eV -4-tet -1-fermi 0-gaus

 Electronic relaxation 2 (details)
   IALGO  =     68    algorithm
   LDIAG  =      T    sub-space diagonalisation (order eigenvalues)
   LSUBROT=      F    optimize rotation matrix (better conditioning)
   TURBO    =      0    0=normal 1=particle mesh
   IRESTART =      0    0=no restart 2=restart with 2 vectors
   NREBOOT  =      0    no. of reboots
   NMIN     =      0    reboot dimension
   EREF     =   0.00    reference energy to select bands
   IMIX   =      4    mixing-type and parameters
     AMIX     =   0.40;   BMIX     =  1.00
     AMIX_MAG =   1.60;   BMIX_MAG =  1.00
     AMIN     =   0.10
     WC   =   100.;   INIMIX=   1;  MIXPRE=   1;  MAXMIX=  50

 Intra band minimization:
   WEIMIN = 0.0010     energy-eigenvalue tresh-hold
   EBREAK =  0.31E-07  absolut break condition
   DEPER  =   0.30     relativ break condition  

   TIME   =   0.40     timestep for ELM

  volume/ion in A,a.u.               =     195.78      1321.18
  Fermi-wavevector in a.u.,A,eV,Ry     =   0.329756  0.623149  1.479488  0.108739
  Thomas-Fermi vector in A             =   1.224477

 Write flags
   LWAVE        =      F    write WAVECAR
   LDOWNSAMPLE  =      F    k-point downsampling of WAVECAR
   LCHARG       =      F    write CHGCAR
   LVTOT        =      F    write LOCPOT, total local potential
   LVHAR        =      F    write LOCPOT, Hartree potential only
   LELF         =      F    write electronic localiz. function (ELF)
   LORBIT       =      0    0 simple, 1 ext, 2 COOP (PROOUT), +10 PAW based schemes


 Dipole corrections
   LMONO  =      F    monopole corrections only (constant potential shift)
   LDIPOL =      F    correct potential (dipole corrections)
   IDIPOL =      0    1-x, 2-y, 3-z, 4-all directions 
   EPSILON=  1.0000000 bulk dielectric constant

 Exchange correlation treatment:
   GGA     =    --    GGA type
   LEXCH   =     8    internal setting for exchange type
   VOSKOWN=      0    Vosko Wilk Nusair interpolation
   LHFCALC =     F    Hartree Fock is set to
   LHFONE  =     F    Hartree Fock one center treatment
   AEXX    =    0.0000 exact exchange contribution

 Linear response parameters
   LEPSILON=     F    determine dielectric tensor
   LRPA    =     F    only Hartree local field effects (RPA)
   LNABLA  =     F    use nabla operator in PAW spheres
   LVEL    =     F    velocity operator in full k-point grid
   LINTERFAST=   F  fast interpolation
   KINTER  =     0    interpolate to denser k-point grid
   CSHIFT  =0.1000    complex shift for real part using Kramers Kronig
   OMEGAMAX=  -1.0    maximum frequency
   DEG_THRESHOLD= 0.2000000E-02 threshold for treating states as degnerate
   RTIME   =   -0.100 relaxation time in fs
  (WPLASMAI=    0.000 imaginary part of plasma frequency in eV, 0.658/RTIME)
   DFIELD  = 0.0000000 0.0000000 0.0000000 field for delta impulse in time

 Orbital magnetization related:
   ORBITALMAG=     F  switch on orbital magnetization
   LCHIMAG   =     F  perturbation theory with respect to B field
   DQ        =  0.001000  dq finite difference perturbation B field
   LLRAUG    =     F  two centre corrections for induced B field



--------------------------------------------------------------------------------------------------------


 molecular dynamics for ions
   using nose mass (canonical ensemble)
 charge density and potential will be updated during run
 non-spin polarized calculation
 RMM-DIIS sequential band-by-band and
  variant of blocked Davidson during initial phase
 perform sub-space diagonalisation
    before iterative eigenvector-optimisation
 modified Broyden-mixing scheme, WC =      100.0
 initial mixing is a Kerker type mixing with AMIX =  0.4000 and BMIX =      1.0000
 Hartree-type preconditioning will be used
 using additional bands            4
 real space projection scheme for non local part
 use partial core corrections
 calculate Harris-corrections to forces   (improved forces if not selfconsistent)
 use gradient corrections 
 use of overlap-Matrix (Vanderbilt PP)
 Methfessel and Paxton  Order N= 1 SIGMA  =   0.20


--------------------------------------------------------------------------------------------------------


  energy-cutoff  :      400.00
  volume of cell :      978.89
      direct lattice vectors                 reciprocal lattice vectors
     9.913971002  0.000000000  0.000000000     0.100867755  0.001648435 -0.000857498
    -0.159877705  9.782919694  0.000000000    -0.000000000  0.102218973  0.000209883
     0.086141042 -0.020723550 10.092961319     0.000000000 -0.000000000  0.099078949

  length of vectors
     9.913971002  9.784226010 10.093350184     0.100884868  0.102219188  0.099078949



 k-points in units of 2pi/SCALE and weight: read from INCAR                         
   0.02521694  0.02596685  0.02460783       0.250
  -0.02521694  0.02514263  0.02503658       0.250
   0.02521694 -0.02514263  0.02450289       0.250
  -0.02521694 -0.02596685  0.02493164       0.250

 k-points in reciprocal lattice and weights: read from INCAR                         
   0.25000000  0.25000000  0.25000000       0.250
  -0.25000000  0.25000000  0.25000000       0.250
   0.25000000 -0.25000000  0.25000000       0.250
  -0.25000000 -0.25000000  0.25000000       0.250

 position of ions in fractional coordinates (direct lattice) 
   0.53854978  0.40666729  0.36049034
   0.39423482  0.48005349  0.43785725
   0.55195653  0.56545605  0.44269245
   0.52816374  0.41617850  0.53939624
   0.50281321  0.46738124  0.44543388

 position of ions in cartesian coordinates  (Angst):
   5.30520288  3.97092280  3.63841506
   3.86940023  4.68725081  4.41927631
   5.41981123  5.52263699  4.46807774
   5.21612653  4.06026263  5.44410535
   4.94852192  4.56312215  4.49574689



--------------------------------------------------------------------------------------------------------


 k-point  1 :   0.2500 0.2500 0.2500  plane waves:   17768
 k-point  2 :  -0.2500 0.2500 0.2500  plane waves:   17793
 k-point  3 :   0.2500-0.2500 0.2500  plane waves:   17787
 k-point  4 :  -0.2500-0.2500 0.2500  plane waves:   17769

 maximum and minimum number of plane-waves per node :     17793    17768

 maximum number of plane-waves:     17793
 maximum index in each direction: 
   IXMAX=   16   IYMAX=   16   IZMAX=   16
   IXMIN=  -16   IYMIN=  -16   IZMIN=  -16


 serial   3D FFT for wavefunctions
 parallel 3D FFT for charge:
    minimum data exchange during FFTs selected (reduces bandwidth)


 total amount of memory used by VASP MPI-rank0   280421. kBytes
=======================================================================

   base      :      30000. kBytes
   nonlr-proj:        156. kBytes
   fftplans  :      86584. kBytes
   grid      :     154542. kBytes
   one-center:         15. kBytes
   wavefun   :       9124. kBytes

     INWAV:  cpu time    0.0000: real time    0.0000
 Broyden mixing: mesh for mixing (old mesh)
   NGX = 33   NGY = 31   NGZ = 33
  (NGX  =140   NGY  =128   NGZ  =140)
  gives a total of  33759 points

 initial charge density was supplied:
 charge density of overlapping atoms calculated
 number of electron       8.0000000 magnetization 
 keeping initial charge density in first step


--------------------------------------------------------------------------------------------------------


 Maximum index for non-local projection operator          686
 Maximum index for augmentation-charges         3663 (set IRDMAX)


--------------------------------------------------------------------------------------------------------


 First call to EWALD:  gamma=   0.179
 Maximum number of real-space cells 3x 3x 3
 Maximum number of reciprocal cells 3x 3x 3

    FEWALD:  cpu time    0.0007: real time    0.0007


--------------------------------------- Iteration      1(   1)  ---------------------------------------


    POTLOK:  cpu time    1.6874: real time    1.6916
    SETDIJ:  cpu time    0.0067: real time    0.0067
     EDDAV:  cpu time    2.7824: real time    2.7889
       DOS:  cpu time    0.0003: real time    0.0003
    --------------------------------------------
      LOOP:  cpu time    4.4767: real time    4.4876

 eigenvalue-minimisations  :    96
 total energy-change (2. order) : 0.1445016E+02  (-0.1983811E+03)
 number of electron       8.0000000 magnetization 
 augmentation part        8.0000000 magnetization 

 Free energy of the ion-electron system (eV)
  ---------------------------------------------------
  alpha Z        PSCENC =         0.24747450
  Ewald energy   TEWEN  =       129.13488378
  -Hartree energ DENC   =      -243.79202821
  -exchange      EXHF   =         0.00000000
  -V(xc)+E(xc)   XCENC  =        22.04041171
  PAW double counting   =       117.05815612     -117.66307307
  entropy T*S    EENTRO =         0.00289895
  eigenvalues    EBANDS =       -89.62032135
  atomic energy  EATOM  =       197.04175453
  Solvation  Ediel_sol  =         0.00000000
  ---------------------------------------------------
  free energy    TOTEN  =        14.45015697 eV

  energy without entropy =       14.44725802  energy(sigma->0) =       14.44919065


--------------------------------------------------------------------------------------------------------




--------------------------------------- Iteration      1(   2)  ---------------------------------------


     EDDAV:  cpu time    2.0078: real time    2.0127
       DOS:  cpu time    0.0002: real time    0.0002
    --------------------------------------------
      LOOP:  cpu time    2.0080: real time    2.0129

 eigenvalue-minimisations  :    64
 total energy-change (2. order) :-0.3736150E+02  (-0.3736150E+02)
 number of electron       8.0000000 magnetization 
 augmentation part        8.0000000 magnetization 

 Free energy of the ion-electron system (eV)
  ---------------------------------------------------
  alpha Z        PSCENC =         0.24747450
  Ewald energy   TEWEN  =       129.13488378
  -Hartree energ DENC   =      -243.79202821
  -exchange      EXHF   =         0.00000000
  -V(xc)+E(xc)   XCENC  =        22.04041171
  PAW double counting   =       117.05815612     -117.66307307
  entropy T*S    EENTRO =         0.00289895
  eigenvalues    EBANDS =      -126.98181994
  atomic energy  EATOM  =       197.04175453
  Solvation  Ediel_sol  =         0.00000000
  ---------------------------------------------------
  free energy    TOTEN  =       -22.91134162 eV

  energy without entropy =      -22.91424057  energy(sigma->0) =      -22.91230794


--------------------------------------------------------------------------------------------------------




--------------------------------------- Iteration      1(   3)  ---------------------------------------


     EDDAV:  cpu time    2.0114: real time    2.0161
       DOS:  cpu time    0.0002: real time    0.0002
    --------------------------------------------
      LOOP:  cpu time    2.0116: real time    2.0164

 eigenvalue-minimisations  :    64
 total energy-change (2. order) :-0.4524039E+01  (-0.4543261E+01)
 number of electron       8.0000000 magnetization 
 augmentation part        8.0000000 magnetization 

 Free energy of the ion-electron system (eV)
  ---------------------------------------------------
  alpha Z        PSCENC =         0.24747450
  Ewald energy   TEWEN  =       129.13488378
  -Hartree energ DENC   =      -243.79202821
  -exchange      EXHF   =         0.00000000
  -V(xc)+E(xc)   XCENC  =        22.04041171
  PAW double counting   =       117.05815612     -117.66307307
  entropy T*S    EENTRO =         0.03332147
  eigenvalues    EBANDS =      -131.53628124
  atomic energy  EATOM  =       197.04175453
  Solvation  Ediel_sol  =         0.00000000
  ---------------------------------------------------
  free energy    TOTEN  =       -27.43538041 eV

  energy without entropy =      -27.46870187  energy(sigma->0) =      -27.44648756


--------------------------------------------------------------------------------------------------------




--------------------------------------- Iteration      1(   4)  ---------------------------------------


     EDDAV:  cpu time    3.5769: real time    3.5854
       DOS:  cpu time    0.0002: real time    0.0002
    --------------------------------------------
      LOOP:  cpu time    3.5771: real time    3.5856

 eigenvalue-minimisations  :   128
 total energy-change (2. order) :-0.1808059E+00  (-0.1802834E+00)
 number of electron       8.0000000 magnetization 
 augmentation part        8.0000000 magnetization 

 Free energy of the ion-electron system (eV)
  ---------------------------------------------------
  alpha Z        PSCENC =         0.24747450
  Ewald energy   TEWEN  =       129.13488378
  -Hartree energ DENC   =      -243.79202821
  -exchange      EXHF   =         0.00000000
  -V(xc)+E(xc)   XCENC  =        22.04041171
  PAW double counting   =       117.05815612     -117.66307307
  entropy T*S    EENTRO =         0.03274980
  eigenvalues    EBANDS =      -131.71651544
  atomic energy  EATOM  =       197.04175453
  Solvation  Ediel_sol  =         0.00000000
  ---------------------------------------------------
  free energy    TOTEN  =       -27.61618628 eV

  energy without entropy =      -27.64893608  energy(sigma->0) =      -27.62710288


--------------------------------------------------------------------------------------------------------




--------------------------------------- Iteration      1(   5)  ---------------------------------------


     EDDAV:  cpu time    2.7094: real time    2.7158
       DOS:  cpu time    0.0002: real time    0.0002
    CHARGE:  cpu time    0.1708: real time    0.1712
    MIXING:  cpu time    0.0385: real time    0.0386
    --------------------------------------------
      LOOP:  cpu time    2.9189: real time    2.9259

 eigenvalue-minimisations  :    96
 total energy-change (2. order) :-0.6544401E-04  (-0.6544428E-04)
 number of electron       8.0000002 magnetization 
 augmentation part        0.2260902 magnetization 

 Broyden mixing:
  rms(total) = 0.88031E+00    rms(broyden)= 0.88007E+00
  rms(prec ) = 0.12503E+01
  weight for this iteration     100.00

 Free energy of the ion-electron system (eV)
  ---------------------------------------------------
  alpha Z        PSCENC =         0.24747450
  Ewald energy   TEWEN  =       129.13488378
  -Hartree energ DENC   =      -243.79202821
  -exchange      EXHF   =         0.00000000
  -V(xc)+E(xc)   XCENC  =        22.04041171
  PAW double counting   =       117.05815612     -117.66307307
  entropy T*S    EENTRO =         0.03274969
  eigenvalues    EBANDS =      -131.71658078
  atomic energy  EATOM  =       197.04175453
  Solvation  Ediel_sol  =         0.00000000
  ---------------------------------------------------
  free energy    TOTEN  =       -27.61625172 eV

  energy without entropy =      -27.64900142  energy(sigma->0) =      -27.62716829


--------------------------------------------------------------------------------------------------------




--------------------------------------- Iteration      1(   6)  ---------------------------------------


    POTLOK:  cpu time    1.7091: real time    1.7132
    SETDIJ:  cpu time    0.0065: real time    0.0066
    EDDIAG:  cpu time    0.4385: real time    0.4396
  RMM-DIIS:  cpu time    1.4129: real time    1.4162
    ORTHCH:  cpu time    0.0116: real time    0.0116
       DOS:  cpu time    0.0002: real time    0.0002
    CHARGE:  cpu time    0.1617: real time    0.1621
    MIXING:  cpu time    0.0386: real time    0.0386
    --------------------------------------------
      LOOP:  cpu time    3.7792: real time    3.7882

 eigenvalue-minimisations  :    64
 total energy-change (2. order) : 0.2969670E+01  (-0.5523849E+00)
 number of electron       8.0000002 magnetization 
 augmentation part        0.1991363 magnetization 

 Broyden mixing:
  rms(total) = 0.42331E+00    rms(broyden)= 0.42320E+00
  rms(prec ) = 0.55649E+00
  weight for this iteration     100.00

 eigenvalues of (default mixing * dielectric matrix)
  average eigenvalue GAMMA=   1.3059
  1.3059

 Free energy of the ion-electron system (eV)
  ---------------------------------------------------
  alpha Z        PSCENC =         0.24747450
  Ewald energy   TEWEN  =       129.13488378
  -Hartree energ DENC   =      -263.75839138
  -exchange      EXHF   =         0.00000000
  -V(xc)+E(xc)   XCENC  =        23.25276701
  PAW double counting   =       229.48335877     -230.26612884
  entropy T*S    EENTRO =         0.03706712
  eigenvalues    EBANDS =      -109.81936758
  atomic energy  EATOM  =       197.04175453
  Solvation  Ediel_sol  =         0.00000000
  ---------------------------------------------------
  free energy    TOTEN  =       -24.64658210 eV

  energy without entropy =      -24.68364922  energy(sigma->0) =      -24.65893780


--------------------------------------------------------------------------------------------------------




--------------------------------------- Iteration      1(   7)  ---------------------------------------


    POTLOK:  cpu time    1.7196: real time    1.7237
    SETDIJ:  cpu time    0.0064: real time    0.0065
    EDDIAG:  cpu time    0.4261: real time    0.4271
  RMM-DIIS:  cpu time    1.4460: real time    1.4494
    ORTHCH:  cpu time    0.0121: real time    0.0121
       DOS:  cpu time    0.0002: real time    0.0002
    CHARGE:  cpu time    0.1828: real time    0.1833
    MIXING:  cpu time    0.0402: real time    0.0403
    --------------------------------------------
      LOOP:  cpu time    3.8334: real time    3.8425

 eigenvalue-minimisations  :    64
 total energy-change (2. order) : 0.5041832E+00  (-0.1273819E+00)
 number of electron       8.0000002 magnetization 
 augmentation part        0.1883895 magnetization 

 Broyden mixing:
  rms(total) = 0.22267E+00    rms(broyden)= 0.22260E+00
  rms(prec ) = 0.27331E+00
  weight for this iteration     100.00

 eigenvalues of (default mixing * dielectric matrix)
  average eigenvalue GAMMA=   1.7124
  1.4981  1.9268

 Free energy of the ion-electron system (eV)
  ---------------------------------------------------
  alpha Z        PSCENC =         0.24747450
  Ewald energy   TEWEN  =       129.13488378
  -Hartree energ DENC   =      -275.62936914
  -exchange      EXHF   =         0.00000000
  -V(xc)+E(xc)   XCENC  =        24.12239171
  PAW double counting   =       343.42672460     -344.25012119
  entropy T*S    EENTRO =         0.03666021
  eigenvalues    EBANDS =       -98.27279789
  atomic energy  EATOM  =       197.04175453
  Solvation  Ediel_sol  =         0.00000000
  ---------------------------------------------------
  free energy    TOTEN  =       -24.14239888 eV

  energy without entropy =      -24.17905909  energy(sigma->0) =      -24.15461895


--------------------------------------------------------------------------------------------------------




--------------------------------------- Iteration      1(   8)  ---------------------------------------


    POTLOK:  cpu time    1.7004: real time    1.7045
    SETDIJ:  cpu time    0.0064: real time    0.0064
    EDDIAG:  cpu time    0.4364: real time    0.4374
  RMM-DIIS:  cpu time    1.4726: real time    1.4761
    ORTHCH:  cpu time    0.0118: real time    0.0118
       DOS:  cpu time    0.0002: real time    0.0002
    CHARGE:  cpu time    0.1946: real time    0.1951
    MIXING:  cpu time    0.0427: real time    0.0428
    --------------------------------------------
      LOOP:  cpu time    3.8651: real time    3.8743

 eigenvalue-minimisations  :    64
 total energy-change (2. order) : 0.1342010E+00  (-0.1344788E-01)
 number of electron       8.0000002 magnetization 
 augmentation part        0.1871246 magnetization 

 Broyden mixing:
  rms(total) = 0.81383E-01    rms(broyden)= 0.81308E-01
  rms(prec ) = 0.11766E+00
  weight for this iteration     100.00

 eigenvalues of (default mixing * dielectric matrix)
  average eigenvalue GAMMA=   1.4168
  2.2124  1.4501  0.5880

 Free energy of the ion-electron system (eV)
  ---------------------------------------------------
  alpha Z        PSCENC =         0.24747450
  Ewald energy   TEWEN  =       129.13488378
  -Hartree energ DENC   =      -280.35493381
  -exchange      EXHF   =         0.00000000
  -V(xc)+E(xc)   XCENC  =        24.58949629
  PAW double counting   =       425.41834539     -426.21332109
  entropy T*S    EENTRO =         0.03899642
  eigenvalues    EBANDS =       -93.91089393
  atomic energy  EATOM  =       197.04175453
  Solvation  Ediel_sol  =         0.00000000
  ---------------------------------------------------
  free energy    TOTEN  =       -24.00819792 eV

  energy without entropy =      -24.04719434  energy(sigma->0) =      -24.02119673


--------------------------------------------------------------------------------------------------------




--------------------------------------- Iteration      1(   9)  ---------------------------------------


    POTLOK:  cpu time    1.7022: real time    1.7062
    SETDIJ:  cpu time    0.0064: real time    0.0064
    EDDIAG:  cpu time    0.4270: real time    0.4280
  RMM-DIIS:  cpu time    1.4834: real time    1.4869
    ORTHCH:  cpu time    0.0122: real time    0.0123
       DOS:  cpu time    0.0002: real time    0.0002
    CHARGE:  cpu time    0.1849: real time    0.1853
    MIXING:  cpu time    0.0422: real time    0.0423
    --------------------------------------------
      LOOP:  cpu time    3.8585: real time    3.8676

 eigenvalue-minimisations  :    64
 total energy-change (2. order) : 0.1719675E-01  (-0.2007921E-02)
 number of electron       8.0000002 magnetization 
 augmentation part        0.1867544 magnetization 

 Broyden mixing:
  rms(total) = 0.35744E-01    rms(broyden)= 0.35661E-01
  rms(prec ) = 0.60047E-01
  weight for this iteration     100.00

 eigenvalues of (default mixing * dielectric matrix)
  average eigenvalue GAMMA=   1.1958
  2.2092  1.4319  0.6469  0.4950

 Free energy of the ion-electron system (eV)
  ---------------------------------------------------
  alpha Z        PSCENC =         0.24747450
  Ewald energy   TEWEN  =       129.13488378
  -Hartree energ DENC   =      -281.65888509
  -exchange      EXHF   =         0.00000000
  -V(xc)+E(xc)   XCENC  =        24.69323366
  PAW double counting   =       439.46944483     -440.26161126
  entropy T*S    EENTRO =         0.03699612
  eigenvalues    EBANDS =       -92.69429224
  atomic energy  EATOM  =       197.04175453
  Solvation  Ediel_sol  =         0.00000000
  ---------------------------------------------------
  free energy    TOTEN  =       -23.99100117 eV

  energy without entropy =      -24.02799729  energy(sigma->0) =      -24.00333321


--------------------------------------------------------------------------------------------------------




--------------------------------------- Iteration      1(  10)  ---------------------------------------


    POTLOK:  cpu time    1.7056: real time    1.7098
    SETDIJ:  cpu time    0.0067: real time    0.0067
    EDDIAG:  cpu time    0.4284: real time    0.4294
  RMM-DIIS:  cpu time    1.4885: real time    1.4920
    ORTHCH:  cpu time    0.0127: real time    0.0127
       DOS:  cpu time    0.0002: real time    0.0002
    CHARGE:  cpu time    0.1916: real time    0.1921
    MIXING:  cpu time    0.0436: real time    0.0437
    --------------------------------------------
      LOOP:  cpu time    3.8773: real time    3.8865

 eigenvalue-minimisations  :    64
 total energy-change (2. order) : 0.2498407E-02  (-0.2432228E-03)
 number of electron       8.0000002 magnetization 
 augmentation part        0.1864530 magnetization 

 Broyden mixing:
  rms(total) = 0.19657E-01    rms(broyden)= 0.19631E-01
  rms(prec ) = 0.41425E-01
  weight for this iteration     100.00

 eigenvalues of (default mixing * dielectric matrix)
  average eigenvalue GAMMA=   1.1666
  2.0915  1.4663  1.0702  0.7555  0.4496

 Free energy of the ion-electron system (eV)
  ---------------------------------------------------
  alpha Z        PSCENC =         0.24747450
  Ewald energy   TEWEN  =       129.13488378
  -Hartree energ DENC   =      -282.16109983
  -exchange      EXHF   =         0.00000000
  -V(xc)+E(xc)   XCENC  =        24.71730765
  PAW double counting   =       439.56517816     -440.35850766
  entropy T*S    EENTRO =         0.03590310
  eigenvalues    EBANDS =       -92.21139699
  atomic energy  EATOM  =       197.04175453
  Solvation  Ediel_sol  =         0.00000000
  ---------------------------------------------------
  free energy    TOTEN  =       -23.98850276 eV

  energy without entropy =      -24.02440586  energy(sigma->0) =      -24.00047046


--------------------------------------------------------------------------------------------------------




--------------------------------------- Iteration      1(  11)  ---------------------------------------


    POTLOK:  cpu time    1.6932: real time    1.6972
    SETDIJ:  cpu time    0.0065: real time    0.0065
    EDDIAG:  cpu time    0.4402: real time    0.4413
  RMM-DIIS:  cpu time    1.4689: real time    1.4724
    ORTHCH:  cpu time    0.0121: real time    0.0122
       DOS:  cpu time    0.0002: real time    0.0002
    CHARGE:  cpu time    0.1880: real time    0.1885
    MIXING:  cpu time    0.0446: real time    0.0447
    --------------------------------------------
      LOOP:  cpu time    3.8537: real time    3.8628

 eigenvalue-minimisations  :    64
 total energy-change (2. order) : 0.8015866E-03  (-0.4565794E-03)
 number of electron       8.0000002 magnetization 
 augmentation part        0.1858908 magnetization 

 Broyden mixing:
  rms(total) = 0.13284E-01    rms(broyden)= 0.13272E-01
  rms(prec ) = 0.29619E-01
  weight for this iteration     100.00

 eigenvalues of (default mixing * dielectric matrix)
  average eigenvalue GAMMA=   1.4237
  2.5569  2.5569  1.1109  1.0680  0.8017  0.4480

 Free energy of the ion-electron system (eV)
  ---------------------------------------------------
  alpha Z        PSCENC =         0.24747450
  Ewald energy   TEWEN  =       129.13488378
  -Hartree energ DENC   =      -283.10082982
  -exchange      EXHF   =         0.00000000
  -V(xc)+E(xc)   XCENC  =        24.75371745
  PAW double counting   =       436.50715685     -437.30212041
  entropy T*S    EENTRO =         0.03581326
  eigenvalues    EBANDS =       -91.30555132
  atomic energy  EATOM  =       197.04175453
  Solvation  Ediel_sol  =         0.00000000
  ---------------------------------------------------
  free energy    TOTEN  =       -23.98770117 eV

  energy without entropy =      -24.02351443  energy(sigma->0) =      -23.99963893


--------------------------------------------------------------------------------------------------------




--------------------------------------- Iteration      1(  12)  ---------------------------------------


    POTLOK:  cpu time    1.6361: real time    1.6400
    SETDIJ:  cpu time    0.0064: real time    0.0064
    EDDIAG:  cpu time    0.4261: real time    0.4271
  RMM-DIIS:  cpu time    1.4953: real time    1.4988
    ORTHCH:  cpu time    0.0125: real time    0.0125
       DOS:  cpu time    0.0002: real time    0.0002
    CHARGE:  cpu time    0.1923: real time    0.1927
    MIXING:  cpu time    0.0444: real time    0.0446
    --------------------------------------------
      LOOP:  cpu time    3.8133: real time    3.8223

 eigenvalue-minimisations  :    64
 total energy-change (2. order) : 0.4753209E-02  (-0.3097074E-03)
 number of electron       8.0000002 magnetization 
 augmentation part        0.1858174 magnetization 

 Broyden mixing:
  rms(total) = 0.60340E-02    rms(broyden)= 0.60247E-02
  rms(prec ) = 0.13715E-01
  weight for this iteration     100.00

 eigenvalues of (default mixing * dielectric matrix)
  average eigenvalue GAMMA=   1.4542
  3.2072  2.3825  0.4480  1.2641  1.1117  0.8830  0.8830

 Free energy of the ion-electron system (eV)
  ---------------------------------------------------
  alpha Z        PSCENC =         0.24747450
  Ewald energy   TEWEN  =       129.13488378
  -Hartree energ DENC   =      -284.23810234
  -exchange      EXHF   =         0.00000000
  -V(xc)+E(xc)   XCENC  =        24.80006745
  PAW double counting   =       432.59731360     -433.38863632
  entropy T*S    EENTRO =         0.03589579
  eigenvalues    EBANDS =       -90.21359896
  atomic energy  EATOM  =       197.04175453
  Solvation  Ediel_sol  =         0.00000000
  ---------------------------------------------------
  free energy    TOTEN  =       -23.98294797 eV

  energy without entropy =      -24.01884376  energy(sigma->0) =      -23.99491323


--------------------------------------------------------------------------------------------------------




--------------------------------------- Iteration      1(  13)  ---------------------------------------


    POTLOK:  cpu time    1.5941: real time    1.5978
    SETDIJ:  cpu time    0.0066: real time    0.0066
    EDDIAG:  cpu time    0.4406: real time    0.4416
  RMM-DIIS:  cpu time    1.4659: real time    1.4693
    ORTHCH:  cpu time    0.0122: real time    0.0122
       DOS:  cpu time    0.0002: real time    0.0002
    CHARGE:  cpu time    0.1935: real time    0.1940
    MIXING:  cpu time    0.0466: real time    0.0467
    --------------------------------------------
      LOOP:  cpu time    3.7596: real time    3.7685

 eigenvalue-minimisations  :    64
 total energy-change (2. order) :-0.2790470E-02  (-0.4802103E-04)
 number of electron       8.0000002 magnetization 
 augmentation part        0.1856526 magnetization 

 Broyden mixing:
  rms(total) = 0.55001E-02    rms(broyden)= 0.54935E-02
  rms(prec ) = 0.10489E-01
  weight for this iteration     100.00

 eigenvalues of (default mixing * dielectric matrix)
  average eigenvalue GAMMA=   1.6047
  3.8201  2.3365  2.3365  0.4482  1.2681  0.7971  0.7971  1.0336

 Free energy of the ion-electron system (eV)
  ---------------------------------------------------
  alpha Z        PSCENC =         0.24747450
  Ewald energy   TEWEN  =       129.13488378
  -Hartree energ DENC   =      -284.65409461
  -exchange      EXHF   =         0.00000000
  -V(xc)+E(xc)   XCENC  =        24.81578487
  PAW double counting   =       432.60527451     -433.39680779
  entropy T*S    EENTRO =         0.03579855
  eigenvalues    EBANDS =       -89.81580677
  atomic energy  EATOM  =       197.04175453
  Solvation  Ediel_sol  =         0.00000000
  ---------------------------------------------------
  free energy    TOTEN  =       -23.98573844 eV

  energy without entropy =      -24.02153698  energy(sigma->0) =      -23.99767128


--------------------------------------------------------------------------------------------------------




--------------------------------------- Iteration      1(  14)  ---------------------------------------


    POTLOK:  cpu time    1.5427: real time    1.5463
    SETDIJ:  cpu time    0.0065: real time    0.0066
    EDDIAG:  cpu time    0.4516: real time    0.4526
  RMM-DIIS:  cpu time    1.4785: real time    1.4820
    ORTHCH:  cpu time    0.0115: real time    0.0115
       DOS:  cpu time    0.0002: real time    0.0002
    CHARGE:  cpu time    0.1820: real time    0.1825
    MIXING:  cpu time    0.0469: real time    0.0470
    --------------------------------------------
      LOOP:  cpu time    3.7199: real time    3.7287

 eigenvalue-minimisations  :    64
 total energy-change (2. order) :-0.5613349E-02  (-0.9299624E-04)
 number of electron       8.0000002 magnetization 
 augmentation part        0.1856451 magnetization 

 Broyden mixing:
  rms(total) = 0.29191E-02    rms(broyden)= 0.29094E-02
  rms(prec ) = 0.53348E-02
  weight for this iteration     100.00

 eigenvalues of (default mixing * dielectric matrix)
  average eigenvalue GAMMA=   1.6875
  4.8993  2.8374  2.2230  1.2688  1.1380  0.4483  0.8343  0.8343  0.7041

 Free energy of the ion-electron system (eV)
  ---------------------------------------------------
  alpha Z        PSCENC =         0.24747450
  Ewald energy   TEWEN  =       129.13488378
  -Hartree energ DENC   =      -284.80438388
  -exchange      EXHF   =         0.00000000
  -V(xc)+E(xc)   XCENC  =        24.81318612
  PAW double counting   =       432.13887962     -432.93024619
  entropy T*S    EENTRO =         0.03592600
  eigenvalues    EBANDS =       -89.66882627
  atomic energy  EATOM  =       197.04175453
  Solvation  Ediel_sol  =         0.00000000
  ---------------------------------------------------
  free energy    TOTEN  =       -23.99135178 eV

  energy without entropy =      -24.02727778  energy(sigma->0) =      -24.00332712


--------------------------------------------------------------------------------------------------------




--------------------------------------- Iteration      1(  15)  ---------------------------------------


    POTLOK:  cpu time    1.5000: real time    1.5036
    SETDIJ:  cpu time    0.0066: real time    0.0066
    EDDIAG:  cpu time    0.4673: real time    0.4684
  RMM-DIIS:  cpu time    1.5060: real time    1.5095
    ORTHCH:  cpu time    0.0118: real time    0.0118
       DOS:  cpu time    0.0002: real time    0.0002
    CHARGE:  cpu time    0.1817: real time    0.1821
    MIXING:  cpu time    0.0464: real time    0.0465
    --------------------------------------------
      LOOP:  cpu time    3.7200: real time    3.7287

 eigenvalue-minimisations  :    64
 total energy-change (2. order) :-0.1889409E-02  (-0.2372204E-04)
 number of electron       8.0000002 magnetization 
 augmentation part        0.1856266 magnetization 

 Broyden mixing:
  rms(total) = 0.22107E-02    rms(broyden)= 0.22098E-02
  rms(prec ) = 0.38209E-02
  weight for this iteration     100.00

 eigenvalues of (default mixing * dielectric matrix)
  average eigenvalue GAMMA=   1.7687
  5.2021  3.2446  2.1048  2.1048  1.1712  1.1712  0.4482  0.7973  0.7973  0.6453

 Free energy of the ion-electron system (eV)
  ---------------------------------------------------
  alpha Z        PSCENC =         0.24747450
  Ewald energy   TEWEN  =       129.13488378
  -Hartree energ DENC   =      -284.78463210
  -exchange      EXHF   =         0.00000000
  -V(xc)+E(xc)   XCENC  =        24.80686796
  PAW double counting   =       431.45093400     -432.24245978
  entropy T*S    EENTRO =         0.03588669
  eigenvalues    EBANDS =       -89.68395077
  atomic energy  EATOM  =       197.04175453
  Solvation  Ediel_sol  =         0.00000000
  ---------------------------------------------------
  free energy    TOTEN  =       -23.99324119 eV

  energy without entropy =      -24.02912788  energy(sigma->0) =      -24.00520342


--------------------------------------------------------------------------------------------------------




--------------------------------------- Iteration      1(  16)  ---------------------------------------


    POTLOK:  cpu time    1.4829: real time    1.4864
    SETDIJ:  cpu time    0.0067: real time    0.0067
    EDDIAG:  cpu time    0.4603: real time    0.4614
  RMM-DIIS:  cpu time    1.5074: real time    1.5110
    ORTHCH:  cpu time    0.0118: real time    0.0118
       DOS:  cpu time    0.0002: real time    0.0002
    CHARGE:  cpu time    0.1662: real time    0.1665
    MIXING:  cpu time    0.0479: real time    0.0481
    --------------------------------------------
      LOOP:  cpu time    3.6833: real time    3.6921

 eigenvalue-minimisations  :    64
 total energy-change (2. order) :-0.1845800E-02  (-0.2998641E-04)
 number of electron       8.0000002 magnetization 
 augmentation part        0.1856145 magnetization 

 Broyden mixing:
  rms(total) = 0.20512E-02    rms(broyden)= 0.20462E-02
  rms(prec ) = 0.28473E-02
  weight for this iteration     100.00

 eigenvalues of (default mixing * dielectric matrix)
  average eigenvalue GAMMA=   1.8675
  5.9447  3.7174  2.6208  1.9680  1.4059  1.2471  0.4482  1.0298  0.7798  0.7798
  0.6016

 Free energy of the ion-electron system (eV)
  ---------------------------------------------------
  alpha Z        PSCENC =         0.24747450
  Ewald energy   TEWEN  =       129.13488378
  -Hartree energ DENC   =      -284.74383479
  -exchange      EXHF   =         0.00000000
  -V(xc)+E(xc)   XCENC  =        24.80046729
  PAW double counting   =       431.39507508     -432.18656296
  entropy T*S    EENTRO =         0.03585294
  eigenvalues    EBANDS =       -89.72019736
  atomic energy  EATOM  =       197.04175453
  Solvation  Ediel_sol  =         0.00000000
  ---------------------------------------------------
  free energy    TOTEN  =       -23.99508699 eV

  energy without entropy =      -24.03093993  energy(sigma->0) =      -24.00703797


--------------------------------------------------------------------------------------------------------




--------------------------------------- Iteration      1(  17)  ---------------------------------------


    POTLOK:  cpu time    1.4645: real time    1.4680
    SETDIJ:  cpu time    0.0065: real time    0.0065
    EDDIAG:  cpu time    0.4640: real time    0.4651
  RMM-DIIS:  cpu time    1.5322: real time    1.5358
    ORTHCH:  cpu time    0.0113: real time    0.0114
       DOS:  cpu time    0.0002: real time    0.0002
    CHARGE:  cpu time    0.1747: real time    0.1752
    MIXING:  cpu time    0.0510: real time    0.0511
    --------------------------------------------
      LOOP:  cpu time    3.7045: real time    3.7133

 eigenvalue-minimisations  :    64
 total energy-change (2. order) :-0.3204296E-03  (-0.4623904E-05)
 number of electron       8.0000002 magnetization 
 augmentation part        0.1855832 magnetization 

 Broyden mixing:
  rms(total) = 0.11158E-02    rms(broyden)= 0.11155E-02
  rms(prec ) = 0.15744E-02
  weight for this iteration     100.00

 eigenvalues of (default mixing * dielectric matrix)
  average eigenvalue GAMMA=   1.9266
  6.7793  4.1863  2.6083  2.2688  1.4049  1.1357  1.1357  0.4483  0.9724  0.7908
  0.7908  0.5981

 Free energy of the ion-electron system (eV)
  ---------------------------------------------------
  alpha Z        PSCENC =         0.24747450
  Ewald energy   TEWEN  =       129.13488378
  -Hartree energ DENC   =      -284.81357054
  -exchange      EXHF   =         0.00000000
  -V(xc)+E(xc)   XCENC  =        24.80542649
  PAW double counting   =       432.24804576     -433.03939254
  entropy T*S    EENTRO =         0.03584277
  eigenvalues    EBANDS =       -89.65587217
  atomic energy  EATOM  =       197.04175453
  Solvation  Ediel_sol  =         0.00000000
  ---------------------------------------------------
  free energy    TOTEN  =       -23.99540742 eV

  energy without entropy =      -24.03125019  energy(sigma->0) =      -24.00735501


--------------------------------------------------------------------------------------------------------




--------------------------------------- Iteration      1(  18)  ---------------------------------------


    POTLOK:  cpu time    1.4426: real time    1.4461
    SETDIJ:  cpu time    0.0065: real time    0.0065
    EDDIAG:  cpu time    0.4536: real time    0.4547
  RMM-DIIS:  cpu time    1.4934: real time    1.4969
    ORTHCH:  cpu time    0.0119: real time    0.0119
       DOS:  cpu time    0.0002: real time    0.0002
    CHARGE:  cpu time    0.1722: real time    0.1726
    MIXING:  cpu time    0.0486: real time    0.0487
    --------------------------------------------
      LOOP:  cpu time    3.6289: real time    3.6376

 eigenvalue-minimisations  :    60
 total energy-change (2. order) :-0.2314109E-03  (-0.1958907E-05)
 number of electron       8.0000002 magnetization 
 augmentation part        0.1855816 magnetization 

 Broyden mixing:
  rms(total) = 0.35652E-03    rms(broyden)= 0.35506E-03
  rms(prec ) = 0.57497E-03
  weight for this iteration     100.00

 eigenvalues of (default mixing * dielectric matrix)
  average eigenvalue GAMMA=   2.0888
  7.6761  4.6243  2.8959  2.6519  1.9272  1.5075  1.1478  1.1478  0.4483  0.9546
  0.7883  0.7883  0.5970

 Free energy of the ion-electron system (eV)
  ---------------------------------------------------
  alpha Z        PSCENC =         0.24747450
  Ewald energy   TEWEN  =       129.13488378
  -Hartree energ DENC   =      -284.78220008
  -exchange      EXHF   =         0.00000000
  -V(xc)+E(xc)   XCENC  =        24.80251100
  PAW double counting   =       431.83687452     -432.62830624
  entropy T*S    EENTRO =         0.03585788
  eigenvalues    EBANDS =       -89.68448872
  atomic energy  EATOM  =       197.04175453
  Solvation  Ediel_sol  =         0.00000000
  ---------------------------------------------------
  free energy    TOTEN  =       -23.99563883 eV

  energy without entropy =      -24.03149671  energy(sigma->0) =      -24.00759146


--------------------------------------------------------------------------------------------------------




--------------------------------------- Iteration      1(  19)  ---------------------------------------


    POTLOK:  cpu time    1.4788: real time    1.4823
    SETDIJ:  cpu time    0.0065: real time    0.0065
    EDDIAG:  cpu time    0.4464: real time    0.4475
  RMM-DIIS:  cpu time    1.4708: real time    1.4743
    ORTHCH:  cpu time    0.0118: real time    0.0118
       DOS:  cpu time    0.0002: real time    0.0002
    CHARGE:  cpu time    0.1777: real time    0.1781
    MIXING:  cpu time    0.0516: real time    0.0517
    --------------------------------------------
      LOOP:  cpu time    3.6437: real time    3.6523

 eigenvalue-minimisations  :    60
 total energy-change (2. order) :-0.1086343E-03  (-0.6817799E-06)
 number of electron       8.0000002 magnetization 
 augmentation part        0.1855896 magnetization 

 Broyden mixing:
  rms(total) = 0.38614E-03    rms(broyden)= 0.38537E-03
  rms(prec ) = 0.51330E-03
  weight for this iteration     100.00

 eigenvalues of (default mixing * dielectric matrix)
  average eigenvalue GAMMA=   2.1434
  8.0807  5.1621  3.3458  2.5033  2.3999  1.2593  1.2593  1.2653  1.1270  0.9812
  0.7888  0.7888  0.4483  0.5975

 Free energy of the ion-electron system (eV)
  ---------------------------------------------------
  alpha Z        PSCENC =         0.24747450
  Ewald energy   TEWEN  =       129.13488378
  -Hartree energ DENC   =      -284.78032866
  -exchange      EXHF   =         0.00000000
  -V(xc)+E(xc)   XCENC  =        24.80235323
  PAW double counting   =       431.71113754     -432.50250664
  entropy T*S    EENTRO =         0.03586976
  eigenvalues    EBANDS =       -89.68638551
  atomic energy  EATOM  =       197.04175453
  Solvation  Ediel_sol  =         0.00000000
  ---------------------------------------------------
  free energy    TOTEN  =       -23.99574747 eV

  energy without entropy =      -24.03161723  energy(sigma->0) =      -24.00770406


--------------------------------------------------------------------------------------------------------




--------------------------------------- Iteration      1(  20)  ---------------------------------------


    POTLOK:  cpu time    1.5112: real time    1.5147
    SETDIJ:  cpu time    0.0066: real time    0.0066
    EDDIAG:  cpu time    0.4563: real time    0.4574
  RMM-DIIS:  cpu time    1.1816: real time    1.1844
    ORTHCH:  cpu time    0.0117: real time    0.0117
       DOS:  cpu time    0.0002: real time    0.0002
    CHARGE:  cpu time    0.1735: real time    0.1739
    MIXING:  cpu time    0.0523: real time    0.0525
    --------------------------------------------
      LOOP:  cpu time    3.3935: real time    3.4015

 eigenvalue-minimisations  :    48
 total energy-change (2. order) :-0.1592108E-04  (-0.8721193E-07)
 number of electron       8.0000002 magnetization 
 augmentation part        0.1855878 magnetization 

 Broyden mixing:
  rms(total) = 0.15542E-03    rms(broyden)= 0.15531E-03
  rms(prec ) = 0.20469E-03
  weight for this iteration     100.00

 eigenvalues of (default mixing * dielectric matrix)
  average eigenvalue GAMMA=   2.2035
  8.3582  5.2609  3.7814  2.6387  2.3345  2.3345  0.4483  1.4036  1.1817  1.1817
  0.7888  0.7888  0.9772  0.9772  0.5978

 Free energy of the ion-electron system (eV)
  ---------------------------------------------------
  alpha Z        PSCENC =         0.24747450
  Ewald energy   TEWEN  =       129.13488378
  -Hartree energ DENC   =      -284.78967079
  -exchange      EXHF   =         0.00000000
  -V(xc)+E(xc)   XCENC  =        24.80308491
  PAW double counting   =       431.83010312     -432.62149527
  entropy T*S    EENTRO =         0.03586316
  eigenvalues    EBANDS =       -89.67776133
  atomic energy  EATOM  =       197.04175453
  Solvation  Ediel_sol  =         0.00000000
  ---------------------------------------------------
  free energy    TOTEN  =       -23.99576339 eV

  energy without entropy =      -24.03162655  energy(sigma->0) =      -24.00771778


--------------------------------------------------------------------------------------------------------




--------------------------------------- Iteration      1(  21)  ---------------------------------------


    POTLOK:  cpu time    1.5797: real time    1.5835
    SETDIJ:  cpu time    0.0065: real time    0.0065
    EDDIAG:  cpu time    0.4406: real time    0.4417
  RMM-DIIS:  cpu time    1.1500: real time    1.1527
    ORTHCH:  cpu time    0.0117: real time    0.0118
       DOS:  cpu time    0.0002: real time    0.0002
    CHARGE:  cpu time    0.1754: real time    0.1758
    MIXING:  cpu time    0.0508: real time    0.0509
    --------------------------------------------
      LOOP:  cpu time    3.4150: real time    3.4230

 eigenvalue-minimisations  :    48
 total energy-change (2. order) :-0.6327026E-05  (-0.7124227E-07)
 number of electron       8.0000002 magnetization 
 augmentation part        0.1855848 magnetization 

 Broyden mixing:
  rms(total) = 0.14427E-03    rms(broyden)= 0.14385E-03
  rms(prec ) = 0.18973E-03
  weight for this iteration     100.00

 eigenvalues of (default mixing * dielectric matrix)
  average eigenvalue GAMMA=   2.1803
  8.4206  5.3399  3.9562  2.5336  2.5336  2.3846  0.4483  1.4102  1.4102  0.5978
  0.7882  0.7882  1.1399  1.1399  1.0540  0.9398

 Free energy of the ion-electron system (eV)
  ---------------------------------------------------
  alpha Z        PSCENC =         0.24747450
  Ewald energy   TEWEN  =       129.13488378
  -Hartree energ DENC   =      -284.79268538
  -exchange      EXHF   =         0.00000000
  -V(xc)+E(xc)   XCENC  =        24.80308049
  PAW double counting   =       431.80648769     -432.59791756
  entropy T*S    EENTRO =         0.03585826
  eigenvalues    EBANDS =       -89.67470603
  atomic energy  EATOM  =       197.04175453
  Solvation  Ediel_sol  =         0.00000000
  ---------------------------------------------------
  free energy    TOTEN  =       -23.99576972 eV

  energy without entropy =      -24.03162797  energy(sigma->0) =      -24.00772247


--------------------------------------------------------------------------------------------------------




--------------------------------------- Iteration      1(  22)  ---------------------------------------


    POTLOK:  cpu time    1.6077: real time    1.6115
    SETDIJ:  cpu time    0.0065: real time    0.0065
    EDDIAG:  cpu time    0.4389: real time    0.4399
  RMM-DIIS:  cpu time    1.0525: real time    1.0550
    ORTHCH:  cpu time    0.0113: real time    0.0113
       DOS:  cpu time    0.0002: real time    0.0002
    --------------------------------------------
      LOOP:  cpu time    3.1170: real time    3.1244

 eigenvalue-minimisations  :    44
 total energy-change (2. order) :-0.9491602E-06  (-0.7491219E-08)
 number of electron       8.0000002 magnetization 
 augmentation part        0.1855848 magnetization 

 Free energy of the ion-electron system (eV)
  ---------------------------------------------------
  alpha Z        PSCENC =         0.24747450
  Ewald energy   TEWEN  =       129.13488378
  -Hartree energ DENC   =      -284.79074301
  -exchange      EXHF   =         0.00000000
  -V(xc)+E(xc)   XCENC  =        24.80299543
  PAW double counting   =       431.81321613     -432.60462141
  entropy T*S    EENTRO =         0.03586096
  eigenvalues    EBANDS =       -89.67659159
  atomic energy  EATOM  =       197.04175453
  Solvation  Ediel_sol  =         0.00000000
  ---------------------------------------------------
  free energy    TOTEN  =       -23.99577067 eV

  energy without entropy =      -24.03163162  energy(sigma->0) =      -24.00772432


--------------------------------------------------------------------------------------------------------




 average (electrostatic) potential at core
  the test charge radii are     0.5201  0.6991
  (the norm of the test charge is              1.0000)
       1 -41.5697       2 -41.4891       3 -41.6214       4 -41.4274       5 -57.9229



 E-fermi :  -9.1280     XC(G=0):  -0.7127     alpha+bet : -0.2152


 k-point     1 :       0.2500    0.2500    0.2500
  band No.  band energies     occupation 
      1     -16.9360      2.00000
      2      -9.3292      2.05146
      3      -9.2906      1.98649
      4      -9.2813      1.96185
      5      -0.3069      0.00000
      6       0.5774      0.00000
      7       0.6785      0.00000
      8       0.7065      0.00000

 k-point     2 :      -0.2500    0.2500    0.2500
  band No.  band energies     occupation 
      1     -16.9361      2.00000
      2      -9.3292      2.05144
      3      -9.2906      1.98647
      4      -9.2815      1.96255
      5      -0.3081      0.00000
      6       0.5696      0.00000
      7       0.6757      0.00000
      8       0.7204      0.00000

 k-point     3 :       0.2500   -0.2500    0.2500
  band No.  band energies     occupation 
      1     -16.9361      2.00000
      2      -9.3292      2.05147
      3      -9.2906      1.98662
      4      -9.2813      1.96196
      5      -0.3101      0.00000
      6       0.5758      0.00000
      7       0.6826      0.00000
      8       0.7226      0.00000

 k-point     4 :      -0.2500   -0.2500    0.2500
  band No.  band energies     occupation 
      1     -16.9361      2.00000
      2      -9.3291      2.05140
      3      -9.2905      1.98630
      4      -9.2813      1.96200
      5      -0.3056      0.00000
      6       0.5727      0.00000
      7       0.6747      0.00000
      8       0.7052      0.00000


--------------------------------------------------------------------------------------------------------


 soft charge-density along one line, spin component           1
         0         1         2         3         4         5         6         7         8         9
 total charge-density along one line

 pseudopotential strength for first ion, spin component:           1
 -2.343  -4.037  -0.001  -0.001   0.001
 -4.037  -6.870  -0.003  -0.004   0.002
 -0.001  -0.003  -0.337   0.002  -0.001
 -0.001  -0.004   0.002  -0.335  -0.001
  0.001   0.002  -0.001  -0.001  -0.338
 total augmentation occupancy for first ion, spin component:           1
  3.954  -0.804   0.223   0.355  -0.153
 -0.804   0.176  -0.047  -0.074   0.032
  0.223  -0.047   0.018   0.017  -0.007
  0.355  -0.074   0.017   0.036  -0.012
 -0.153   0.032  -0.007  -0.012   0.014


------------------------ aborting loop because EDIFF is reached ----------------------------------------


    CHARGE:  cpu time    0.1718: real time    0.1723
    FORLOC:  cpu time    0.1099: real time    0.1102
    FORNL :  cpu time    0.5872: real time    0.5885
    STRESS:  cpu time    1.8318: real time    1.8362
    FORCOR:  cpu time    1.6551: real time    1.6590
    FORHAR:  cpu time    0.5583: real time    0.5596
    MIXING:  cpu time    0.0549: real time    0.0551
    OFIELD:  cpu time    0.0000: real time    0.0000

  FORCE on cell =-STRESS in cart. coord.  units (eV):
  Direction    XX          YY          ZZ          XY          YZ          ZX
  --------------------------------------------------------------------------------------
  Alpha Z     0.24747     0.24747     0.24747
  Ewald      43.83000    44.32655    40.97830     0.20621    -0.07533     0.86479
  Hartree    95.32795    96.24575    93.21537    -0.19061    -0.07393     0.52901
  E(xc)     -27.27505   -27.28574   -27.27025    -0.00190    -0.00133     0.00534
  Local    -197.86396  -199.06622  -193.08543    -0.02471     0.16684    -1.56177
  n-local   -15.92064   -16.04233   -15.74638    -0.11314    -0.23286    -0.37486
  augment     0.11318     0.10956     0.11515    -0.00059     0.00093     0.00172
  Kinetic   101.78881   101.78552   101.09465     0.71693     0.17530     0.29893
  Fock        0.00000     0.00000     0.00000     0.00000     0.00000     0.00000
  -------------------------------------------------------------------------------------
  Total       0.24777     0.32056    -0.45112     0.59218    -0.04039    -0.23684
  in kB       0.40552     0.52466    -0.73837     0.96923    -0.06611    -0.38764
  external pressure =        0.06 kB  Pullay stress =        0.00 kB

  kinetic pressure (ideal gas correction) =      0.03 kB
  total pressure  =      0.09 kB
  Total+kin.     0.430       0.535      -0.688       0.975      -0.059      -0.393

 VOLUME and BASIS-vectors are now :
 -----------------------------------------------------------------------------
  energy-cutoff  :      400.00
  volume of cell :      978.89
      direct lattice vectors                 reciprocal lattice vectors
     9.913971002  0.000000000  0.000000000     0.100867755  0.001648435 -0.000857498
    -0.159877705  9.782919694  0.000000000    -0.000000000  0.102218973  0.000209883
     0.086141042 -0.020723550 10.092961319     0.000000000 -0.000000000  0.099078949

  length of vectors
     9.913971002  9.784226010 10.093350184     0.100884868  0.102219188  0.099078949


 FORCES acting on ions
    electron-ion (+dipol)            ewald-force                    non-local-force                 convergence-correction
 -----------------------------------------------------------------------------------------------
   -.171E+02 0.284E+02 0.410E+02   0.188E+02 -.313E+02 -.451E+02   -.174E+01 0.313E+01 0.404E+01   -.578E-04 0.973E-04 0.110E-03
   0.528E+02 -.616E+01 0.356E+01   -.586E+02 0.662E+01 -.404E+01   0.615E+01 -.187E+00 0.778E+00   0.167E-03 -.104E-04 -.805E-05
   -.238E+02 -.486E+02 0.144E+01   0.269E+02 0.548E+02 -.152E+01   -.276E+01 -.485E+01 0.294E+00   -.516E-04 -.136E-03 0.315E-04
   -.126E+02 0.240E+02 -.450E+02   0.138E+02 -.263E+02 0.493E+02   -.116E+01 0.239E+01 -.445E+01   -.114E-04 0.113E-03 -.128E-03
   0.623E+00 0.339E+01 -.102E+01   -.840E+00 -.380E+01 0.134E+01   -.906E+00 0.379E+00 -.396E+00   0.209E-03 0.179E-03 0.324E-04
 -----------------------------------------------------------------------------------------------
   -.870E-01 0.947E+00 -.961E-01   0.178E-14 0.711E-14 0.142E-13   -.412E+00 0.863E+00 0.272E+00   0.255E-03 0.243E-03 0.379E-04


 POSITION                                       TOTAL-FORCE (eV/Angst)
 -----------------------------------------------------------------------------------
      5.30520      3.97092      3.63842        -0.114159      0.184876     -0.114412
      3.86940      4.68725      4.41928         0.333997      0.276340      0.301931
      5.41981      5.52264      4.46808         0.341152      1.281684      0.211572
      5.21613      4.06026      5.44411         0.063745      0.094603     -0.140392
      4.94852      4.56312      4.49575        -1.123107     -0.027231     -0.082773
 -----------------------------------------------------------------------------------
    total drift:                               -0.498372      1.810271      0.175926


--------------------------------------------------------------------------------------------------------



  FREE ENERGIE OF THE ION-ELECTRON SYSTEM (eV)
  ---------------------------------------------------
  free  energy   TOTEN  =       -23.99577067 eV

  energy  without entropy=      -24.03163162  energy(sigma->0) =      -24.00772432



--------------------------------------------------------------------------------------------------------


    POTLOK:  cpu time    1.5961: real time    1.5999


--------------------------------------------------------------------------------------------------------


           RANDOM_SEED =         578496001                0                0
           RANDOM_SEED =         578496001               30                0
   IONSTEP:  cpu time    0.0016: real time    0.0017

  ENERGY OF THE ELECTRON-ION-THERMOSTAT SYSTEM (eV)
  ---------------------------------------------------
% ion-electron   TOTEN  =       -23.995771  see above
  kinetic energy EKIN   =         0.025842
  kin. lattice  EKIN_LAT=         0.000000  (temperature   49.98 K)
  nose potential ES     =         0.000000
  nose kinetic   EPS    =         0.000000
  ---------------------------------------------------
  total energy   ETOTAL =       -23.969929 eV

  maximum distance moved by ions :      0.39E-02


 mean value of Nose-termostat <S>:     1.000 mean value of <T> :    49.980
 mean temperature <T/S>/<1/S>  :    49.980

    WAVPRE:  cpu time    0.4371: real time    0.4423
    FEWALD:  cpu time    0.0004: real time    0.0004
    ORTHCH:  cpu time    0.2017: real time    0.2022
     LOOP+:  cpu time   84.8744: real time   85.0820


--------------------------------------- Iteration      2(   1)  ---------------------------------------


    POTLOK:  cpu time    1.6219: real time    1.6259
    SETDIJ:  cpu time    0.0066: real time    0.0067
     EDDAV:  cpu time    1.8994: real time    1.9039
       DOS:  cpu time    0.0003: real time    0.0003
    CHARGE:  cpu time    0.1708: real time    0.1712
    MIXING:  cpu time    0.0422: real time    0.0423
    --------------------------------------------
      LOOP:  cpu time    3.7413: real time    3.7503

 eigenvalue-minimisations  :    64
 total energy-change (2. order) :-0.3827987E-01  (-0.1520325E+00)
 number of electron       7.9999999 magnetization 
 augmentation part        0.1848862 magnetization 

 Broyden mixing:
  rms(total) = 0.62801E-01    rms(broyden)= 0.62753E-01
  rms(prec ) = 0.72630E-01
  weight for this iteration     100.00

 Free energy of the ion-electron system (eV)
  ---------------------------------------------------
  alpha Z        PSCENC =         0.24747450
  Ewald energy   TEWEN  =       128.05110109
  -Hartree energ DENC   =      -284.14406809
  -exchange      EXHF   =         0.00000000
  -V(xc)+E(xc)   XCENC  =        24.76989259
  PAW double counting   =       431.82072696     -432.61211811
  entropy T*S    EENTRO =         0.01603708
  eigenvalues    EBANDS =       -89.22485014
  atomic energy  EATOM  =       197.04175453
  Solvation  Ediel_sol  =         0.00000000
  ---------------------------------------------------
  free energy    TOTEN  =       -24.03404959 eV

  energy without entropy =      -24.05008667  energy(sigma->0) =      -24.03939528


--------------------------------------------------------------------------------------------------------




--------------------------------------- Iteration      2(   2)  ---------------------------------------


    POTLOK:  cpu time    1.5327: real time    1.5363
    SETDIJ:  cpu time    0.0065: real time    0.0065
    EDDIAG:  cpu time    0.4458: real time    0.4468
  RMM-DIIS:  cpu time    1.4689: real time    1.4723
    ORTHCH:  cpu time    0.0116: real time    0.0117
       DOS:  cpu time    0.0002: real time    0.0002
    CHARGE:  cpu time    0.1771: real time    0.1775
    MIXING:  cpu time    0.0550: real time    0.0552
    --------------------------------------------
      LOOP:  cpu time    3.6979: real time    3.7066

 eigenvalue-minimisations  :    64
 total energy-change (2. order) :-0.7253709E-03  (-0.4383624E-02)
 number of electron       7.9999999 magnetization 
 augmentation part        0.1855848 magnetization 

 Broyden mixing:
  rms(total) = 0.60199E-01    rms(broyden)= 0.60180E-01
  rms(prec ) = 0.71777E-01
  weight for this iteration     100.00

 eigenvalues of (default mixing * dielectric matrix)
  average eigenvalue GAMMA=   2.1830
  8.4481  5.4577  4.2138  3.2262  2.4576  2.2226  1.9397  1.7600  1.5234  0.4483
  1.1989  1.1989  1.0273  1.0273  0.9693  0.7883  0.7883  0.5978

 Free energy of the ion-electron system (eV)
  ---------------------------------------------------
  alpha Z        PSCENC =         0.24747450
  Ewald energy   TEWEN  =       128.05110109
  -Hartree energ DENC   =      -282.64352316
  -exchange      EXHF   =         0.00000000
  -V(xc)+E(xc)   XCENC  =        24.64786248
  PAW double counting   =       411.53985595     -412.32971788
  entropy T*S    EENTRO =         0.02038839
  eigenvalues    EBANDS =       -90.60997085
  atomic energy  EATOM  =       197.04175453
  Solvation  Ediel_sol  =         0.00000000
  ---------------------------------------------------
  free energy    TOTEN  =       -24.03477496 eV

  energy without entropy =      -24.05516335  energy(sigma->0) =      -24.04157109


--------------------------------------------------------------------------------------------------------




--------------------------------------- Iteration      2(   3)  ---------------------------------------


    POTLOK:  cpu time    1.4811: real time    1.4846
    SETDIJ:  cpu time    0.0065: real time    0.0065
    EDDIAG:  cpu time    0.4509: real time    0.4520
  RMM-DIIS:  cpu time    1.5401: real time    1.5440
    ORTHCH:  cpu time    0.0117: real time    0.0118
       DOS:  cpu time    0.0002: real time    0.0002
    CHARGE:  cpu time    0.1870: real time    0.1875
    MIXING:  cpu time    0.0579: real time    0.0581
    --------------------------------------------
      LOOP:  cpu time    3.7355: real time    3.7445

 eigenvalue-minimisations  :    64
 total energy-change (2. order) : 0.9469470E-02  (-0.1746144E-02)
 number of electron       7.9999999 magnetization 
 augmentation part        0.1857613 magnetization 

 Broyden mixing:
  rms(total) = 0.35311E-01    rms(broyden)= 0.35287E-01
  rms(prec ) = 0.46357E-01
  weight for this iteration     100.00

 eigenvalues of (default mixing * dielectric matrix)
  average eigenvalue GAMMA=   2.1415
  8.4483  5.4576  4.2165  3.2304  2.4573  2.3351  2.2095  1.7754  1.5199  0.4483
  1.2028  1.2028  0.5978  0.7883  0.7883  1.0289  1.0289  0.9760  0.9760

 Free energy of the ion-electron system (eV)
  ---------------------------------------------------
  alpha Z        PSCENC =         0.24747450
  Ewald energy   TEWEN  =       128.05110109
  -Hartree energ DENC   =      -283.25797388
  -exchange      EXHF   =         0.00000000
  -V(xc)+E(xc)   XCENC  =        24.71855420
  PAW double counting   =       424.62468109     -425.41021684
  entropy T*S    EENTRO =         0.02704699
  eigenvalues    EBANDS =       -90.06772717
  atomic energy  EATOM  =       197.04175453
  Solvation  Ediel_sol  =         0.00000000
  ---------------------------------------------------
  free energy    TOTEN  =       -24.02530549 eV

  energy without entropy =      -24.05235248  energy(sigma->0) =      -24.03432115


--------------------------------------------------------------------------------------------------------




--------------------------------------- Iteration      2(   4)  ---------------------------------------


    POTLOK:  cpu time    1.4949: real time    1.4984
    SETDIJ:  cpu time    0.0064: real time    0.0065
    EDDIAG:  cpu time    0.4564: real time    0.4575
  RMM-DIIS:  cpu time    1.4566: real time    1.4600
    ORTHCH:  cpu time    0.0117: real time    0.0118
       DOS:  cpu time    0.0002: real time    0.0002
    CHARGE:  cpu time    0.1829: real time    0.1833
    MIXING:  cpu time    0.0673: real time    0.0674
    --------------------------------------------
      LOOP:  cpu time    3.6763: real time    3.6850

 eigenvalue-minimisations  :    64
 total energy-change (2. order) : 0.1883014E-02  (-0.3485334E-03)
 number of electron       7.9999999 magnetization 
 augmentation part        0.1856022 magnetization 

 Broyden mixing:
  rms(total) = 0.17990E-01    rms(broyden)= 0.17966E-01
  rms(prec ) = 0.23721E-01
  weight for this iteration     100.00

 eigenvalues of (default mixing * dielectric matrix)
  average eigenvalue GAMMA=   2.1150
  8.4484  5.4577  4.2168  3.2377  2.4783  2.4783  2.2177  1.8743  0.4483  0.5978
  0.7883  0.7883  1.3680  1.3680  1.1968  1.1968  1.0536  1.0536  0.9625  1.0691

 Free energy of the ion-electron system (eV)
  ---------------------------------------------------
  alpha Z        PSCENC =         0.24747450
[...]
  rms(total) = 0.22896E-03    rms(broyden)= 0.22893E-03
  rms(prec ) = 0.31167E-03
  weight for this iteration     100.00

 eigenvalues of (default mixing * dielectric matrix)
  average eigenvalue GAMMA=   2.4038
  5.7144  5.5595  4.0210  4.0210  0.5721  0.6924  3.6834  0.9227  0.9227  1.0256
  1.0256  1.7809  1.7809  3.4743  3.4743  1.1939  1.4986  1.4986  1.4652  3.1965
  3.1965  1.6792  1.9508  1.9508  1.8330  2.0688  2.0688  2.7344  2.7344  2.3340
  2.3340  2.4504  2.4504  2.7613  2.7613  2.6036  2.6036  2.7335  2.7335  2.2612
  2.6331  2.3218  2.5273  2.4620  2.4620

 Free energy of the ion-electron system (eV)
  ---------------------------------------------------
  alpha Z        PSCENC =         0.24747450
  Ewald energy   TEWEN  =       126.72920655
  -Hartree energ DENC   =      -282.61237808
  -exchange      EXHF   =         0.00000000
  -V(xc)+E(xc)   XCENC  =        24.68542365
  PAW double counting   =       404.81883317     -405.60252763
  entropy T*S    EENTRO =         0.01164549
  eigenvalues    EBANDS =       -89.30430089
  atomic energy  EATOM  =       197.04175453
  Solvation  Ediel_sol  =         0.00000000
  ---------------------------------------------------
  free energy    TOTEN  =       -23.98486871 eV

  energy without entropy =      -23.99651419  energy(sigma->0) =      -23.98875054


--------------------------------------------------------------------------------------------------------




--------------------------------------- Iteration     10(  12)  ---------------------------------------


    POTLOK:  cpu time    1.8802: real time    1.8848
    SETDIJ:  cpu time    0.0115: real time    0.0115
    EDDIAG:  cpu time    0.5411: real time    0.5424
  RMM-DIIS:  cpu time    1.3750: real time    1.3783
    ORTHCH:  cpu time    0.0113: real time    0.0113
       DOS:  cpu time    0.0002: real time    0.0002
    CHARGE:  cpu time    0.2142: real time    0.2147
    MIXING:  cpu time    0.1734: real time    0.1738
    --------------------------------------------
      LOOP:  cpu time    4.2068: real time    4.2169

 eigenvalue-minimisations  :    48
 total energy-change (2. order) :-0.5027688E-05  (-0.8060914E-07)
 number of electron       8.0000001 magnetization 
 augmentation part        0.1827618 magnetization 

 Broyden mixing:
  rms(total) = 0.15855E-03    rms(broyden)= 0.15853E-03
  rms(prec ) = 0.21247E-03
  weight for this iteration     100.00

 eigenvalues of (default mixing * dielectric matrix)
  average eigenvalue GAMMA=   2.4066
  5.8081  5.5600  4.0197  4.0197  0.5382  0.5716  3.6182  3.6182  3.6056  0.9285
  0.9285  1.1048  1.1048  1.0849  1.0849  1.6230  1.6230  1.8419  1.8419  3.1569
  3.1569  1.6923  1.6923  1.6657  1.7506  2.9660  2.9660  2.1533  2.1533  2.6977
  2.6977  2.4490  2.4490  2.7432  2.7432  2.2293  2.2293  2.4634  2.4634  2.4340
  2.4340  2.3462  2.7230  2.6411  2.6040  2.4791

 Free energy of the ion-electron system (eV)
  ---------------------------------------------------
  alpha Z        PSCENC =         0.24747450
  Ewald energy   TEWEN  =       126.72920655
  -Hartree energ DENC   =      -282.61044952
  -exchange      EXHF   =         0.00000000
  -V(xc)+E(xc)   XCENC  =        24.68534677
  PAW double counting   =       404.83360268     -405.61728033
  entropy T*S    EENTRO =         0.01164488
  eigenvalues    EBANDS =       -89.30617380
  atomic energy  EATOM  =       197.04175453
  Solvation  Ediel_sol  =         0.00000000
  ---------------------------------------------------
  free energy    TOTEN  =       -23.98487374 eV

  energy without entropy =      -23.99651862  energy(sigma->0) =      -23.98875536


--------------------------------------------------------------------------------------------------------




--------------------------------------- Iteration     10(  13)  ---------------------------------------


    POTLOK:  cpu time    1.8875: real time    1.9336
    SETDIJ:  cpu time    0.0067: real time    0.0067
    EDDIAG:  cpu time    0.4529: real time    0.4540
  RMM-DIIS:  cpu time    1.1984: real time    1.2012
    ORTHCH:  cpu time    0.0114: real time    0.0114
       DOS:  cpu time    0.0002: real time    0.0002
    CHARGE:  cpu time    0.1593: real time    0.1597
    MIXING:  cpu time    0.1897: real time    0.1902
    --------------------------------------------
      LOOP:  cpu time    3.9061: real time    3.9570

 eigenvalue-minimisations  :    48
 total energy-change (2. order) :-0.1796985E-05  (-0.5638511E-07)
 number of electron       8.0000001 magnetization 
 augmentation part        0.1827596 magnetization 

 Broyden mixing:
  rms(total) = 0.83678E-04    rms(broyden)= 0.83664E-04
  rms(prec ) = 0.11379E-03
  weight for this iteration     100.00

 eigenvalues of (default mixing * dielectric matrix)
  average eigenvalue GAMMA=   2.3983
  5.8290  5.5829  0.5693  4.0062  4.0062  3.7757  3.7757  0.6793  0.8861  0.8861
  3.6303  0.9568  0.9568  1.0784  1.0784  1.9590  1.9590  1.3414  1.3414  1.7628
  1.7628  1.6829  1.6829  3.1329  3.1329  3.1796  1.9685  1.9685  2.6977  2.6977
  2.8572  2.8572  2.4100  2.4100  2.3878  2.3878  2.2200  2.2200  2.2613  2.7036
  2.7036  2.7011  2.6383  2.5067  2.5067  2.4629  2.5171

 Free energy of the ion-electron system (eV)
  ---------------------------------------------------
  alpha Z        PSCENC =         0.24747450
  Ewald energy   TEWEN  =       126.72920655
  -Hartree energ DENC   =      -282.61454391
  -exchange      EXHF   =         0.00000000
  -V(xc)+E(xc)   XCENC  =        24.68551569
  PAW double counting   =       404.81788124     -405.60160602
  entropy T*S    EENTRO =         0.01164426
  eigenvalues    EBANDS =       -89.30220238
  atomic energy  EATOM  =       197.04175453
  Solvation  Ediel_sol  =         0.00000000
  ---------------------------------------------------
  free energy    TOTEN  =       -23.98487553 eV

  energy without entropy =      -23.99651979  energy(sigma->0) =      -23.98875695


--------------------------------------------------------------------------------------------------------




--------------------------------------- Iteration     10(  14)  ---------------------------------------


    POTLOK:  cpu time    2.0100: real time    2.0158
    SETDIJ:  cpu time    0.0121: real time    0.0121
    EDDIAG:  cpu time    0.5249: real time    0.5261
  RMM-DIIS:  cpu time    1.4306: real time    1.4349
    ORTHCH:  cpu time    0.0175: real time    0.0175
       DOS:  cpu time    0.0002: real time    0.0002
    CHARGE:  cpu time    0.2008: real time    0.2013
    MIXING:  cpu time    0.1858: real time    0.1862
    --------------------------------------------
      LOOP:  cpu time    4.3818: real time    4.3941

 eigenvalue-minimisations  :    48
 total energy-change (2. order) :-0.1027225E-05  (-0.1616217E-07)
 number of electron       8.0000001 magnetization 
 augmentation part        0.1827599 magnetization 

 Broyden mixing:
  rms(total) = 0.41883E-04    rms(broyden)= 0.41874E-04
  rms(prec ) = 0.54466E-04
  weight for this iteration     100.00

 eigenvalues of (default mixing * dielectric matrix)
  average eigenvalue GAMMA=   2.4073
  5.9324  5.7634  4.3568  3.9373  3.9373  4.0013  0.5738  0.6783  0.6783  3.6189
  0.8896  0.9351  1.1001  1.1001  1.0820  1.0820  1.3618  1.3618  2.1434  2.1434
  3.1210  3.1210  3.1057  3.1057  1.7416  1.7416  1.6743  1.7498  1.9912  1.9912
  2.3365  2.3365  2.8681  2.7243  2.7243  2.2315  2.2315  2.6894  2.6894  2.7203
  2.3569  2.4786  2.4786  2.4782  2.4782  2.4670  2.6398  2.5987

 Free energy of the ion-electron system (eV)
  ---------------------------------------------------
  alpha Z        PSCENC =         0.24747450
  Ewald energy   TEWEN  =       126.72920655
  -Hartree energ DENC   =      -282.61293319
  -exchange      EXHF   =         0.00000000
  -V(xc)+E(xc)   XCENC  =        24.68543519
  PAW double counting   =       404.81357247     -405.59728602
  entropy T*S    EENTRO =         0.01164412
  eigenvalues    EBANDS =       -89.30374472
  atomic energy  EATOM  =       197.04175453
  Solvation  Ediel_sol  =         0.00000000
  ---------------------------------------------------
  free energy    TOTEN  =       -23.98487656 eV

  energy without entropy =      -23.99652068  energy(sigma->0) =      -23.98875793


--------------------------------------------------------------------------------------------------------




--------------------------------------- Iteration     10(  15)  ---------------------------------------


    POTLOK:  cpu time    2.0155: real time    2.0392
    SETDIJ:  cpu time    0.0065: real time    0.0065
    EDDIAG:  cpu time    0.5493: real time    0.5516
  RMM-DIIS:  cpu time    1.3549: real time    1.4100
    ORTHCH:  cpu time    0.0115: real time    0.0115
       DOS:  cpu time    0.0002: real time    0.0002
    --------------------------------------------
      LOOP:  cpu time    3.9380: real time    4.0190

 eigenvalue-minimisations  :    48
 total energy-change (2. order) :-0.2999484E-06  (-0.1692423E-07)
 number of electron       8.0000001 magnetization 
 augmentation part        0.1827599 magnetization 

 Free energy of the ion-electron system (eV)
  ---------------------------------------------------
  alpha Z        PSCENC =         0.24747450
  Ewald energy   TEWEN  =       126.72920655
  -Hartree energ DENC   =      -282.61112209
  -exchange      EXHF   =         0.00000000
  -V(xc)+E(xc)   XCENC  =        24.68536351
  PAW double counting   =       404.82293802     -405.60662944
  entropy T*S    EENTRO =         0.01164425
  eigenvalues    EBANDS =       -89.30550670
  atomic energy  EATOM  =       197.04175453
  Solvation  Ediel_sol  =         0.00000000
  ---------------------------------------------------
  free energy    TOTEN  =       -23.98487686 eV

  energy without entropy =      -23.99652111  energy(sigma->0) =      -23.98875828


--------------------------------------------------------------------------------------------------------




 average (electrostatic) potential at core
  the test charge radii are     0.5201  0.6991
  (the norm of the test charge is              1.0000)
       1 -41.7363       2 -41.4813       3 -41.5129       4 -41.1699       5 -57.9935



 E-fermi :  -8.7002     XC(G=0):  -0.7159     alpha+bet : -0.2152


 k-point     1 :       0.2500    0.2500    0.2500
  band No.  band energies     occupation 
      1     -16.8752      2.00000
      2      -9.5867      2.00000
      3      -9.3222      2.00010
      4      -8.8685      1.99993
      5      -0.3242      0.00000
      6       0.5702      0.00000
      7       0.6696      0.00000
      8       0.7074      0.00000

 k-point     2 :      -0.2500    0.2500    0.2500
  band No.  band energies     occupation 
      1     -16.8752      2.00000
      2      -9.5869      2.00000
      3      -9.3222      2.00010
      4      -8.8685      1.99986
      5      -0.3262      0.00000
      6       0.5708      0.00000
      7       0.6661      0.00000
      8       0.7193      0.00000

 k-point     3 :       0.2500   -0.2500    0.2500
  band No.  band energies     occupation 
      1     -16.8752      2.00000
      2      -9.5868      2.00000
      3      -9.3222      2.00010
      4      -8.8686      2.00008
      5      -0.3268      0.00000
      6       0.5630      0.00000
      7       0.6836      0.00000
      8       0.7167      0.00000

 k-point     4 :      -0.2500   -0.2500    0.2500
  band No.  band energies     occupation 
      1     -16.8752      2.00000
      2      -9.5867      2.00000
      3      -9.3222      2.00010
      4      -8.8685      1.99974
      5      -0.3228      0.00000
      6       0.5749      0.00000
      7       0.6648      0.00000
      8       0.6964      0.00000


--------------------------------------------------------------------------------------------------------


 soft charge-density along one line, spin component           1
         0         1         2         3         4         5         6         7         8         9
 total charge-density along one line

 pseudopotential strength for first ion, spin component:           1
 -2.343  -4.038  -0.001  -0.001   0.001
 -4.038  -6.874  -0.003  -0.005   0.002
 -0.001  -0.003  -0.336   0.002  -0.001
 -0.001  -0.005   0.002  -0.334  -0.002
  0.001   0.002  -0.001  -0.002  -0.336
 total augmentation occupancy for first ion, spin component:           1
  3.686  -0.671   0.272   0.347  -0.165
 -0.671   0.137  -0.049  -0.066   0.030
  0.272  -0.049   0.027   0.022  -0.010
  0.347  -0.066   0.022   0.037  -0.013
 -0.165   0.030  -0.010  -0.013   0.016


------------------------ aborting loop because EDIFF is reached ----------------------------------------


    CHARGE:  cpu time    0.2044: real time    0.2048
    FORLOC:  cpu time    0.1429: real time    0.1432
    FORNL :  cpu time    0.6994: real time    0.7011
    STRESS:  cpu time    2.2206: real time    2.2790
    FORCOR:  cpu time    1.9449: real time    1.9496
    FORHAR:  cpu time    0.7237: real time    0.7254
    MIXING:  cpu time    0.1735: real time    0.1740
    OFIELD:  cpu time    0.0000: real time    0.0000

  FORCE on cell =-STRESS in cart. coord.  units (eV):
  Direction    XX          YY          ZZ          XY          YZ          ZX
  --------------------------------------------------------------------------------------
  Alpha Z     0.24747     0.24747     0.24747
  Ewald      45.85493    45.96505    34.90919    -3.46649     4.89533     0.21644
  Hartree    95.31905    96.46902    90.82557    -1.18358     0.57877     0.55120
  E(xc)     -27.13199   -27.14222   -27.17360    -0.01874     0.01215     0.00830
  Local    -199.41923  -200.85470  -185.55405     4.11493    -4.07423    -1.04132
  n-local   -15.27788   -16.73306   -16.16057     0.08292    -0.10760     0.03585
  augment     0.11776     0.11734     0.12720     0.00369    -0.01191     0.00302
  Kinetic    99.78032   100.50557   102.13977     0.91430    -0.68760    -0.37436
  Fock        0.00000     0.00000     0.00000     0.00000     0.00000     0.00000
  -------------------------------------------------------------------------------------
  Total      -0.50957    -1.42553    -0.63902     0.44702     0.60490    -0.60088
  in kB      -0.83402    -2.33320    -1.04590     0.73165     0.99006    -0.98347
  external pressure =       -1.40 kB  Pullay stress =        0.00 kB

  kinetic pressure (ideal gas correction) =      0.08 kB
  total pressure  =     -1.33 kB
  Total+kin.    -0.677      -2.321      -0.981       0.745       0.981      -1.046

 VOLUME and BASIS-vectors are now :
 -----------------------------------------------------------------------------
  energy-cutoff  :      400.00
  volume of cell :      978.89
      direct lattice vectors                 reciprocal lattice vectors
     9.913971002  0.000000000  0.000000000     0.100867755  0.001648435 -0.000857498
    -0.159877705  9.782919694  0.000000000    -0.000000000  0.102218973  0.000209883
     0.086141042 -0.020723550 10.092961319     0.000000000 -0.000000000  0.099078949

  length of vectors
     9.913971002  9.784226010 10.093350184     0.100884868  0.102219188  0.099078949


 FORCES acting on ions
    electron-ion (+dipol)            ewald-force                    non-local-force                 convergence-correction
 -----------------------------------------------------------------------------------------------
   -.192E+02 0.292E+02 0.410E+02   0.214E+02 -.326E+02 -.463E+02   -.178E+01 0.377E+01 0.457E+01   0.327E-04 -.147E-03 -.247E-03
   0.517E+02 -.724E+01 0.195E+01   -.566E+02 0.781E+01 -.217E+01   0.584E+01 -.842E+00 0.566E+00   -.268E-03 -.208E-04 -.676E-04
   -.244E+02 -.466E+02 -.459E+01   0.270E+02 0.516E+02 0.487E+01   -.242E+01 -.427E+01 -.290E+00   0.141E-03 0.197E-03 0.309E-04
   -.130E+02 0.265E+02 -.418E+02   0.138E+02 -.285E+02 0.451E+02   -.145E+01 0.276E+01 -.429E+01   0.705E-04 -.120E-03 0.193E-03
   0.521E+01 -.164E+01 0.195E+01   -.567E+01 0.174E+01 -.153E+01   -.102E+00 0.335E+00 0.186E+01   -.226E-03 -.226E-03 -.431E-03
 -----------------------------------------------------------------------------------------------
   0.262E+00 0.207E+00 -.148E+01   0.355E-14 0.000E+00 0.000E+00   0.833E-01 0.176E+01 0.241E+01   -.250E-03 -.317E-03 -.522E-03


 POSITION                                       TOTAL-FORCE (eV/Angst)
 -----------------------------------------------------------------------------------
      5.33235      3.98112      3.67364         0.499998      0.327272     -0.726838
      3.84728      4.71802      4.44857         0.927914     -0.270196      0.342033
      5.45507      5.52839      4.58520         0.172110      0.714091     -0.004718
      5.23685      3.97858      5.40982        -0.689923      0.756675     -0.958420
      4.94344      4.56603      4.48348        -0.565112      0.437290      2.276841
 -----------------------------------------------------------------------------------
    total drift:                                0.344986      1.965133      0.928898


--------------------------------------------------------------------------------------------------------



  FREE ENERGIE OF THE ION-ELECTRON SYSTEM (eV)
  ---------------------------------------------------
  free  energy   TOTEN  =       -23.98487686 eV

  energy  without entropy=      -23.99652111  energy(sigma->0) =      -23.98875828

 d Force = 0.7471869E-02[-0.106E+00, 0.121E+00]  d Energy = 0.1019688E-01-0.273E-02
 d Force = 0.1083482E+01[ 0.101E+01, 0.116E+01]  d Ewald  = 0.1081907E+01 0.158E-02


--------------------------------------------------------------------------------------------------------


    POTLOK:  cpu time    2.0193: real time    2.0241


--------------------------------------------------------------------------------------------------------


           RANDOM_SEED =         578496001               30                0
   IONSTEP:  cpu time    0.0001: real time    0.0001

  ENERGY OF THE ELECTRON-ION-THERMOSTAT SYSTEM (eV)
  ---------------------------------------------------
% ion-electron   TOTEN  =       -23.984877  see above
  kinetic energy EKIN   =         0.038881
  kin. lattice  EKIN_LAT=         0.000000  (temperature   75.20 K)
  nose potential ES     =         0.008059
  nose kinetic   EPS    =         0.003793
  ---------------------------------------------------
  total energy   ETOTAL =       -23.934144 eV

  maximum distance moved by ions :      0.34E-02


 mean value of Nose-termostat <S>:     1.223 mean value of <T> :    75.199
 mean temperature <T/S>/<1/S>  :    75.199

    WAVPRE:  cpu time    0.5181: real time    0.5267
    FEWALD:  cpu time    0.0007: real time    0.0007
    ORTHCH:  cpu time    0.2732: real time    0.2739
 Prediction of Wavefunctions ALPHA= 0.192 BETA= 0.134
    POTLOK:  cpu time    2.0008: real time    2.0055
    EDDIAG:  cpu time    0.5140: real time    0.5153
     LOOP+:  cpu time   79.2430: real time   80.5434
    4ORBIT:  cpu time    0.0000: real time    0.0000

 total amount of memory used by VASP MPI-rank0   298669. kBytes
=======================================================================

   base      :      30000. kBytes
   nonlr-proj:        156. kBytes
   fftplans  :      86584. kBytes
   grid      :     154542. kBytes
   one-center:         15. kBytes
   wavefun   :      27372. kBytes

  
  
 General timing and accounting informations for this job:
 ========================================================
  
                  Total CPU time used (sec):      657.982
                            User time (sec):      645.031
                          System time (sec):       12.951
                         Elapsed time (sec):      662.175
  
                   Maximum memory used (kb):      463756.
                   Average memory used (kb):           0.
  
                          Minor page faults:      2074142
                          Major page faults:            0
                 Voluntary context switches:          401
