<?xml version="1.0" encoding="ISO-8859-1"?>
<modeling>
 <generator>
  <i name="program" type="string">vasp </i>
  <i name="version" type="string">5.4.4.18Apr17-6-g9f103f2a35  </i>
  <i name="subversion" type="string">(build Jul 12 2018 13:43:46) complex            parallel </i>
  <i name="platform" type="string">LinuxGNU </i>
  <i name="date" type="string">2019 06 22 </i>
  <i name="time" type="string">02:17:35 </i>
 </generator>
 <incar>
  <i type="int" name="ISTART">     0</i>
  <i type="string" name="PREC">a</i>
  <i type="string" name="ALGO">fast</i>
  <i type="int" name="MAXMIX">    50</i>
  <i type="int" name="ICHARG">     2</i>
  <i type="int" name="IBRION">     0</i>
  <i name="EDIFF">      0.00000100</i>
  <i type="int" name="NSW">    10</i>
  <i type="int" name="ISIF">     2</i>
  <i type="int" name="ISYM">     0</i>
  <i type="int" name="NBLOCK">     1</i>
  <i type="int" name="KBLOCK">   100</i>
  <i name="ENCUT">    400.00000000</i>
  <i name="POTIM">      2.00000000</i>
  <i name="TEBEG">     50.00000000</i>
  <i name="TEEND">     50.00000000</i>
  <i name="SMASS">      0.00000000</i>
  <i type="logical" name="LREAL"> T  </i>
  <i type="int" name="ISMEAR">     1</i>
  <i name="SIGMA">      0.20000000</i>
  <i name="KSPACING">      0.50000000</i>
  <i type="logical" name="KGAMMA"> F  </i>
  <i name="PSTRESS">      0.00000000</i>
  <i type="logical" name="LWAVE"> F  </i>
  <i type="logical" name="LCHARG"> F  </i>
  <v type="int" name="KPOINT_BSE">    -1     0     0     0</v>
 </incar>
 <structure name="primitive_cell" >
  <crystal>
   <varray name="basis" >
    <v>       9.91397100       0.00000000       0.00000000 </v>
    <v>      -0.15987770       9.78291969       0.00000000 </v>
    <v>       0.08614104      -0.02072355      10.09296132 </v>
   </varray>
   <i name="volume">    978.89191515 </i>
   <varray name="rec_basis" >
    <v>       0.10086776       0.00164843      -0.00085750 </v>
    <v>      -0.00000000       0.10221897       0.00020988 </v>
    <v>       0.00000000      -0.00000000       0.09907895 </v>
   </varray>
  </crystal>
  <varray name="positions" >
   <v>      -0.46145022       0.40666729       0.36049034 </v>
   <v>      -0.49718679       0.46738124       0.44543388 </v>
   <v>      -0.44804347      -0.43454395       0.44269245 </v>
   <v>       0.39423482       0.48005349       0.43785725 </v>
   <v>      -0.47183626       0.41617850      -0.46060376 </v>
  </varray>
 </structure>
 <varray name="primitive_index" >
  <v type="int" >        1 </v>
  <v type="int" >        5 </v>
  <v type="int" >        3 </v>
  <v type="int" >        2 </v>
  <v type="int" >        4 </v>
 </varray>
 <kpoints>
  <generation param="Monkhorst-Pack">
   <v type="int" name="divisions">       2        2        2 </v>
   <v name="usershift">      0.00000000       0.00000000       0.00000000 </v>
   <v name="genvec1">      0.50000000       0.00000000      -0.00000000 </v>
   <v name="genvec2">      0.00000000       0.50000000      -0.00000000 </v>
   <v name="genvec3">      0.00000000       0.00000000       0.50000000 </v>
   <v name="shift">      0.50000000       0.50000000       0.50000000 </v>
  </generation>
  <varray name="kpointlist" >
   <v>       0.25000000       0.25000000       0.25000000 </v>
   <v>      -0.25000000       0.25000000       0.25000000 </v>
   <v>       0.25000000      -0.25000000       0.25000000 </v>
   <v>      -0.25000000      -0.25000000       0.25000000 </v>
  </varray>
  <varray name="weights" >
   <v>       0.25000000 </v>
   <v>       0.25000000 </v>
   <v>       0.25000000 </v>
   <v>       0.25000000 </v>
  </varray>
 </kpoints>
 <parameters>
  <separator name="general" >
   <i type="string" name="SYSTEM">unknown system</i>
   <i type="logical" name="LCOMPAT"> F  </i>
  </separator>
  <separator name="electronic" >
   <i type="string" name="PREC">a</i>
   <i name="ENMAX">    400.00000000</i>
   <i name="ENAUG">    644.87300000</i>
   <i name="EDIFF">      0.00000100</i>
   <i type="int" name="IALGO">    68</i>
   <i type="int" name="IWAVPR">    12</i>
   <i type="int" name="NBANDS">     8</i>
   <i name="NELECT">      8.00000000</i>
   <i type="int" name="TURBO">     0</i>
   <i type="int" name="IRESTART">     0</i>
   <i type="int" name="NREBOOT">     0</i>
   <i type="int" name="NMIN">     0</i>
   <i name="EREF">      0.00000000</i>
   <separator name="electronic smearing" >
    <i type="int" name="ISMEAR">     1</i>
    <i name="SIGMA">      0.20000000</i>
    <i name="KSPACING">      0.50000000</i>
    <i type="logical" name="KGAMMA"> F  </i>
   </separator>
   <separator name="electronic projectors" >
    <i type="logical" name="LREAL"> T  </i>
    <v name="ROPT">      0.00000000      0.00000000</v>
    <i type="int" name="LMAXPAW">  -100</i>
    <i type="int" name="LMAXMIX">     2</i>
    <i type="logical" name="NLSPLINE"> F  </i>
   </separator>
   <separator name="electronic startup" >
    <i type="int" name="ISTART">     0</i>
    <i type="int" name="ICHARG">     2</i>
    <i type="int" name="INIWAV">     1</i>
   </separator>
   <separator name="electronic spin" >
    <i type="int" name="ISPIN">     1</i>
    <i type="logical" name="LNONCOLLINEAR"> F  </i>
    <v name="MAGMOM">      1.00000000      1.00000000      1.00000000      1.00000000      1.00000000</v>
    <i name="NUPDOWN">     -1.00000000</i>
    <i type="logical" name="LSORBIT"> F  </i>
    <v name="SAXIS">      0.00000000      0.00000000      1.00000000</v>
    <i type="logical" name="LSPIRAL"> F  </i>
    <v name="QSPIRAL">      0.00000000      0.00000000      0.00000000</v>
    <i type="logical" name="LZEROZ"> F  </i>
   </separator>
   <separator name="electronic exchange-correlation" >
    <i type="logical" name="LASPH"> F  </i>
    <i type="logical" name="LMETAGGA"> F  </i>
   </separator>
   <separator name="electronic convergence" >
    <i type="int" name="NELM">    60</i>
    <i type="int" name="NELMDL">    -5</i>
    <i type="int" name="NELMIN">     2</i>
    <i name="ENINI">    400.00000000</i>
    <separator name="electronic convergence detail" >
     <i type="logical" name="LDIAG"> T  </i>
     <i type="logical" name="LSUBROT"> F  </i>
     <i name="WEIMIN">      0.00100000</i>
     <i name="EBREAK">      0.00000003</i>
     <i name="DEPER">      0.30000000</i>
     <i type="int" name="NRMM">     4</i>
     <i name="TIME">      0.40000000</i>
    </separator>
   </separator>
   <separator name="electronic mixer" >
    <i name="AMIX">      0.40000000</i>
    <i name="BMIX">      1.00000000</i>
    <i name="AMIN">      0.10000000</i>
    <i name="AMIX_MAG">      1.60000000</i>
    <i name="BMIX_MAG">      1.00000000</i>
    <separator name="electronic mixer details" >
     <i type="int" name="IMIX">     4</i>
     <i type="logical" name="MIXFIRST"> F  </i>
     <i type="int" name="MAXMIX">    50</i>
     <i name="WC">    100.00000000</i>
     <i type="int" name="INIMIX">     1</i>
     <i type="int" name="MIXPRE">     1</i>
     <i type="int" name="MREMOVE">     5</i>
    </separator>
   </separator>
   <separator name="electronic dipolcorrection" >
    <i type="logical" name="LDIPOL"> F  </i>
    <i type="logical" name="LMONO"> F  </i>
    <i type="int" name="IDIPOL">     0</i>
    <i name="EPSILON">      1.00000000</i>
    <v name="DIPOL">   -100.00000000   -100.00000000   -100.00000000</v>
    <i name="EFIELD">      0.00000000</i>
   </separator>
  </separator>
  <separator name="grids" >
   <i type="int" name="NGX">    70</i>
   <i type="int" name="NGY">    64</i>
   <i type="int" name="NGZ">    70</i>
   <i type="int" name="NGXF">   140</i>
   <i type="int" name="NGYF">   128</i>
   <i type="int" name="NGZF">   140</i>
   <i type="logical" name="ADDGRID"> F  </i>
  </separator>
  <separator name="ionic" >
   <i type="int" name="NSW">    10</i>
   <i type="int" name="IBRION">     0</i>
   <i type="int" name="MDALGO">     0</i>
   <i type="int" name="ISIF">     2</i>
   <i name="PSTRESS">      0.00000000</i>
   <i name="EDIFFG">      0.00001000</i>
   <i type="int" name="NFREE">     0</i>
   <i name="POTIM">      2.00000000</i>
   <i name="SMASS">      0.00164567</i>
   <i name="SCALEE">      1.00000000</i>
  </separator>
  <separator name="ionic md" >
   <i name="TEBEG">     50.00000000</i>
   <i name="TEEND">     50.00000000</i>
   <i type="int" name="NBLOCK">     1</i>
   <i type="int" name="KBLOCK">     1</i>
   <i type="int" name="NPACO">   256</i>
   <i name="APACO">     16.00000000</i>
  </separator>
  <separator name="symmetry" >
   <i type="int" name="ISYM">     0</i>
   <i name="SYMPREC">      0.00001000</i>
  </separator>
  <separator name="dos" >
   <i type="int" name="LORBIT">     0</i>
   <v name="RWIGS">     -1.00000000     -1.00000000</v>
   <i type="int" name="NEDOS">   301</i>
   <i name="EMIN">     10.00000000</i>
   <i name="EMAX">    -10.00000000</i>
   <i name="EFERMI">      0.00000000</i>
  </separator>
  <separator name="writing" >
   <i type="int" name="NWRITE">     2</i>
   <i type="logical" name="LWAVE"> F  </i>
   <i type="logical" name="LDOWNSAMPLE"> F  </i>
   <i type="logical" name="LCHARG"> F  </i>
   <i type="logical" name="LPARD"> F  </i>
   <i type="logical" name="LVTOT"> F  </i>
   <i type="logical" name="LVHAR"> F  </i>
   <i type="logical" name="LELF"> F  </i>
   <i type="logical" name="LOPTICS"> F  </i>
   <v name="STM">      0.00000000      0.00000000      0.00000000      0.00000000      0.00000000      0.00000000      0.00000000</v>
  </separator>
  <separator name="performance" >
   <i type="int" name="NPAR">     1</i>
   <i type="int" name="NSIM">     4</i>
   <i type="int" name="NBLK">    -1</i>
   <i type="logical" name="LPLANE"> T  </i>
   <i type="logical" name="LSCALAPACK"> T  </i>
   <i type="logical" name="LSCAAWARE"> F  </i>
   <i type="logical" name="LSCALU"> F  </i>
   <i type="logical" name="LASYNC"> F  </i>
   <i type="logical" name="LORBITALREAL"> F  </i>
  </separator>
  <separator name="miscellaneous" >
   <i type="int" name="IDIOT">     3</i>
   <i type="int" name="ISPECIAL">     0</i>
   <i type="logical" name="LMUSIC"> F  </i>
   <v name="POMASS">      1.00000000     12.01100000</v>
   <v name="DARWINR">      0.00000000      0.00000000</v>
   <v name="DARWINV">      1.00000000      1.00000000</v>
   <i type="logical" name="LCORR"> T  </i>
  </separator>
  <i type="logical" name="GGA_COMPAT"> T  </i>
  <i type="logical" name="LBERRY"> F  </i>
  <i type="int" name="ICORELEVEL">     0</i>
  <i type="logical" name="LDAU"> F  </i>
  <i type="int" name="I_CONSTRAINED_M">     0</i>
  <separator name="electronic exchange-correlation" >
   <i type="string" name="GGA">--</i>
   <i type="int" name="VOSKOWN">     0</i>
   <i type="logical" name="LHFCALC"> F  </i>
   <i type="string" name="PRECFOCK"></i>
   <i type="logical" name="LSYMGRAD"> F  </i>
   <i type="logical" name="LHFONE"> F  </i>
   <i type="logical" name="LRHFCALC"> F  </i>
   <i type="logical" name="LTHOMAS"> F  </i>
   <i type="logical" name="LMODELHF"> F  </i>
   <i name="ENCUT4O">     -1.00000000</i>
   <i type="int" name="EXXOEP">     0</i>
   <i type="int" name="FOURORBIT">     0</i>
   <i name="AEXX">      0.00000000</i>
   <i name="HFALPHA">      0.00000000</i>
   <i name="MCALPHA">      0.00000000</i>
   <i name="ALDAX">      1.00000000</i>
   <i name="AGGAX">      1.00000000</i>
   <i name="ALDAC">      1.00000000</i>
   <i name="AGGAC">      1.00000000</i>
   <i type="int" name="NKREDX">     1</i>
   <i type="int" name="NKREDY">     1</i>
   <i type="int" name="NKREDZ">     1</i>
   <i type="logical" name="SHIFTRED"> F  </i>
   <i type="logical" name="ODDONLY"> F  </i>
   <i type="logical" name="EVENONLY"> F  </i>
   <i type="int" name="LMAXFOCK">     0</i>
   <i type="int" name="NMAXFOCKAE">     0</i>
   <i type="logical" name="LFOCKAEDFT"> F  </i>
   <i name="HFSCREEN">      0.00000000</i>
   <i name="HFSCREENC">      0.00000000</i>
   <i type="int" name="NBANDSGWLOW">     0</i>
  </separator>
  <separator name="vdW DFT" >
   <i type="logical" name="LUSE_VDW"> F  </i>
   <i name="Zab_VDW">     -0.84910000</i>
   <i name="PARAM1">      0.12340000</i>
   <i name="PARAM2">      1.00000000</i>
   <i name="PARAM3">      0.00000000</i>
  </separator>
  <separator name="model GW" >
   <i type="int" name="MODEL_GW">     0</i>
   <i name="MODEL_EPS0">    117.46702982</i>
   <i name="MODEL_ALPHA">      1.00000000</i>
  </separator>
  <separator name="linear response parameters" >
   <i type="logical" name="LEPSILON"> F  </i>
   <i type="logical" name="LRPA"> F  </i>
   <i type="logical" name="LNABLA"> F  </i>
   <i type="logical" name="LVEL"> F  </i>
   <i type="int" name="KINTER">     0</i>
   <i name="CSHIFT">      0.10000000</i>
   <i name="OMEGAMAX">     -1.00000000</i>
   <i name="DEG_THRESHOLD">      0.00200000</i>
   <i name="RTIME">     -0.10000000</i>
   <i name="WPLASMAI">      0.00000000</i>
   <v name="DFIELD">      0.00000000      0.00000000      0.00000000</v>
   <v name="WPLASMA">      0.00000000      0.00000000      0.00000000      0.00000000      0.00000000      0.00000000      0.00000000      0.00000000      0.00000000</v>
  </separator>
  <separator name="orbital magnetization" >
   <i type="logical" name="NUCIND"> F  </i>
   <v name="MAGPOS">      0.00000000      0.00000000      0.00000000</v>
   <i type="logical" name="LNICSALL"> T  </i>
   <i type="logical" name="ORBITALMAG"> F  </i>
   <i type="logical" name="LMAGBLOCH"> F  </i>
   <i type="logical" name="LCHIMAG"> F  </i>
   <i type="logical" name="LGAUGE"> T  </i>
   <i type="int" name="MAGATOM">     0</i>
   <v name="MAGDIPOL">      0.00000000      0.00000000      0.00000000</v>
   <v name="AVECCONST">      0.00000000      0.00000000      0.00000000</v>
  </separator>
  <separator name="response functions" >
   <i type="logical" name="LADDER"> F  </i>
   <i type="logical" name="LRPAFORCE"> F  </i>
   <i type="logical" name="LFXC"> F  </i>
   <i type="logical" name="LHARTREE"> T  </i>
   <i type="int" name="IBSE">     0</i>
   <v type="int" name="KPOINT">    -1     0     0     0</v>
   <i type="logical" name="LTCTE"> F  </i>
   <i type="logical" name="LTETE"> F  </i>
   <i type="logical" name="LTRIPLET"> F  </i>
   <i type="logical" name="LFXCEPS"> F  </i>
   <i type="logical" name="LFXHEG"> F  </i>
   <i type="int" name="NATURALO">     2</i>
   <i type="logical" name="L2ORDER"> F  </i>
   <i type="logical" name="LMP2LT"> F  </i>
   <i type="logical" name="LUSEW"> F  </i>
   <i name="ENCUTGW">     -2.00000000</i>
   <i name="ENCUTGWSOFT">     -2.00000000</i>
   <i name="ENCUTLF">     -1.00000000</i>
   <i type="int" name="LMAXMP2">    -1</i>
   <i name="SCISSOR">      0.00000000</i>
   <i type="int" name="NOMEGA">     0</i>
   <i type="int" name="NOMEGAR">     0</i>
   <i type="int" name="NBANDSGW">    -1</i>
   <i type="int" name="NBANDSO">    -1</i>
   <i type="int" name="NBANDSV">    -1</i>
   <i type="int" name="NELM">     1</i>
   <i type="int" name="NELMHF">     1</i>
   <i type="int" name="DIM">     3</i>
   <i type="int" name="ANTIRES">     0</i>
   <i name="OMEGAMAX">    -30.00000000</i>
   <i name="OMEGAMIN">    -30.00000000</i>
   <i name="OMEGATL">   -200.00000000</i>
   <i type="int" name="OMEGAGRID">   140</i>
   <i name="CSHIFT">     -0.10000000</i>
   <i type="logical" name="SELFENERGY"> F  </i>
   <i type="logical" name="LSPECTRAL"> F  </i>
   <i type="logical" name="LSPECTRALGW"> F  </i>
   <i type="logical" name="LSINGLES"> F  </i>
   <i type="logical" name="LFERMIGW"> F  </i>
   <i type="logical" name="ODDONLYGW"> F  </i>
   <i type="logical" name="EVENONLYGW"> F  </i>
   <i type="int" name="NKREDLFX">     1</i>
   <i type="int" name="NKREDLFY">     1</i>
   <i type="int" name="NKREDLFZ">     1</i>
   <i type="int" name="MAXMEM">  2800</i>
   <i type="int" name="TELESCOPE">     0</i>
   <i type="int" name="TAUPAR">     1</i>
   <i type="int" name="OMEGAPAR">    -1</i>
   <i name="LAMBDA">      1.00000000</i>
  </separator>
  <separator name="External order field" >
   <i name="OFIELD_KAPPA">      0.00000000</i>
   <v name="OFIELD_K">      0.00000000      0.00000000      0.00000000</v>
   <i name="OFIELD_Q6_NEAR">      0.00000000</i>
   <i name="OFIELD_Q6_FAR">      0.00000000</i>
   <i name="OFIELD_A">      0.00000000</i>
  </separator>
 </parameters>
 <atominfo>
  <atoms>       5 </atoms>
  <types>       2 </types>
  <array name="atoms" >
   <dimension dim="1">ion</dimension>
   <field type="string">element</field>
   <field type="int">atomtype</field>
   <set>
    <rc><c>H </c><c>   1</c></rc>
    <rc><c>H </c><c>   1</c></rc>
    <rc><c>H </c><c>   1</c></rc>
    <rc><c>H </c><c>   1</c></rc>
    <rc><c>C </c><c>   2</c></rc>
   </set>
  </array>
  <array name="atomtypes" >
   <dimension dim="1">type</dimension>
   <field type="int">atomspertype</field>
   <field type="string">element</field>
   <field>mass</field>
   <field>valence</field>
   <field type="string">pseudopotential</field>
   <set>
    <rc><c>   4</c><c>H </c><c>      1.00000000</c><c>      1.00000000</c><c>  PAW_PBE H 15Jun2001                   </c></rc>
    <rc><c>   1</c><c>C </c><c>     12.01100000</c><c>      4.00000000</c><c>  PAW_PBE C 08Apr2002                   </c></rc>
   </set>
  </array>
 </atominfo>
 <structure name="initialpos" >
  <crystal>
   <varray name="basis" >
    <v>       9.91397100       0.00000000       0.00000000 </v>
    <v>      -0.15987770       9.78291969       0.00000000 </v>
    <v>       0.08614104      -0.02072355      10.09296132 </v>
   </varray>
   <i name="volume">    978.89191515 </i>
   <varray name="rec_basis" >
    <v>       0.10086776       0.00164843      -0.00085750 </v>
    <v>      -0.00000000       0.10221897       0.00020988 </v>
    <v>       0.00000000      -0.00000000       0.09907895 </v>
   </varray>
  </crystal>
  <varray name="positions" >
   <v>       0.53854978       0.40666729       0.36049034 </v>
   <v>       0.39423482       0.48005349       0.43785725 </v>
   <v>       0.55195653       0.56545605       0.44269245 </v>
   <v>       0.52816374       0.41617850       0.53939624 </v>
   <v>       0.50281321       0.46738124       0.44543388 </v>
  </varray>
  <varray name="velocities" >
   <v>      -0.00126974       0.00004575       0.00031579 </v>
   <v>       0.00099285       0.00055169      -0.00247650 </v>
   <v>       0.00020214      -0.00130903      -0.00178170 </v>
   <v>       0.00175952       0.00065369       0.00126294 </v>
   <v>      -0.00014027       0.00000482       0.00022309 </v>
  </varray>
 </structure>
 <calculation>
  <scstep>
   <time name="dav">    2.78    2.79</time>
   <time name="total">    4.48    4.49</time>
   <energy>
    <i name="alphaZ">      0.24747450 </i>
    <i name="ewald">    129.13488378 </i>
    <i name="hartreedc">   -243.79202821 </i>
    <i name="XCdc">     22.04041171 </i>
    <i name="pawpsdc">    117.05815612 </i>
    <i name="pawaedc">   -117.66307307 </i>
    <i name="eentropy">      0.00289895 </i>
    <i name="bandstr">    -89.62032135 </i>
    <i name="atom">    197.04175453 </i>
    <i name="e_fr_energy">     14.45015697 </i>
    <i name="e_wo_entrp">     14.44725802 </i>
    <i name="e_0_energy">     14.44919065 </i>
   </energy>
  </scstep>
  <scstep>
   <time name="dav">    2.01    2.01</time>
   <time name="total">    2.01    2.01</time>
   <energy>
    <i name="e_fr_energy">    -22.91134162 </i>
    <i name="e_wo_entrp">    -22.91424057 </i>
    <i name="e_0_energy">    -22.91230794 </i>
   </energy>
  </scstep>
  <scstep>
   <time name="dav">    2.01    2.02</time>
   <time name="total">    2.01    2.02</time>
   <energy>
    <i name="e_fr_energy">    -27.43538041 </i>
    <i name="e_wo_entrp">    -27.46870187 </i>
    <i name="e_0_energy">    -27.44648756 </i>
   </energy>
  </scstep>
  <scstep>
   <time name="dav">    3.58    3.59</time>
   <time name="total">    3.58    3.59</time>
   <energy>
    <i name="e_fr_energy">    -27.61618628 </i>
    <i name="e_wo_entrp">    -27.64893608 </i>
    <i name="e_0_energy">    -27.62710288 </i>
   </energy>
  </scstep>
  <scstep>
   <time name="dav">    2.71    2.72</time>
   <time name="total">    2.92    2.93</time>
   <energy>
    <i name="e_fr_energy">    -27.61625172 </i>
    <i name="e_wo_entrp">    -27.64900142 </i>
    <i name="e_0_energy">    -27.62716829 </i>
   </energy>
  </scstep>
  <scstep>
   <time name="diag">    0.44    0.44</time>
   <time name="diis">    1.41    1.42</time>
   <time name="orth">    0.01    0.01</time>
   <time name="total">    3.78    3.79</time>
   <energy>
    <i name="e_fr_energy">    -24.64658210 </i>
    <i name="e_wo_entrp">    -24.68364922 </i>
    <i name="e_0_energy">    -24.65893780 </i>
   </energy>
  </scstep>
  <scstep>
   <time name="diag">    0.43    0.43</time>
   <time name="diis">    1.45    1.45</time>
   <time name="orth">    0.01    0.01</time>
   <time name="total">    3.83    3.84</time>
   <energy>
    <i name="e_fr_energy">    -24.14239888 </i>
    <i name="e_wo_entrp">    -24.17905909 </i>
    <i name="e_0_energy">    -24.15461895 </i>
   </energy>
  </scstep>
  <scstep>
   <time name="diag">    0.44    0.44</time>
   <time name="diis">    1.47    1.48</time>
   <time name="orth">    0.01    0.01</time>
   <time name="total">    3.87    3.87</time>
   <energy>
    <i name="e_fr_energy">    -24.00819792 </i>
    <i name="e_wo_entrp">    -24.04719434 </i>
    <i name="e_0_energy">    -24.02119673 </i>
   </energy>
  </scstep>
  <scstep>
   <time name="diag">    0.43    0.43</time>
   <time name="diis">    1.48    1.49</time>
   <time name="orth">    0.01    0.01</time>
   <time name="total">    3.86    3.87</time>
   <energy>
    <i name="e_fr_energy">    -23.99100117 </i>
    <i name="e_wo_entrp">    -24.02799729 </i>
    <i name="e_0_energy">    -24.00333321 </i>
   </energy>
  </scstep>
  <scstep>
   <time name="diag">    0.43    0.43</time>
   <time name="diis">    1.49    1.49</time>
   <time name="orth">    0.01    0.01</time>
   <time name="total">    3.88    3.89</time>
   <energy>
    <i name="e_fr_energy">    -23.98850276 </i>
    <i name="e_wo_entrp">    -24.02440586 </i>
    <i name="e_0_energy">    -24.00047046 </i>
   </energy>
  </scstep>
  <scstep>
   <time name="diag">    0.44    0.44</time>
   <time name="diis">    1.47    1.47</time>
   <time name="orth">    0.01    0.01</time>
   <time name="total">    3.85    3.86</time>
   <energy>
    <i name="e_fr_energy">    -23.98770117 </i>
    <i name="e_wo_entrp">    -24.02351443 </i>
    <i name="e_0_energy">    -23.99963893 </i>
   </energy>
  </scstep>
  <scstep>
   <time name="diag">    0.43    0.43</time>
   <time name="diis">    1.50    1.50</time>
   <time name="orth">    0.01    0.01</time>
   <time name="total">    3.81    3.82</time>
   <energy>
    <i name="e_fr_energy">    -23.98294797 </i>
    <i name="e_wo_entrp">    -24.01884376 </i>
    <i name="e_0_energy">    -23.99491323 </i>
   </energy>
  </scstep>
  <scstep>
   <time name="diag">    0.44    0.44</time>
   <time name="diis">    1.47    1.47</time>
   <time name="orth">    0.01    0.01</time>
   <time name="total">    3.76    3.77</time>
   <energy>
    <i name="e_fr_energy">    -23.98573844 </i>
    <i name="e_wo_entrp">    -24.02153698 </i>
    <i name="e_0_energy">    -23.99767128 </i>
   </energy>
  </scstep>
  <scstep>
   <time name="diag">    0.45    0.45</time>
   <time name="diis">    1.48    1.48</time>
   <time name="orth">    0.01    0.01</time>
   <time name="total">    3.72    3.73</time>
   <energy>
    <i name="e_fr_energy">    -23.99135178 </i>
    <i name="e_wo_entrp">    -24.02727778 </i>
    <i name="e_0_energy">    -24.00332712 </i>
   </energy>
  </scstep>
  <scstep>
   <time name="diag">    0.47    0.47</time>
   <time name="diis">    1.51    1.51</time>
   <time name="orth">    0.01    0.01</time>
   <time name="total">    3.72    3.73</time>
   <energy>
    <i name="e_fr_energy">    -23.99324119 </i>
    <i name="e_wo_entrp">    -24.02912788 </i>
    <i name="e_0_energy">    -24.00520342 </i>
   </energy>
  </scstep>
  <scstep>
   <time name="diag">    0.46    0.46</time>
   <time name="diis">    1.51    1.51</time>
   <time name="orth">    0.01    0.01</time>
   <time name="total">    3.68    3.69</time>
   <energy>
    <i name="e_fr_energy">    -23.99508699 </i>
    <i name="e_wo_entrp">    -24.03093993 </i>
    <i name="e_0_energy">    -24.00703797 </i>
   </energy>
  </scstep>
  <scstep>
   <time name="diag">    0.46    0.47</time>
   <time name="diis">    1.53    1.54</time>
   <time name="orth">    0.01    0.01</time>
   <time name="total">    3.70    3.71</time>
   <energy>
    <i name="e_fr_energy">    -23.99540742 </i>
    <i name="e_wo_entrp">    -24.03125019 </i>
    <i name="e_0_energy">    -24.00735501 </i>
   </energy>
  </scstep>
  <scstep>
   <time name="diag">    0.45    0.45</time>
   <time name="diis">    1.49    1.50</time>
   <time name="orth">    0.01    0.01</time>
   <time name="total">    3.63    3.64</time>
   <energy>
    <i name="e_fr_energy">    -23.99563883 </i>
    <i name="e_wo_entrp">    -24.03149671 </i>
    <i name="e_0_energy">    -24.00759146 </i>
   </energy>
  </scstep>
  <scstep>
   <time name="diag">    0.45    0.45</time>
   <time name="diis">    1.47    1.47</time>
   <time name="orth">    0.01    0.01</time>
   <time name="total">    3.64    3.65</time>
   <energy>
    <i name="e_fr_energy">    -23.99574747 </i>
    <i name="e_wo_entrp">    -24.03161723 </i>
    <i name="e_0_energy">    -24.00770406 </i>
   </energy>
  </scstep>
  <scstep>
   <time name="diag">    0.46    0.46</time>
   <time name="diis">    1.18    1.18</time>
   <time name="orth">    0.01    0.01</time>
   <time name="total">    3.39    3.40</time>
   <energy>
    <i name="e_fr_energy">    -23.99576339 </i>
    <i name="e_wo_entrp">    -24.03162655 </i>
    <i name="e_0_energy">    -24.00771778 </i>
   </energy>
  </scstep>
  <scstep>
   <time name="diag">    0.44    0.44</time>
   <time name="diis">    1.15    1.15</time>
   <time name="orth">    0.01    0.01</time>
   <time name="total">    3.41    3.42</time>
   <energy>
    <i name="e_fr_energy">    -23.99576972 </i>
    <i name="e_wo_entrp">    -24.03162797 </i>
    <i name="e_0_energy">    -24.00772247 </i>
   </energy>
  </scstep>
  <scstep>
   <time name="diag">    0.44    0.44</time>
   <time name="diis">    1.05    1.05</time>
   <time name="orth">    0.01    0.01</time>
   <time name="total">    3.12    3.12</time>
   <energy>
    <i name="alphaZ">      0.24747450 </i>
    <i name="ewald">    129.13488378 </i>
    <i name="hartreedc">   -284.79074301 </i>
    <i name="XCdc">     24.80299543 </i>
    <i name="pawpsdc">    431.81321613 </i>
    <i name="pawaedc">   -432.60462141 </i>
    <i name="eentropy">      0.03586096 </i>
    <i name="bandstr">    -89.67659159 </i>
    <i name="atom">    197.04175453 </i>
    <i name="e_fr_energy">    -23.99577067 </i>
    <i name="e_wo_entrp">    -24.03163162 </i>
    <i name="e_0_energy">    -24.00772432 </i>
   </energy>
  </scstep>
  <structure>
   <crystal>
    <varray name="basis" >
     <v>       9.91397100       0.00000000       0.00000000 </v>
     <v>      -0.15987770       9.78291969       0.00000000 </v>
     <v>       0.08614104      -0.02072355      10.09296132 </v>
    </varray>
    <i name="volume">    978.89191515 </i>
    <varray name="rec_basis" >
     <v>       0.10086776       0.00164843      -0.00085750 </v>
     <v>      -0.00000000       0.10221897       0.00020988 </v>
     <v>       0.00000000      -0.00000000       0.09907895 </v>
    </varray>
   </crystal>
   <varray name="positions" >
    <v>       0.53854978       0.40666729       0.36049034 </v>
    <v>       0.39423482       0.48005349       0.43785725 </v>
    <v>       0.55195653       0.56545605       0.44269245 </v>
    <v>       0.52816374       0.41617850       0.53939624 </v>
    <v>       0.50281321       0.46738124       0.44543388 </v>
   </varray>
  </structure>
  <varray name="forces" >
   <v>      -0.11415881       0.18487574      -0.11441163 </v>
   <v>       0.33399684       0.27633983       0.30193060 </v>
   <v>       0.34115240       1.28168392       0.21157202 </v>
   <v>       0.06374479       0.09460252      -0.14039223 </v>
   <v>      -1.12310725      -0.02723148      -0.08277310 </v>
  </varray>
  <varray name="stress" >
   <v>       0.40552442       0.96923034      -0.38763733 </v>
   <v>       0.96923034       0.52466076      -0.06610868 </v>
   <v>      -0.38763733      -0.06610868      -0.73836572 </v>
  </varray>
  <energy>
   <i name="e_fr_energy">    -23.99577067 </i>
   <i name="e_wo_entrp">    -24.00772432 </i>
   <i name="e_0_energy">      0.03586096 </i>
   <i name="kinetic">      0.02584180 </i>
   <i name="lattice kinetic">      0.00000000 </i>
   <i name="nosepot">      0.00000000 </i>
   <i name="nosekinetic">      0.00000000 </i>
   <i name="total">    -23.96992887 </i>
  </energy>
  <dos>
   <i name="efermi">     -9.12800610 </i>
   <total>
    <array>
     <dimension dim="1">gridpoints</dimension>
     <dimension dim="2">spin</dimension>
     <field>energy</field>
     <field>total</field>
     <field>integrated</field>
     <set>
      <set comment="spin 1">
       <r>   -18.9361     0.0000     0.0000 </r>
       <r>   -18.8639     0.0000     0.0000 </r>
       <r>   -18.7917     0.0000     0.0000 </r>
       <r>   -18.7195     0.0000     0.0000 </r>
       <r>   -18.6473     0.0000     0.0000 </r>
       <r>   -18.5751    -0.0000    -0.0000 </r>
       <r>   -18.5029    -0.0000    -0.0000 </r>
       <r>   -18.4307    -0.0000    -0.0000 </r>
       <r>   -18.3585    -0.0000    -0.0000 </r>
       <r>   -18.2863    -0.0000    -0.0000 </r>
       <r>   -18.2141    -0.0000    -0.0000 </r>
       <r>   -18.1419    -0.0000    -0.0000 </r>
       <r>   -18.0697    -0.0000    -0.0000 </r>
       <r>   -17.9975    -0.0000    -0.0000 </r>
       <r>   -17.9253    -0.0000    -0.0000 </r>
       <r>   -17.8531    -0.0000    -0.0000 </r>
       <r>   -17.7809    -0.0000    -0.0000 </r>
       <r>   -17.7087    -0.0000    -0.0000 </r>
       <r>   -17.6365    -0.0001    -0.0000 </r>
       <r>   -17.5643    -0.0010    -0.0001 </r>
       <r>   -17.4922    -0.0072    -0.0006 </r>
       <r>   -17.4200    -0.0372    -0.0033 </r>
       <r>   -17.3478    -0.1368    -0.0132 </r>
       <r>   -17.2756    -0.3343    -0.0373 </r>
       <r>   -17.2034    -0.4199    -0.0676 </r>
       <r>   -17.1312     0.3158    -0.0448 </r>
       <r>   -17.0590     2.6576     0.1470 </r>
       <r>   -16.9868     6.0745     0.5856 </r>
       <r>   -16.9146     8.2399     1.1805 </r>
       <r>   -16.8424     7.2566     1.7044 </r>
       <r>   -16.7702     4.0161     1.9943 </r>
       <r>   -16.6980     1.0556     2.0705 </r>
       <r>   -16.6258    -0.2755     2.0506 </r>
       <r>   -16.5536    -0.4104     2.0210 </r>
       <r>   -16.4814    -0.2079     2.0060 </r>
       <r>   -16.4092    -0.0659     2.0012 </r>
       <r>   -16.3370    -0.0146     2.0002 </r>
       <r>   -16.2648    -0.0024     2.0000 </r>
       <r>   -16.1926    -0.0003     2.0000 </r>
       <r>   -16.1204    -0.0000     2.0000 </r>
       <r>   -16.0482    -0.0000     2.0000 </r>
       <r>   -15.9760    -0.0000     2.0000 </r>
       <r>   -15.9038    -0.0000     2.0000 </r>
       <r>   -15.8317    -0.0000     2.0000 </r>
       <r>   -15.7595    -0.0000     2.0000 </r>
       <r>   -15.6873    -0.0000     2.0000 </r>
       <r>   -15.6151     0.0000     2.0000 </r>
       <r>   -15.5429     0.0000     2.0000 </r>
       <r>   -15.4707     0.0000     2.0000 </r>
       <r>   -15.3985     0.0000     2.0000 </r>
       <r>   -15.3263     0.0000     2.0000 </r>
       <r>   -15.2541     0.0000     2.0000 </r>
       <r>   -15.1819     0.0000     2.0000 </r>
       <r>   -15.1097     0.0000     2.0000 </r>
       <r>   -15.0375     0.0000     2.0000 </r>
       <r>   -14.9653     0.0000     2.0000 </r>
       <r>   -14.8931     0.0000     2.0000 </r>
       <r>   -14.8209     0.0000     2.0000 </r>
       <r>   -14.7487     0.0000     2.0000 </r>
       <r>   -14.6765     0.0000     2.0000 </r>
       <r>   -14.6043     0.0000     2.0000 </r>
       <r>   -14.5321     0.0000     2.0000 </r>
       <r>   -14.4599     0.0000     2.0000 </r>
       <r>   -14.3877     0.0000     2.0000 </r>
       <r>   -14.3155     0.0000     2.0000 </r>
       <r>   -14.2433     0.0000     2.0000 </r>
       <r>   -14.1712     0.0000     2.0000 </r>
       <r>   -14.0990     0.0000     2.0000 </r>
       <r>   -14.0268     0.0000     2.0000 </r>
       <r>   -13.9546     0.0000     2.0000 </r>
       <r>   -13.8824     0.0000     2.0000 </r>
       <r>   -13.8102     0.0000     2.0000 </r>
       <r>   -13.7380     0.0000     2.0000 </r>
       <r>   -13.6658     0.0000     2.0000 </r>
       <r>   -13.5936     0.0000     2.0000 </r>
       <r>   -13.5214     0.0000     2.0000 </r>
       <r>   -13.4492     0.0000     2.0000 </r>
       <r>   -13.3770     0.0000     2.0000 </r>
       <r>   -13.3048     0.0000     2.0000 </r>
       <r>   -13.2326     0.0000     2.0000 </r>
       <r>   -13.1604     0.0000     2.0000 </r>
       <r>   -13.0882     0.0000     2.0000 </r>
       <r>   -13.0160     0.0000     2.0000 </r>
       <r>   -12.9438     0.0000     2.0000 </r>
       <r>   -12.8716     0.0000     2.0000 </r>
       <r>   -12.7994     0.0000     2.0000 </r>
       <r>   -12.7272     0.0000     2.0000 </r>
       <r>   -12.6550     0.0000     2.0000 </r>
       <r>   -12.5828     0.0000     2.0000 </r>
       <r>   -12.5107     0.0000     2.0000 </r>
       <r>   -12.4385     0.0000     2.0000 </r>
       <r>   -12.3663     0.0000     2.0000 </r>
       <r>   -12.2941     0.0000     2.0000 </r>
       <r>   -12.2219     0.0000     2.0000 </r>
       <r>   -12.1497     0.0000     2.0000 </r>
       <r>   -12.0775     0.0000     2.0000 </r>
       <r>   -12.0053     0.0000     2.0000 </r>
       <r>   -11.9331     0.0000     2.0000 </r>
       <r>   -11.8609     0.0000     2.0000 </r>
       <r>   -11.7887     0.0000     2.0000 </r>
       <r>   -11.7165     0.0000     2.0000 </r>
       <r>   -11.6443     0.0000     2.0000 </r>
       <r>   -11.5721     0.0000     2.0000 </r>
       <r>   -11.4999     0.0000     2.0000 </r>
       <r>   -11.4277     0.0000     2.0000 </r>
       <r>   -11.3555     0.0000     2.0000 </r>
       <r>   -11.2833     0.0000     2.0000 </r>
       <r>   -11.2111     0.0000     2.0000 </r>
       <r>   -11.1389     0.0000     2.0000 </r>
       <r>   -11.0667     0.0000     2.0000 </r>
       <r>   -10.9945    -0.0000     2.0000 </r>
       <r>   -10.9223    -0.0000     2.0000 </r>
       <r>   -10.8502    -0.0000     2.0000 </r>
       <r>   -10.7780    -0.0000     2.0000 </r>
       <r>   -10.7058    -0.0000     2.0000 </r>
       <r>   -10.6336    -0.0000     2.0000 </r>
       <r>   -10.5614    -0.0000     2.0000 </r>
       <r>   -10.4892    -0.0000     2.0000 </r>
       <r>   -10.4170    -0.0000     2.0000 </r>
       <r>   -10.3448    -0.0000     2.0000 </r>
       <r>   -10.2726    -0.0000     2.0000 </r>
       <r>   -10.2004    -0.0000     2.0000 </r>
       <r>   -10.1282    -0.0000     2.0000 </r>
       <r>   -10.0560    -0.0001     2.0000 </r>
       <r>    -9.9838    -0.0007     1.9999 </r>
       <r>    -9.9116    -0.0059     1.9995 </r>
       <r>    -9.8394    -0.0368     1.9969 </r>
       <r>    -9.7672    -0.1677     1.9848 </r>
       <r>    -9.6950    -0.5406     1.9457 </r>
       <r>    -9.6228    -1.1189     1.8649 </r>
       <r>    -9.5506    -0.9323     1.7976 </r>
       <r>    -9.4784     2.3539     1.9676 </r>
       <r>    -9.4062    10.3774     2.7168 </r>
       <r>    -9.3340    20.1419     4.1709 </r>
       <r>    -9.2619    24.5016     5.9399 </r>
       <r>    -9.1897    19.6166     7.3561 </r>
       <r>    -9.1175     9.7502     8.0600 </r>
       <r>    -9.0453     1.9843     8.2033 </r>
       <r>    -8.9731    -1.0255     8.1292 </r>
       <r>    -8.9009    -1.0930     8.0503 </r>
       <r>    -8.8287    -0.5068     8.0137 </r>
       <r>    -8.7565    -0.1522     8.0027 </r>
       <r>    -8.6843    -0.0323     8.0004 </r>
       <r>    -8.6121    -0.0050     8.0000 </r>
       <r>    -8.5399    -0.0006     8.0000 </r>
       <r>    -8.4677    -0.0001     8.0000 </r>
       <r>    -8.3955    -0.0000     8.0000 </r>
       <r>    -8.3233    -0.0000     8.0000 </r>
       <r>    -8.2511    -0.0000     8.0000 </r>
       <r>    -8.1789    -0.0000     8.0000 </r>
       <r>    -8.1067    -0.0000     8.0000 </r>
       <r>    -8.0345    -0.0000     8.0000 </r>
       <r>    -7.9623     0.0000     8.0000 </r>
       <r>    -7.8901     0.0000     8.0000 </r>
       <r>    -7.8179     0.0000     8.0000 </r>
       <r>    -7.7457     0.0000     8.0000 </r>
       <r>    -7.6735     0.0000     8.0000 </r>
       <r>    -7.6014     0.0000     8.0000 </r>
       <r>    -7.5292     0.0000     8.0000 </r>
       <r>    -7.4570     0.0000     8.0000 </r>
       <r>    -7.3848     0.0000     8.0000 </r>
       <r>    -7.3126     0.0000     8.0000 </r>
       <r>    -7.2404     0.0000     8.0000 </r>
       <r>    -7.1682     0.0000     8.0000 </r>
       <r>    -7.0960     0.0000     8.0000 </r>
       <r>    -7.0238     0.0000     8.0000 </r>
       <r>    -6.9516     0.0000     8.0000 </r>
       <r>    -6.8794     0.0000     8.0000 </r>
       <r>    -6.8072     0.0000     8.0000 </r>
       <r>    -6.7350     0.0000     8.0000 </r>
       <r>    -6.6628     0.0000     8.0000 </r>
       <r>    -6.5906     0.0000     8.0000 </r>
       <r>    -6.5184     0.0000     8.0000 </r>
       <r>    -6.4462     0.0000     8.0000 </r>
       <r>    -6.3740     0.0000     8.0000 </r>
       <r>    -6.3018     0.0000     8.0000 </r>
       <r>    -6.2296     0.0000     8.0000 </r>
       <r>    -6.1574     0.0000     8.0000 </r>
       <r>    -6.0852     0.0000     8.0000 </r>
       <r>    -6.0130     0.0000     8.0000 </r>
       <r>    -5.9409     0.0000     8.0000 </r>
       <r>    -5.8687     0.0000     8.0000 </r>
       <r>    -5.7965     0.0000     8.0000 </r>
       <r>    -5.7243     0.0000     8.0000 </r>
       <r>    -5.6521     0.0000     8.0000 </r>
       <r>    -5.5799     0.0000     8.0000 </r>
       <r>    -5.5077     0.0000     8.0000 </r>
       <r>    -5.4355     0.0000     8.0000 </r>
       <r>    -5.3633     0.0000     8.0000 </r>
       <r>    -5.2911     0.0000     8.0000 </r>
       <r>    -5.2189     0.0000     8.0000 </r>
       <r>    -5.1467     0.0000     8.0000 </r>
       <r>    -5.0745     0.0000     8.0000 </r>
       <r>    -5.0023     0.0000     8.0000 </r>
       <r>    -4.9301     0.0000     8.0000 </r>
       <r>    -4.8579     0.0000     8.0000 </r>
       <r>    -4.7857     0.0000     8.0000 </r>
       <r>    -4.7135     0.0000     8.0000 </r>
       <r>    -4.6413     0.0000     8.0000 </r>
       <r>    -4.5691     0.0000     8.0000 </r>
       <r>    -4.4969     0.0000     8.0000 </r>
       <r>    -4.4247     0.0000     8.0000 </r>
       <r>    -4.3525     0.0000     8.0000 </r>
       <r>    -4.2804     0.0000     8.0000 </r>
       <r>    -4.2082     0.0000     8.0000 </r>
       <r>    -4.1360     0.0000     8.0000 </r>
       <r>    -4.0638     0.0000     8.0000 </r>
       <r>    -3.9916     0.0000     8.0000 </r>
       <r>    -3.9194     0.0000     8.0000 </r>
       <r>    -3.8472     0.0000     8.0000 </r>
       <r>    -3.7750     0.0000     8.0000 </r>
       <r>    -3.7028     0.0000     8.0000 </r>
       <r>    -3.6306     0.0000     8.0000 </r>
       <r>    -3.5584     0.0000     8.0000 </r>
       <r>    -3.4862     0.0000     8.0000 </r>
       <r>    -3.4140     0.0000     8.0000 </r>
       <r>    -3.3418     0.0000     8.0000 </r>
       <r>    -3.2696     0.0000     8.0000 </r>
       <r>    -3.1974     0.0000     8.0000 </r>
       <r>    -3.1252     0.0000     8.0000 </r>
       <r>    -3.0530     0.0000     8.0000 </r>
       <r>    -2.9808     0.0000     8.0000 </r>
       <r>    -2.9086     0.0000     8.0000 </r>
       <r>    -2.8364     0.0000     8.0000 </r>
       <r>    -2.7642     0.0000     8.0000 </r>
       <r>    -2.6920     0.0000     8.0000 </r>
       <r>    -2.6199     0.0000     8.0000 </r>
       <r>    -2.5477     0.0000     8.0000 </r>
       <r>    -2.4755     0.0000     8.0000 </r>
       <r>    -2.4033     0.0000     8.0000 </r>
       <r>    -2.3311     0.0000     8.0000 </r>
       <r>    -2.2589     0.0000     8.0000 </r>
       <r>    -2.1867     0.0000     8.0000 </r>
       <r>    -2.1145     0.0000     8.0000 </r>
       <r>    -2.0423     0.0000     8.0000 </r>
       <r>    -1.9701    -0.0000     8.0000 </r>
       <r>    -1.8979    -0.0000     8.0000 </r>
       <r>    -1.8257    -0.0000     8.0000 </r>
       <r>    -1.7535    -0.0000     8.0000 </r>
       <r>    -1.6813    -0.0000     8.0000 </r>
       <r>    -1.6091    -0.0000     8.0000 </r>
       <r>    -1.5369    -0.0000     8.0000 </r>
       <r>    -1.4647    -0.0000     8.0000 </r>
       <r>    -1.3925    -0.0000     8.0000 </r>
       <r>    -1.3203    -0.0000     8.0000 </r>
       <r>    -1.2481    -0.0000     8.0000 </r>
       <r>    -1.1759    -0.0000     8.0000 </r>
       <r>    -1.1037    -0.0000     8.0000 </r>
       <r>    -1.0316    -0.0000     8.0000 </r>
       <r>    -0.9594    -0.0005     8.0000 </r>
       <r>    -0.8872    -0.0040     7.9997 </r>
       <r>    -0.8150    -0.0227     7.9980 </r>
       <r>    -0.7428    -0.0934     7.9913 </r>
       <r>    -0.6706    -0.2638     7.9722 </r>
       <r>    -0.5984    -0.4371     7.9407 </r>
       <r>    -0.5262    -0.0717     7.9355 </r>
       <r>    -0.4540     1.7130     8.0592 </r>
       <r>    -0.3818     4.9687     8.4179 </r>
       <r>    -0.3096     7.8354     8.9836 </r>
       <r>    -0.2374     7.9256     9.5558 </r>
       <r>    -0.1652     5.1570     9.9281 </r>
       <r>    -0.0930     1.8582    10.0622 </r>
       <r>    -0.0208    -0.0217    10.0607 </r>
       <r>     0.0514    -0.4563    10.0277 </r>
       <r>     0.1236    -0.3576    10.0019 </r>
       <r>     0.1958    -0.3766     9.9747 </r>
       <r>     0.2680    -0.6620     9.9269 </r>
       <r>     0.3402    -0.8146     9.8681 </r>
       <r>     0.4124     0.3529     9.8936 </r>
       <r>     0.4846     4.3948    10.2109 </r>
       <r>     0.5568    11.4873    11.0402 </r>
       <r>     0.6289    18.7926    12.3970 </r>
       <r>     0.7011    21.6584    13.9606 </r>
       <r>     0.7733    17.7708    15.2436 </r>
       <r>     0.8455     9.8207    15.9526 </r>
       <r>     0.9177     2.8638    16.1593 </r>
       <r>     0.9899    -0.4517    16.1267 </r>
       <r>     1.0621    -0.9650    16.0571 </r>
       <r>     1.1343    -0.5447    16.0177 </r>
       <r>     1.2065    -0.1899    16.0040 </r>
       <r>     1.2787    -0.0463    16.0007 </r>
       <r>     1.3509    -0.0082    16.0001 </r>
       <r>     1.4231    -0.0011    16.0000 </r>
       <r>     1.4953    -0.0001    16.0000 </r>
       <r>     1.5675    -0.0000    16.0000 </r>
       <r>     1.6397    -0.0000    16.0000 </r>
       <r>     1.7119    -0.0000    16.0000 </r>
       <r>     1.7841    -0.0000    16.0000 </r>
       <r>     1.8563    -0.0000    16.0000 </r>
       <r>     1.9285    -0.0000    16.0000 </r>
       <r>     2.0007    -0.0000    16.0000 </r>
       <r>     2.0729     0.0000    16.0000 </r>
       <r>     2.1451     0.0000    16.0000 </r>
       <r>     2.2173     0.0000    16.0000 </r>
       <r>     2.2894     0.0000    16.0000 </r>
       <r>     2.3616     0.0000    16.0000 </r>
       <r>     2.4338     0.0000    16.0000 </r>
       <r>     2.5060     0.0000    16.0000 </r>
       <r>     2.5782     0.0000    16.0000 </r>
       <r>     2.6504     0.0000    16.0000 </r>
       <r>     2.7226     0.0000    16.0000 </r>
      </set>
     </set>
    </array>
   </total>
  </dos>
  <time name="totalsc">   84.87   85.08</time>
 </calculation>
 <calculation>
  <scstep>
   <time name="dav">    1.90    1.90</time>
   <time name="total">    3.74    3.75</time>
   <energy>
    <i name="alphaZ">      0.24747450 </i>
    <i name="ewald">    128.05110109 </i>
    <i name="hartreedc">   -284.14406809 </i>
    <i name="XCdc">     24.76989259 </i>
    <i name="pawpsdc">    431.82072696 </i>
    <i name="pawaedc">   -432.61211811 </i>
    <i name="eentropy">      0.01603708 </i>
    <i name="bandstr">    -89.22485014 </i>
    <i name="atom">    197.04175453 </i>
    <i name="e_fr_energy">    -24.03404959 </i>
    <i name="e_wo_entrp">    -24.05008667 </i>
    <i name="e_0_energy">    -24.03939528 </i>
   </energy>
  </scstep>
  <scstep>
   <time name="diag">    0.45    0.45</time>
   <time name="diis">    1.47    1.47</time>
   <time name="orth">    0.01    0.01</time>
   <time name="total">    3.70    3.71</time>
   <energy>
    <i name="e_fr_energy">    -24.03477496 </i>
    <i name="e_wo_entrp">    -24.05516335 </i>
    <i name="e_0_energy">    -24.04157109 </i>
   </energy>
  </scstep>
  <scstep>
   <time name="diag">    0.45    0.45</time>
   <time name="diis">    1.54    1.54</time>
   <time name="orth">    0.01    0.01</time>
   <time name="total">    3.74    3.74</time>
   <energy>
    <i name="e_fr_energy">    -24.02530549 </i>
    <i name="e_wo_entrp">    -24.05235248 </i>
    <i name="e_0_energy">    -24.03432115 </i>
   </energy>
  </scstep>
  <scstep>
   <time name="diag">    0.46    0.46</time>
   <time name="diis">    1.46    1.46</time>
   <time name="orth">    0.01    0.01</time>
   <time name="total">    3.68    3.69</time>
   <energy>
    <i name="e_fr_energy">    -24.02342247 </i>
    <i name="e_wo_entrp">    -24.04910878 </i>
    <i name="e_0_energy">    -24.03198457 </i>
   </energy>
  </scstep>
  <scstep>
   <time name="diag">    0.43    0.43</time>
   <time name="diis">    1.49    1.50</time>
   <time name="orth">    0.01    0.01</time>
   <time name="total">    3.70    3.71</time>
   <energy>
    <i name="e_fr_energy">    -24.02374705 </i>
    <i name="e_wo_entrp">    -24.04936347 </i>
    <i name="e_0_energy">    -24.03228585 </i>
   </energy>
  </scstep>
  <scstep>
   <time name="diag">    0.43    0.43</time>
   <time name="diis">    1.47    1.48</time>
   <time name="orth">    0.01    0.01</time>
   <time name="total">    3.70    3.71</time>
   <energy>
    <i name="e_fr_energy">    -24.02348595 </i>
    <i name="e_wo_entrp">    -24.04925213 </i>
    <i name="e_0_energy">    -24.03207468 </i>
   </energy>
  </scstep>
  <scstep>
   <time name="diag">    0.42    0.42</time>
   <time name="diis">    1.54    1.54</time>
   <time name="orth">    0.01    0.01</time>
   <time name="total">    3.78    3.79</time>
   <energy>
    <i name="e_fr_energy">    -24.02356580 </i>
    <i name="e_wo_entrp">    -24.04908753 </i>
    <i name="e_0_energy">    -24.03207305 </i>
   </energy>
  </scstep>
  <scstep>
   <time name="diag">    0.44    0.44</time>
   <time name="diis">    1.53    1.53</time>
   <time name="orth">    0.01    0.01</time>
   <time name="total">    3.75    3.76</time>
   <energy>
    <i name="e_fr_energy">    -24.02364345 </i>
    <i name="e_wo_entrp">    -24.04914392 </i>
    <i name="e_0_energy">    -24.03214361 </i>
   </energy>
  </scstep>
  <scstep>
   <time name="diag">    0.45    0.45</time>
   <time name="diis">    1.49    1.49</time>
   <time name="orth">    0.01    0.01</time>
   <time name="total">    3.74    3.75</time>
   <energy>
    <i name="e_fr_energy">    -24.02367827 </i>
    <i name="e_wo_entrp">    -24.04915993 </i>
    <i name="e_0_energy">    -24.03217216 </i>
   </energy>
  </scstep>
  <scstep>
   <time name="diag">    0.47    0.47</time>
   <time name="diis">    1.41    1.42</time>
   <time name="orth">    0.01    0.01</time>
   <time name="total">    3.68    3.68</time>
   <energy>
    <i name="e_fr_energy">    -24.02370239 </i>
    <i name="e_wo_entrp">    -24.04916964 </i>
    <i name="e_0_energy">    -24.03219147 </i>
   </energy>
  </scstep>
  <scstep>
   <time name="diag">    0.47    0.47</time>
   <time name="diis">    1.45    1.45</time>
   <time name="orth">    0.01    0.01</time>
   <time name="total">    3.76    3.76</time>
   <energy>
    <i name="e_fr_energy">    -24.02371205 </i>
    <i name="e_wo_entrp">    -24.04918776 </i>
    <i name="e_0_energy">    -24.03220395 </i>
   </energy>
  </scstep>
  <scstep>
   <time name="diag">    0.47    0.47</time>
   <time name="diis">    1.14    1.14</time>
   <time name="orth">    0.01    0.01</time>
   <time name="total">    3.47    3.48</time>
   <energy>
    <i name="e_fr_energy">    -24.02371988 </i>
    <i name="e_wo_entrp">    -24.04919569 </i>
    <i name="e_0_energy">    -24.03221182 </i>
   </energy>
  </scstep>
  <scstep>
   <time name="diag">    0.46    0.46</time>
   <time name="diis">    1.17    1.17</time>
   <time name="orth">    0.01    0.01</time>
   <time name="total">    3.51    3.52</time>
   <energy>
    <i name="e_fr_energy">    -24.02372200 </i>
    <i name="e_wo_entrp">    -24.04919690 </i>
    <i name="e_0_energy">    -24.03221363 </i>
   </energy>
  </scstep>
  <scstep>
   <time name="diag">    0.46    0.46</time>
   <time name="diis">    1.20    1.20</time>
   <time name="orth">    0.01    0.01</time>
   <time name="total">    3.52    3.53</time>
   <energy>
    <i name="e_fr_energy">    -24.02372315 </i>
    <i name="e_wo_entrp">    -24.04920201 </i>
    <i name="e_0_energy">    -24.03221610 </i>
   </energy>
  </scstep>
  <scstep>
   <time name="diag">    0.44    0.44</time>
   <time name="diis">    1.15    1.16</time>
   <time name="orth">    0.01    0.01</time>
   <time name="total">    3.22    3.22</time>
   <energy>
    <i name="alphaZ">      0.24747450 </i>
    <i name="ewald">    128.05110109 </i>
    <i name="hartreedc">   -283.83584519 </i>
    <i name="XCdc">     24.75274806 </i>
    <i name="pawpsdc">    424.46337334 </i>
    <i name="pawaedc">   -425.25198477 </i>
    <i name="eentropy">      0.02548043 </i>
    <i name="bandstr">    -89.51782569 </i>
    <i name="atom">    197.04175453 </i>
    <i name="e_fr_energy">    -24.02372370 </i>
    <i name="e_wo_entrp">    -24.04920412 </i>
    <i name="e_0_energy">    -24.03221717 </i>
   </energy>
  </scstep>
  <structure>
   <crystal>
    <varray name="basis" >
     <v>       9.91397100       0.00000000       0.00000000 </v>
     <v>      -0.15987770       9.78291969       0.00000000 </v>
     <v>       0.08614104      -0.02072355      10.09296132 </v>
    </varray>
    <i name="volume">    978.89191515 </i>
    <varray name="rec_basis" >
     <v>       0.10086776       0.00164843      -0.00085750 </v>
     <v>      -0.00000000       0.10221897       0.00020988 </v>
     <v>       0.00000000      -0.00000000       0.09907895 </v>
    </varray>
   </crystal>
   <varray name="positions" >
    <v>       0.53696552       0.40699533       0.36032662 </v>
    <v>       0.39664983       0.48125168       0.43649327 </v>
    <v>       0.55367563       0.56875892       0.44167775 </v>
    <v>       0.53029643       0.41675813       0.54008032 </v>
    <v>       0.50242336       0.46693093       0.44558860 </v>
   </varray>
  </structure>
  <varray name="forces" >
   <v>      -0.33622765       0.45985073      -0.01733448 </v>
   <v>      -0.80640541       0.11821541      -0.03879463 </v>
   <v>      -0.16055325      -0.16145046       0.41178423 </v>
   <v>      -0.60174581      -0.10036440      -0.18916196 </v>
   <v>       0.61171035       0.92555278      -0.45250190 </v>
  </varray>
  <varray name="stress" >
   <v>       1.02710408      -0.41613326      -0.11405696 </v>
   <v>      -0.41613326      -1.47069334       0.17099161 </v>
   <v>      -0.11405697       0.17099161      -1.05927483 </v>
  </varray>
  <energy>
   <i name="e_fr_energy">    -24.02372370 </i>
   <i name="e_wo_entrp">    -24.03221717 </i>
   <i name="e_0_energy">      0.02548043 </i>
   <i name="kinetic">      0.03102485 </i>
   <i name="lattice kinetic">      0.00000000 </i>
   <i name="nosepot">     -0.00000026 </i>
   <i name="nosekinetic">      0.00000317 </i>
   <i name="total">    -23.99269593 </i>
  </energy>
  <dos>
   <i name="efermi">     -9.01618785 </i>
   <total>
    <array>
     <dimension dim="1">gridpoints</dimension>
     <dimension dim="2">spin</dimension>
     <field>energy</field>
     <field>total</field>
     <field>integrated</field>
     <set>
      <set comment="spin 1">
       <r>   -18.9060     0.0000     0.0000 </r>
       <r>   -18.8339     0.0000     0.0000 </r>
       <r>   -18.7618     0.0000     0.0000 </r>
       <r>   -18.6897     0.0000     0.0000 </r>
       <r>   -18.6177     0.0000     0.0000 </r>
       <r>   -18.5456    -0.0000    -0.0000 </r>
       <r>   -18.4735    -0.0000    -0.0000 </r>
       <r>   -18.4014    -0.0000    -0.0000 </r>
       <r>   -18.3293    -0.0000    -0.0000 </r>
       <r>   -18.2572    -0.0000    -0.0000 </r>
       <r>   -18.1851    -0.0000    -0.0000 </r>
       <r>   -18.1130    -0.0000    -0.0000 </r>
       <r>   -18.0409    -0.0000    -0.0000 </r>
       <r>   -17.9688    -0.0000    -0.0000 </r>
       <r>   -17.8967    -0.0000    -0.0000 </r>
       <r>   -17.8246    -0.0000    -0.0000 </r>
       <r>   -17.7525    -0.0000    -0.0000 </r>
       <r>   -17.6804    -0.0000    -0.0000 </r>
       <r>   -17.6083    -0.0001    -0.0000 </r>
       <r>   -17.5362    -0.0010    -0.0001 </r>
       <r>   -17.4641    -0.0069    -0.0006 </r>
       <r>   -17.3920    -0.0357    -0.0032 </r>
       <r>   -17.3199    -0.1324    -0.0127 </r>
       <r>   -17.2478    -0.3277    -0.0363 </r>
       <r>   -17.1757    -0.4249    -0.0670 </r>
       <r>   -17.1036     0.2678    -0.0476 </r>
       <r>   -17.0315     2.5492     0.1361 </r>
       <r>   -16.9594     5.9566     0.5656 </r>
       <r>   -16.8873     8.2115     1.1576 </r>
       <r>   -16.8152     7.3518     1.6877 </r>
       <r>   -16.7431     4.1566     1.9874 </r>
       <r>   -16.6710     1.1477     2.0701 </r>
       <r>   -16.5989    -0.2499     2.0521 </r>
       <r>   -16.5268    -0.4167     2.0220 </r>
       <r>   -16.4547    -0.2169     2.0064 </r>
       <r>   -16.3826    -0.0701     2.0014 </r>
       <r>   -16.3105    -0.0158     2.0002 </r>
       <r>   -16.2384    -0.0026     2.0000 </r>
       <r>   -16.1663    -0.0003     2.0000 </r>
       <r>   -16.0942    -0.0000     2.0000 </r>
       <r>   -16.0221    -0.0000     2.0000 </r>
       <r>   -15.9500    -0.0000     2.0000 </r>
       <r>   -15.8779    -0.0000     2.0000 </r>
       <r>   -15.8058    -0.0000     2.0000 </r>
       <r>   -15.7337    -0.0000     2.0000 </r>
       <r>   -15.6616    -0.0000     2.0000 </r>
       <r>   -15.5895     0.0000     2.0000 </r>
       <r>   -15.5174     0.0000     2.0000 </r>
       <r>   -15.4454     0.0000     2.0000 </r>
       <r>   -15.3733     0.0000     2.0000 </r>
       <r>   -15.3012     0.0000     2.0000 </r>
       <r>   -15.2291     0.0000     2.0000 </r>
       <r>   -15.1570     0.0000     2.0000 </r>
       <r>   -15.0849     0.0000     2.0000 </r>
       <r>   -15.0128     0.0000     2.0000 </r>
       <r>   -14.9407     0.0000     2.0000 </r>
       <r>   -14.8686     0.0000     2.0000 </r>
       <r>   -14.7965     0.0000     2.0000 </r>
       <r>   -14.7244     0.0000     2.0000 </r>
       <r>   -14.6523     0.0000     2.0000 </r>
       <r>   -14.5802     0.0000     2.0000 </r>
       <r>   -14.5081     0.0000     2.0000 </r>
       <r>   -14.4360     0.0000     2.0000 </r>
       <r>   -14.3639     0.0000     2.0000 </r>
       <r>   -14.2918     0.0000     2.0000 </r>
       <r>   -14.2197     0.0000     2.0000 </r>
       <r>   -14.1476     0.0000     2.0000 </r>
       <r>   -14.0755     0.0000     2.0000 </r>
       <r>   -14.0034     0.0000     2.0000 </r>
       <r>   -13.9313     0.0000     2.0000 </r>
       <r>   -13.8592     0.0000     2.0000 </r>
       <r>   -13.7871     0.0000     2.0000 </r>
       <r>   -13.7150     0.0000     2.0000 </r>
       <r>   -13.6429     0.0000     2.0000 </r>
       <r>   -13.5708     0.0000     2.0000 </r>
       <r>   -13.4987     0.0000     2.0000 </r>
       <r>   -13.4266     0.0000     2.0000 </r>
       <r>   -13.3545     0.0000     2.0000 </r>
       <r>   -13.2824     0.0000     2.0000 </r>
       <r>   -13.2103     0.0000     2.0000 </r>
       <r>   -13.1382     0.0000     2.0000 </r>
       <r>   -13.0661     0.0000     2.0000 </r>
       <r>   -12.9940     0.0000     2.0000 </r>
       <r>   -12.9219     0.0000     2.0000 </r>
       <r>   -12.8498     0.0000     2.0000 </r>
       <r>   -12.7777     0.0000     2.0000 </r>
       <r>   -12.7056     0.0000     2.0000 </r>
       <r>   -12.6335     0.0000     2.0000 </r>
       <r>   -12.5614     0.0000     2.0000 </r>
       <r>   -12.4893     0.0000     2.0000 </r>
       <r>   -12.4172     0.0000     2.0000 </r>
       <r>   -12.3452     0.0000     2.0000 </r>
       <r>   -12.2731     0.0000     2.0000 </r>
       <r>   -12.2010     0.0000     2.0000 </r>
       <r>   -12.1289     0.0000     2.0000 </r>
       <r>   -12.0568     0.0000     2.0000 </r>
       <r>   -11.9847     0.0000     2.0000 </r>
       <r>   -11.9126     0.0000     2.0000 </r>
       <r>   -11.8405     0.0000     2.0000 </r>
       <r>   -11.7684     0.0000     2.0000 </r>
       <r>   -11.6963     0.0000     2.0000 </r>
       <r>   -11.6242     0.0000     2.0000 </r>
       <r>   -11.5521     0.0000     2.0000 </r>
       <r>   -11.4800     0.0000     2.0000 </r>
       <r>   -11.4079     0.0000     2.0000 </r>
       <r>   -11.3358     0.0000     2.0000 </r>
       <r>   -11.2637     0.0000     2.0000 </r>
       <r>   -11.1916     0.0000     2.0000 </r>
       <r>   -11.1195    -0.0000     2.0000 </r>
       <r>   -11.0474    -0.0000     2.0000 </r>
       <r>   -10.9753    -0.0000     2.0000 </r>
       <r>   -10.9032    -0.0000     2.0000 </r>
       <r>   -10.8311    -0.0000     2.0000 </r>
       <r>   -10.7590    -0.0000     2.0000 </r>
       <r>   -10.6869    -0.0000     2.0000 </r>
       <r>   -10.6148    -0.0000     2.0000 </r>
       <r>   -10.5427    -0.0000     2.0000 </r>
       <r>   -10.4706    -0.0000     2.0000 </r>
       <r>   -10.3985    -0.0000     2.0000 </r>
       <r>   -10.3264    -0.0000     2.0000 </r>
       <r>   -10.2543    -0.0000     2.0000 </r>
       <r>   -10.1822    -0.0001     2.0000 </r>
       <r>   -10.1101    -0.0010     1.9999 </r>
       <r>   -10.0380    -0.0068     1.9994 </r>
       <r>    -9.9659    -0.0354     1.9969 </r>
       <r>    -9.8938    -0.1318     1.9874 </r>
       <r>    -9.8217    -0.3284     1.9637 </r>
       <r>    -9.7496    -0.4386     1.9321 </r>
       <r>    -9.6775     0.1931     1.9460 </r>
       <r>    -9.6054     2.2835     2.1106 </r>
       <r>    -9.5333     5.3175     2.4940 </r>
       <r>    -9.4612     7.3760     3.0258 </r>
       <r>    -9.3891     7.7800     3.5867 </r>
       <r>    -9.3170     8.8786     4.2269 </r>
       <r>    -9.2450    12.5084     5.1287 </r>
       <r>    -9.1729    15.8546     6.2718 </r>
       <r>    -9.1008    14.5015     7.3173 </r>
       <r>    -9.0287     8.6442     7.9405 </r>
       <r>    -8.9566     2.6764     8.1335 </r>
       <r>    -8.8845    -0.3411     8.1089 </r>
       <r>    -8.8124    -0.8349     8.0487 </r>
       <r>    -8.7403    -0.4693     8.0149 </r>
       <r>    -8.6682    -0.1605     8.0033 </r>
       <r>    -8.5961    -0.0381     8.0005 </r>
       <r>    -8.5240    -0.0066     8.0001 </r>
       <r>    -8.4519    -0.0008     8.0000 </r>
       <r>    -8.3798    -0.0001     8.0000 </r>
       <r>    -8.3077    -0.0000     8.0000 </r>
       <r>    -8.2356    -0.0000     8.0000 </r>
       <r>    -8.1635    -0.0000     8.0000 </r>
       <r>    -8.0914    -0.0000     8.0000 </r>
       <r>    -8.0193    -0.0000     8.0000 </r>
       <r>    -7.9472    -0.0000     8.0000 </r>
       <r>    -7.8751     0.0000     8.0000 </r>
       <r>    -7.8030     0.0000     8.0000 </r>
       <r>    -7.7309     0.0000     8.0000 </r>
       <r>    -7.6588     0.0000     8.0000 </r>
       <r>    -7.5867     0.0000     8.0000 </r>
       <r>    -7.5146     0.0000     8.0000 </r>
       <r>    -7.4425     0.0000     8.0000 </r>
       <r>    -7.3704     0.0000     8.0000 </r>
       <r>    -7.2983     0.0000     8.0000 </r>
       <r>    -7.2262     0.0000     8.0000 </r>
       <r>    -7.1541     0.0000     8.0000 </r>
       <r>    -7.0820     0.0000     8.0000 </r>
       <r>    -7.0099     0.0000     8.0000 </r>
       <r>    -6.9378     0.0000     8.0000 </r>
       <r>    -6.8657     0.0000     8.0000 </r>
       <r>    -6.7936     0.0000     8.0000 </r>
       <r>    -6.7215     0.0000     8.0000 </r>
       <r>    -6.6494     0.0000     8.0000 </r>
       <r>    -6.5773     0.0000     8.0000 </r>
       <r>    -6.5052     0.0000     8.0000 </r>
       <r>    -6.4331     0.0000     8.0000 </r>
       <r>    -6.3610     0.0000     8.0000 </r>
       <r>    -6.2889     0.0000     8.0000 </r>
       <r>    -6.2168     0.0000     8.0000 </r>
       <r>    -6.1448     0.0000     8.0000 </r>
       <r>    -6.0727     0.0000     8.0000 </r>
       <r>    -6.0006     0.0000     8.0000 </r>
       <r>    -5.9285     0.0000     8.0000 </r>
       <r>    -5.8564     0.0000     8.0000 </r>
       <r>    -5.7843     0.0000     8.0000 </r>
       <r>    -5.7122     0.0000     8.0000 </r>
       <r>    -5.6401     0.0000     8.0000 </r>
       <r>    -5.5680     0.0000     8.0000 </r>
       <r>    -5.4959     0.0000     8.0000 </r>
       <r>    -5.4238     0.0000     8.0000 </r>
       <r>    -5.3517     0.0000     8.0000 </r>
       <r>    -5.2796     0.0000     8.0000 </r>
       <r>    -5.2075     0.0000     8.0000 </r>
       <r>    -5.1354     0.0000     8.0000 </r>
       <r>    -5.0633     0.0000     8.0000 </r>
       <r>    -4.9912     0.0000     8.0000 </r>
       <r>    -4.9191     0.0000     8.0000 </r>
       <r>    -4.8470     0.0000     8.0000 </r>
       <r>    -4.7749     0.0000     8.0000 </r>
       <r>    -4.7028     0.0000     8.0000 </r>
       <r>    -4.6307     0.0000     8.0000 </r>
       <r>    -4.5586     0.0000     8.0000 </r>
       <r>    -4.4865     0.0000     8.0000 </r>
       <r>    -4.4144     0.0000     8.0000 </r>
       <r>    -4.3423     0.0000     8.0000 </r>
       <r>    -4.2702     0.0000     8.0000 </r>
       <r>    -4.1981     0.0000     8.0000 </r>
       <r>    -4.1260     0.0000     8.0000 </r>
       <r>    -4.0539     0.0000     8.0000 </r>
       <r>    -3.9818     0.0000     8.0000 </r>
       <r>    -3.9097     0.0000     8.0000 </r>
       <r>    -3.8376     0.0000     8.0000 </r>
       <r>    -3.7655     0.0000     8.0000 </r>
       <r>    -3.6934     0.0000     8.0000 </r>
       <r>    -3.6213     0.0000     8.0000 </r>
       <r>    -3.5492     0.0000     8.0000 </r>
       <r>    -3.4771     0.0000     8.0000 </r>
       <r>    -3.4050     0.0000     8.0000 </r>
       <r>    -3.3329     0.0000     8.0000 </r>
       <r>    -3.2608     0.0000     8.0000 </r>
       <r>    -3.1887     0.0000     8.0000 </r>
       <r>    -3.1166     0.0000     8.0000 </r>
       <r>    -3.0446     0.0000     8.0000 </r>
       <r>    -2.9725     0.0000     8.0000 </r>
       <r>    -2.9004     0.0000     8.0000 </r>
       <r>    -2.8283     0.0000     8.0000 </r>
       <r>    -2.7562     0.0000     8.0000 </r>
       <r>    -2.6841     0.0000     8.0000 </r>
       <r>    -2.6120     0.0000     8.0000 </r>
       <r>    -2.5399     0.0000     8.0000 </r>
       <r>    -2.4678     0.0000     8.0000 </r>
       <r>    -2.3957     0.0000     8.0000 </r>
       <r>    -2.3236     0.0000     8.0000 </r>
       <r>    -2.2515     0.0000     8.0000 </r>
       <r>    -2.1794     0.0000     8.0000 </r>
       <r>    -2.1073     0.0000     8.0000 </r>
       <r>    -2.0352     0.0000     8.0000 </r>
       <r>    -1.9631    -0.0000     8.0000 </r>
       <r>    -1.8910    -0.0000     8.0000 </r>
       <r>    -1.8189    -0.0000     8.0000 </r>
       <r>    -1.7468    -0.0000     8.0000 </r>
       <r>    -1.6747    -0.0000     8.0000 </r>
       <r>    -1.6026    -0.0000     8.0000 </r>
       <r>    -1.5305    -0.0000     8.0000 </r>
       <r>    -1.4584    -0.0000     8.0000 </r>
       <r>    -1.3863    -0.0000     8.0000 </r>
       <r>    -1.3142    -0.0000     8.0000 </r>
       <r>    -1.2421    -0.0000     8.0000 </r>
       <r>    -1.1700    -0.0000     8.0000 </r>
       <r>    -1.0979    -0.0000     8.0000 </r>
       <r>    -1.0258    -0.0001     8.0000 </r>
       <r>    -0.9537    -0.0007     7.9999 </r>
       <r>    -0.8816    -0.0052     7.9996 </r>
       <r>    -0.8095    -0.0283     7.9975 </r>
       <r>    -0.7374    -0.1109     7.9895 </r>
       <r>    -0.6653    -0.2943     7.9683 </r>
       <r>    -0.5932    -0.4378     7.9367 </r>
       <r>    -0.5211     0.0722     7.9419 </r>
       <r>    -0.4490     2.0905     8.0927 </r>
       <r>    -0.3769     5.4381     8.4847 </r>
       <r>    -0.3048     8.0428     9.0646 </r>
       <r>    -0.2327     7.6885     9.6189 </r>
       <r>    -0.1606     4.6976     9.9576 </r>
       <r>    -0.0885     1.5162    10.0669 </r>
       <r>    -0.0164    -0.1404    10.0568 </r>
       <r>     0.0556    -0.4510    10.0243 </r>
       <r>     0.1277    -0.3329    10.0003 </r>
       <r>     0.1998    -0.3688     9.9737 </r>
       <r>     0.2719    -0.6705     9.9254 </r>
       <r>     0.3440    -0.8252     9.8659 </r>
       <r>     0.4161     0.3761     9.8930 </r>
       <r>     0.4882     4.5099    10.2181 </r>
       <r>     0.5603    11.7169    11.0629 </r>
       <r>     0.6324    19.0414    12.4357 </r>
       <r>     0.7045    21.7521    14.0040 </r>
       <r>     0.7766    17.6413    15.2759 </r>
       <r>     0.8487     9.5912    15.9674 </r>
       <r>     0.9208     2.6971    16.1619 </r>
       <r>     0.9929    -0.5104    16.1251 </r>
       <r>     1.0650    -0.9644    16.0556 </r>
       <r>     1.1371    -0.5334    16.0171 </r>
       <r>     1.2092    -0.1838    16.0038 </r>
       <r>     1.2813    -0.0444    16.0006 </r>
       <r>     1.3534    -0.0078    16.0001 </r>
       <r>     1.4255    -0.0010    16.0000 </r>
       <r>     1.4976    -0.0001    16.0000 </r>
       <r>     1.5697    -0.0000    16.0000 </r>
       <r>     1.6418    -0.0000    16.0000 </r>
       <r>     1.7139    -0.0000    16.0000 </r>
       <r>     1.7860    -0.0000    16.0000 </r>
       <r>     1.8581    -0.0000    16.0000 </r>
       <r>     1.9302    -0.0000    16.0000 </r>
       <r>     2.0023    -0.0000    16.0000 </r>
       <r>     2.0744     0.0000    16.0000 </r>
       <r>     2.1465     0.0000    16.0000 </r>
       <r>     2.2186     0.0000    16.0000 </r>
       <r>     2.2907     0.0000    16.0000 </r>
       <r>     2.3628     0.0000    16.0000 </r>
       <r>     2.4349     0.0000    16.0000 </r>
       <r>     2.5070     0.0000    16.0000 </r>
       <r>     2.5791     0.0000    16.0000 </r>
       <r>     2.6512     0.0000    16.0000 </r>
       <r>     2.7233     0.0000    16.0000 </r>
      </set>
     </set>
    </array>
   </total>
  </dos>
  <time name="totalsc">   62.06   62.21</time>
 </calculation>
 <calculation>
  <scstep>
   <time name="dav">    1.99    1.99</time>
   <time name="total">    3.80    3.81</time>
   <energy>
    <i name="alphaZ">      0.24747450 </i>
    <i name="ewald">    127.01328819 </i>
    <i name="hartreedc">   -283.05596157 </i>
    <i name="XCdc">     24.71353496 </i>
    <i name="pawpsdc">    420.85265057 </i>
    <i name="pawaedc">   -421.63994731 </i>
    <i name="eentropy">      0.02551544 </i>
    <i name="bandstr">    -89.20307133 </i>
    <i name="atom">    197.04175453 </i>
    <i name="e_fr_energy">    -24.00476202 </i>
    <i name="e_wo_entrp">    -24.03027745 </i>
    <i name="e_0_energy">    -24.01326716 </i>
   </energy>
  </scstep>
  <scstep>
   <time name="diag">    0.46    0.47</time>
   <time name="diis">    1.51    1.51</time>
   <time name="orth">    0.01    0.01</time>
   <time name="total">    3.71    3.72</time>
   <energy>
    <i name="e_fr_energy">    -24.00305601 </i>
    <i name="e_wo_entrp">    -24.02855453 </i>
    <i name="e_0_energy">    -24.01155552 </i>
   </energy>
  </scstep>
  <scstep>
   <time name="diag">    0.44    0.45</time>
   <time name="diis">    1.48    1.48</time>
   <time name="orth">    0.01    0.01</time>
   <time name="total">    3.70    3.70</time>
   <energy>
    <i name="e_fr_energy">    -24.01111517 </i>
    <i name="e_wo_entrp">    -24.03575803 </i>
    <i name="e_0_energy">    -24.01932946 </i>
   </energy>
  </scstep>
  <scstep>
   <time name="diag">    0.43    0.43</time>
   <time name="diis">    1.47    1.47</time>
   <time name="orth">    0.01    0.01</time>
   <time name="total">    3.69    3.69</time>
   <energy>
    <i name="e_fr_energy">    -24.00335104 </i>
    <i name="e_wo_entrp">    -24.02901873 </i>
    <i name="e_0_energy">    -24.01190694 </i>
   </energy>
  </scstep>
  <scstep>
   <time name="diag">    0.46    0.46</time>
   <time name="diis">    1.51    1.51</time>
   <time name="orth">    0.01    0.01</time>
   <time name="total">    3.75    3.76</time>
   <energy>
    <i name="e_fr_energy">    -24.00450124 </i>
    <i name="e_wo_entrp">    -24.03035723 </i>
    <i name="e_0_energy">    -24.01311990 </i>
   </energy>
  </scstep>
  <scstep>
   <time name="diag">    0.47    0.47</time>
   <time name="diis">    1.49    1.49</time>
   <time name="orth">    0.01    0.01</time>
   <time name="total">    3.75    3.75</time>
   <energy>
    <i name="e_fr_energy">    -24.00476391 </i>
    <i name="e_wo_entrp">    -24.03063489 </i>
    <i name="e_0_energy">    -24.01338757 </i>
   </energy>
  </scstep>
  <scstep>
   <time name="diag">    0.45    0.45</time>
   <time name="diis">    1.48    1.48</time>
   <time name="orth">    0.01    0.01</time>
   <time name="total">    3.77    3.77</time>
   <energy>
    <i name="e_fr_energy">    -24.00488450 </i>
    <i name="e_wo_entrp">    -24.03073330 </i>
    <i name="e_0_energy">    -24.01350076 </i>
   </energy>
  </scstep>
  <scstep>
   <time name="diag">    0.45    0.45</time>
   <time name="diis">    1.52    1.52</time>
   <time name="orth">    0.01    0.01</time>
   <time name="total">    3.82    3.83</time>
   <energy>
    <i name="e_fr_energy">    -24.00492547 </i>
    <i name="e_wo_entrp">    -24.03074553 </i>
    <i name="e_0_energy">    -24.01353215 </i>
   </energy>
  </scstep>
  <scstep>
   <time name="diag">    0.43    0.44</time>
   <time name="diis">    1.54    1.54</time>
   <time name="orth">    0.01    0.01</time>
   <time name="total">    3.85    3.86</time>
   <energy>
    <i name="e_fr_energy">    -24.00494723 </i>
    <i name="e_wo_entrp">    -24.03077039 </i>
    <i name="e_0_energy">    -24.01355495 </i>
   </energy>
  </scstep>
  <scstep>
   <time name="diag">    0.43    0.43</time>
   <time name="diis">    1.43    1.44</time>
   <time name="orth">    0.01    0.01</time>
   <time name="total">    3.71    3.72</time>
   <energy>
    <i name="e_fr_energy">    -24.00495942 </i>
    <i name="e_wo_entrp">    -24.03079624 </i>
    <i name="e_0_energy">    -24.01357170 </i>
   </energy>
  </scstep>
  <scstep>
   <time name="diag">    0.43    0.43</time>
   <time name="diis">    1.51    1.51</time>
   <time name="orth">    0.01    0.01</time>
   <time name="total">    3.80    3.81</time>
   <energy>
    <i name="e_fr_energy">    -24.00496577 </i>
    <i name="e_wo_entrp">    -24.03080827 </i>
    <i name="e_0_energy">    -24.01357993 </i>
   </energy>
  </scstep>
  <scstep>
   <time name="diag">    0.45    0.46</time>
   <time name="diis">    1.19    1.19</time>
   <time name="orth">    0.01    0.01</time>
   <time name="total">    3.54    3.55</time>
   <energy>
    <i name="e_fr_energy">    -24.00497002 </i>
    <i name="e_wo_entrp">    -24.03081680 </i>
    <i name="e_0_energy">    -24.01358562 </i>
   </energy>
  </scstep>
  <scstep>
   <time name="diag">    0.46    0.46</time>
   <time name="diis">    1.15    1.15</time>
   <time name="orth">    0.01    0.01</time>
   <time name="total">    3.57    3.58</time>
   <energy>
    <i name="e_fr_energy">    -24.00497204 </i>
    <i name="e_wo_entrp">    -24.03082115 </i>
    <i name="e_0_energy">    -24.01358841 </i>
   </energy>
  </scstep>
  <scstep>
   <time name="diag">    0.46    0.46</time>
   <time name="diis">    1.15    1.16</time>
   <time name="orth">    0.01    0.01</time>
   <time name="total">    3.26    3.27</time>
   <energy>
    <i name="alphaZ">      0.24747450 </i>
    <i name="ewald">    127.01328819 </i>
    <i name="hartreedc">   -282.92701550 </i>
    <i name="XCdc">     24.70549654 </i>
    <i name="pawpsdc">    427.81682086 </i>
    <i name="pawaedc">   -428.60267269 </i>
    <i name="eentropy">      0.02584964 </i>
    <i name="bandstr">    -89.32596871 </i>
    <i name="atom">    197.04175453 </i>
    <i name="e_fr_energy">    -24.00497263 </i>
    <i name="e_wo_entrp">    -24.03082227 </i>
    <i name="e_0_energy">    -24.01358918 </i>
   </energy>
  </scstep>
  <structure>
   <crystal>
    <varray name="basis" >
     <v>       9.91397100       0.00000000       0.00000000 </v>
     <v>      -0.15987770       9.78291969       0.00000000 </v>
     <v>       0.08614104      -0.02072355      10.09296132 </v>
    </varray>
    <i name="volume">    978.89191515 </i>
    <varray name="rec_basis" >
     <v>       0.10086776       0.00164843      -0.00085750 </v>
     <v>      -0.00000000       0.10221897       0.00020988 </v>
     <v>       0.00000000      -0.00000000       0.09907895 </v>
    </varray>
   </crystal>
   <varray name="positions" >
    <v>       0.53441365       0.40883020       0.36016512 </v>
    <v>       0.39624206       0.48260851       0.43505097 </v>
    <v>       0.55505282       0.57111887       0.44230620 </v>
    <v>       0.53039398       0.41663417       0.54010895 </v>
    <v>       0.50254699       0.46647903       0.44566742 </v>
   </varray>
  </structure>
  <varray name="forces" >
   <v>       0.50047435       0.32059714      -0.29377988 </v>
   <v>      -0.13460639      -0.14658712       0.46600284 </v>
   <v>      -0.25503977      -0.64197660       0.43144097 </v>
   <v>      -0.56548451      -0.12051596      -0.16759417 </v>
   <v>       0.42762582       1.78647902      -0.48199271 </v>
  </varray>
  <varray name="stress" >
   <v>       0.31976393      -0.98913545      -0.82929045 </v>
   <v>      -0.98913544      -2.15395753       0.39430663 </v>
   <v>      -0.82929045       0.39430663      -0.78521182 </v>
  </varray>
  <energy>
   <i name="e_fr_energy">    -24.00497263 </i>
   <i name="e_wo_entrp">    -24.01358918 </i>
   <i name="e_0_energy">      0.02584964 </i>
   <i name="kinetic">      0.02125269 </i>
   <i name="lattice kinetic">      0.00000000 </i>
   <i name="nosepot">      0.00012704 </i>
   <i name="nosekinetic">      0.00000389 </i>
   <i name="total">    -23.98358901 </i>
  </energy>
  <dos>
   <i name="efermi">     -8.93385965 </i>
   <total>
    <array>
     <dimension dim="1">gridpoints</dimension>
     <dimension dim="2">spin</dimension>
     <field>energy</field>
     <field>total</field>
     <field>integrated</field>
     <set>
      <set comment="spin 1">
       <r>   -18.8681     0.0000     0.0000 </r>
       <r>   -18.7961     0.0000     0.0000 </r>
       <r>   -18.7242     0.0000     0.0000 </r>
       <r>   -18.6522     0.0000     0.0000 </r>
       <r>   -18.5803     0.0000     0.0000 </r>
       <r>   -18.5083    -0.0000    -0.0000 </r>
       <r>   -18.4363    -0.0000    -0.0000 </r>
       <r>   -18.3644    -0.0000    -0.0000 </r>
       <r>   -18.2924    -0.0000    -0.0000 </r>
       <r>   -18.2205    -0.0000    -0.0000 </r>
       <r>   -18.1485    -0.0000    -0.0000 </r>
       <r>   -18.0766    -0.0000    -0.0000 </r>
       <r>   -18.0046    -0.0000    -0.0000 </r>
       <r>   -17.9326    -0.0000    -0.0000 </r>
       <r>   -17.8607    -0.0000    -0.0000 </r>
       <r>   -17.7887    -0.0000    -0.0000 </r>
       <r>   -17.7168    -0.0000    -0.0000 </r>
       <r>   -17.6448    -0.0000    -0.0000 </r>
       <r>   -17.5729    -0.0001    -0.0000 </r>
       <r>   -17.5009    -0.0009    -0.0001 </r>
       <r>   -17.4289    -0.0064    -0.0005 </r>
       <r>   -17.3570    -0.0336    -0.0030 </r>
       <r>   -17.2850    -0.1263    -0.0120 </r>
       <r>   -17.2131    -0.3182    -0.0349 </r>
       <r>   -17.1411    -0.4306    -0.0659 </r>
       <r>   -17.0692     0.2023    -0.0514 </r>
       <r>   -16.9972     2.3966     0.1211 </r>
       <r>   -16.9252     5.7849     0.5373 </r>
       <r>   -16.8533     8.1625     1.1247 </r>
       <r>   -16.7813     7.4818     1.6631 </r>
       <r>   -16.7094     4.3589     1.9767 </r>
       <r>   -16.6374     1.2851     2.0692 </r>
       <r>   -16.5655    -0.2091     2.0541 </r>
       <r>   -16.4935    -0.4245     2.0236 </r>
       <r>   -16.4215    -0.2301     2.0070 </r>
       <r>   -16.3496    -0.0766     2.0015 </r>
       <r>   -16.2776    -0.0177     2.0002 </r>
       <r>   -16.2057    -0.0030     2.0000 </r>
       <r>   -16.1337    -0.0004     2.0000 </r>
       <r>   -16.0618    -0.0000     2.0000 </r>
       <r>   -15.9898    -0.0000     2.0000 </r>
       <r>   -15.9178    -0.0000     2.0000 </r>
       <r>   -15.8459    -0.0000     2.0000 </r>
       <r>   -15.7739    -0.0000     2.0000 </r>
       <r>   -15.7020    -0.0000     2.0000 </r>
       <r>   -15.6300    -0.0000     2.0000 </r>
       <r>   -15.5581     0.0000     2.0000 </r>
       <r>   -15.4861     0.0000     2.0000 </r>
       <r>   -15.4141     0.0000     2.0000 </r>
       <r>   -15.3422     0.0000     2.0000 </r>
       <r>   -15.2702     0.0000     2.0000 </r>
       <r>   -15.1983     0.0000     2.0000 </r>
       <r>   -15.1263     0.0000     2.0000 </r>
       <r>   -15.0544     0.0000     2.0000 </r>
       <r>   -14.9824     0.0000     2.0000 </r>
       <r>   -14.9104     0.0000     2.0000 </r>
       <r>   -14.8385     0.0000     2.0000 </r>
       <r>   -14.7665     0.0000     2.0000 </r>
       <r>   -14.6946     0.0000     2.0000 </r>
       <r>   -14.6226     0.0000     2.0000 </r>
       <r>   -14.5507     0.0000     2.0000 </r>
       <r>   -14.4787     0.0000     2.0000 </r>
       <r>   -14.4067     0.0000     2.0000 </r>
       <r>   -14.3348     0.0000     2.0000 </r>
       <r>   -14.2628     0.0000     2.0000 </r>
       <r>   -14.1909     0.0000     2.0000 </r>
       <r>   -14.1189     0.0000     2.0000 </r>
       <r>   -14.0470     0.0000     2.0000 </r>
       <r>   -13.9750     0.0000     2.0000 </r>
       <r>   -13.9030     0.0000     2.0000 </r>
       <r>   -13.8311     0.0000     2.0000 </r>
       <r>   -13.7591     0.0000     2.0000 </r>
       <r>   -13.6872     0.0000     2.0000 </r>
       <r>   -13.6152     0.0000     2.0000 </r>
       <r>   -13.5433     0.0000     2.0000 </r>
       <r>   -13.4713     0.0000     2.0000 </r>
       <r>   -13.3993     0.0000     2.0000 </r>
       <r>   -13.3274     0.0000     2.0000 </r>
       <r>   -13.2554     0.0000     2.0000 </r>
       <r>   -13.1835     0.0000     2.0000 </r>
       <r>   -13.1115     0.0000     2.0000 </r>
       <r>   -13.0396     0.0000     2.0000 </r>
       <r>   -12.9676     0.0000     2.0000 </r>
       <r>   -12.8956     0.0000     2.0000 </r>
       <r>   -12.8237     0.0000     2.0000 </r>
       <r>   -12.7517     0.0000     2.0000 </r>
       <r>   -12.6798     0.0000     2.0000 </r>
       <r>   -12.6078     0.0000     2.0000 </r>
       <r>   -12.5359     0.0000     2.0000 </r>
       <r>   -12.4639     0.0000     2.0000 </r>
       <r>   -12.3919     0.0000     2.0000 </r>
[...]
       <r>     0.2719    -0.7014     9.9193 </r>
       <r>     0.3439    -0.7836     9.8629 </r>
       <r>     0.4159     0.6444     9.9093 </r>
       <r>     0.4879     5.0853    10.2753 </r>
       <r>     0.5598    12.4095    11.1686 </r>
       <r>     0.6318    19.4290    12.5671 </r>
       <r>     0.7038    21.5519    14.1185 </r>
       <r>     0.7758    17.0180    15.3435 </r>
       <r>     0.8478     8.9822    15.9900 </r>
       <r>     0.9197     2.3774    16.1611 </r>
       <r>     0.9917    -0.5779    16.1195 </r>
       <r>     1.0637    -0.9363    16.0521 </r>
       <r>     1.1357    -0.5040    16.0159 </r>
       <r>     1.2077    -0.1712    16.0035 </r>
       <r>     1.2797    -0.0410    16.0006 </r>
       <r>     1.3516    -0.0072    16.0001 </r>
       <r>     1.4236    -0.0009    16.0000 </r>
       <r>     1.4956    -0.0001    16.0000 </r>
       <r>     1.5676    -0.0000    16.0000 </r>
       <r>     1.6396    -0.0000    16.0000 </r>
       <r>     1.7115    -0.0000    16.0000 </r>
       <r>     1.7835    -0.0000    16.0000 </r>
       <r>     1.8555    -0.0000    16.0000 </r>
       <r>     1.9275    -0.0000    16.0000 </r>
       <r>     1.9995    -0.0000    16.0000 </r>
       <r>     2.0715     0.0000    16.0000 </r>
       <r>     2.1434     0.0000    16.0000 </r>
       <r>     2.2154     0.0000    16.0000 </r>
       <r>     2.2874     0.0000    16.0000 </r>
       <r>     2.3594     0.0000    16.0000 </r>
       <r>     2.4314     0.0000    16.0000 </r>
       <r>     2.5033     0.0000    16.0000 </r>
       <r>     2.5753     0.0000    16.0000 </r>
       <r>     2.6473     0.0000    16.0000 </r>
       <r>     2.7193     0.0000    16.0000 </r>
      </set>
     </set>
    </array>
   </total>
  </dos>
  <time name="totalsc">   79.24   80.54</time>
  <eigenvalues>
   <array>
    <dimension dim="1">band</dimension>
    <dimension dim="2">kpoint</dimension>
    <dimension dim="3">spin</dimension>
    <field>eigene</field>
    <field>occ</field>
    <set>
     <set comment="spin 1">
      <set comment="kpoint 1">
       <r>  -16.9511    1.0000 </r>
       <r>   -9.5949    1.0000 </r>
       <r>   -9.3080    1.0030 </r>
       <r>   -9.0187    0.9970 </r>
       <r>   -0.3112    0.0000 </r>
       <r>    0.5684    0.0000 </r>
       <r>    0.6884    0.0000 </r>
       <r>    0.7156    0.0000 </r>
      </set>
      <set comment="kpoint 2">
       <r>  -16.9512    1.0000 </r>
       <r>   -9.5952    1.0000 </r>
       <r>   -9.3081    1.0030 </r>
       <r>   -9.0187    0.9970 </r>
       <r>   -0.3138    0.0000 </r>
       <r>    0.5742    0.0000 </r>
       <r>    0.6850    0.0000 </r>
       <r>    0.7242    0.0000 </r>
      </set>
      <set comment="kpoint 3">
       <r>  -16.9512    1.0000 </r>
       <r>   -9.5950    1.0000 </r>
       <r>   -9.3080    1.0030 </r>
       <r>   -9.0188    0.9971 </r>
       <r>   -0.3156    0.0000 </r>
       <r>    0.5891    0.0000 </r>
       <r>    0.6848    0.0000 </r>
       <r>    0.7183    0.0000 </r>
      </set>
      <set comment="kpoint 4">
       <r>  -16.9511    1.0000 </r>
       <r>   -9.5950    1.0000 </r>
       <r>   -9.3079    1.0030 </r>
       <r>   -9.0187    0.9969 </r>
       <r>   -0.3102    0.0000 </r>
       <r>    0.5751    0.0000 </r>
       <r>    0.6847    0.0000 </r>
       <r>    0.7027    0.0000 </r>
      </set>
     </set>
    </set>
   </array>
  </eigenvalues>
  <separator name="orbital magnetization" >
   <v name="MAGDIPOLOUT">      0.00000000      0.00000000      0.00000000</v>
  </separator>
  <dos>
   <i name="efermi">     -8.85300148 </i>
   <total>
    <array>
     <dimension dim="1">gridpoints</dimension>
     <dimension dim="2">spin</dimension>
     <field>energy</field>
     <field>total</field>
     <field>integrated</field>
     <set>
      <set comment="spin 1">
       <r>   -18.9512     0.0000     0.0000 </r>
       <r>   -18.8789     0.0000     0.0000 </r>
       <r>   -18.8067     0.0000     0.0000 </r>
       <r>   -18.7344     0.0000     0.0000 </r>
       <r>   -18.6622     0.0000     0.0000 </r>
       <r>   -18.5899    -0.0000    -0.0000 </r>
       <r>   -18.5177    -0.0000    -0.0000 </r>
       <r>   -18.4454    -0.0000    -0.0000 </r>
       <r>   -18.3732    -0.0000    -0.0000 </r>
       <r>   -18.3009    -0.0000    -0.0000 </r>
       <r>   -18.2287    -0.0000    -0.0000 </r>
       <r>   -18.1564    -0.0000    -0.0000 </r>
       <r>   -18.0842    -0.0000    -0.0000 </r>
       <r>   -18.0119    -0.0000    -0.0000 </r>
       <r>   -17.9397    -0.0000    -0.0000 </r>
       <r>   -17.8674    -0.0000    -0.0000 </r>
       <r>   -17.7952    -0.0000    -0.0000 </r>
       <r>   -17.7229    -0.0000    -0.0000 </r>
       <r>   -17.6507    -0.0001    -0.0000 </r>
       <r>   -17.5784    -0.0011    -0.0001 </r>
       <r>   -17.5062    -0.0074    -0.0006 </r>
       <r>   -17.4339    -0.0381    -0.0034 </r>
       <r>   -17.3617    -0.1393    -0.0134 </r>
       <r>   -17.2894    -0.3379    -0.0379 </r>
       <r>   -17.2172    -0.4168    -0.0680 </r>
       <r>   -17.1449     0.3432    -0.0432 </r>
       <r>   -17.0727     2.7181     0.1532 </r>
       <r>   -17.0004     6.1390     0.5968 </r>
       <r>   -16.9282     8.2535     1.1931 </r>
       <r>   -16.8559     7.2023     1.7135 </r>
       <r>   -16.7837     3.9384     1.9980 </r>
       <r>   -16.7114     1.0058     2.0707 </r>
       <r>   -16.6392    -0.2887     2.0498 </r>
       <r>   -16.5669    -0.4067     2.0205 </r>
       <r>   -16.4947    -0.2029     2.0058 </r>
       <r>   -16.4224    -0.0636     2.0012 </r>
       <r>   -16.3502    -0.0140     2.0002 </r>
       <r>   -16.2779    -0.0022     2.0000 </r>
       <r>   -16.2056    -0.0003     2.0000 </r>
       <r>   -16.1334    -0.0000     2.0000 </r>
       <r>   -16.0611    -0.0000     2.0000 </r>
       <r>   -15.9889    -0.0000     2.0000 </r>
       <r>   -15.9166    -0.0000     2.0000 </r>
       <r>   -15.8444    -0.0000     2.0000 </r>
       <r>   -15.7721    -0.0000     2.0000 </r>
       <r>   -15.6999    -0.0000     2.0000 </r>
       <r>   -15.6276     0.0000     2.0000 </r>
       <r>   -15.5554     0.0000     2.0000 </r>
       <r>   -15.4831     0.0000     2.0000 </r>
       <r>   -15.4109     0.0000     2.0000 </r>
       <r>   -15.3386     0.0000     2.0000 </r>
       <r>   -15.2664     0.0000     2.0000 </r>
       <r>   -15.1941     0.0000     2.0000 </r>
       <r>   -15.1219     0.0000     2.0000 </r>
       <r>   -15.0496     0.0000     2.0000 </r>
       <r>   -14.9774     0.0000     2.0000 </r>
       <r>   -14.9051     0.0000     2.0000 </r>
       <r>   -14.8329     0.0000     2.0000 </r>
       <r>   -14.7606     0.0000     2.0000 </r>
       <r>   -14.6884     0.0000     2.0000 </r>
       <r>   -14.6161     0.0000     2.0000 </r>
       <r>   -14.5439     0.0000     2.0000 </r>
       <r>   -14.4716     0.0000     2.0000 </r>
       <r>   -14.3994     0.0000     2.0000 </r>
       <r>   -14.3271     0.0000     2.0000 </r>
       <r>   -14.2549     0.0000     2.0000 </r>
       <r>   -14.1826     0.0000     2.0000 </r>
       <r>   -14.1104     0.0000     2.0000 </r>
       <r>   -14.0381     0.0000     2.0000 </r>
       <r>   -13.9659     0.0000     2.0000 </r>
       <r>   -13.8936     0.0000     2.0000 </r>
       <r>   -13.8214     0.0000     2.0000 </r>
       <r>   -13.7491     0.0000     2.0000 </r>
       <r>   -13.6769     0.0000     2.0000 </r>
       <r>   -13.6046     0.0000     2.0000 </r>
       <r>   -13.5324     0.0000     2.0000 </r>
       <r>   -13.4601     0.0000     2.0000 </r>
       <r>   -13.3878     0.0000     2.0000 </r>
       <r>   -13.3156     0.0000     2.0000 </r>
       <r>   -13.2433     0.0000     2.0000 </r>
       <r>   -13.1711     0.0000     2.0000 </r>
       <r>   -13.0988     0.0000     2.0000 </r>
       <r>   -13.0266     0.0000     2.0000 </r>
       <r>   -12.9543     0.0000     2.0000 </r>
       <r>   -12.8821     0.0000     2.0000 </r>
       <r>   -12.8098     0.0000     2.0000 </r>
       <r>   -12.7376     0.0000     2.0000 </r>
       <r>   -12.6653     0.0000     2.0000 </r>
       <r>   -12.5931     0.0000     2.0000 </r>
       <r>   -12.5208     0.0000     2.0000 </r>
       <r>   -12.4486     0.0000     2.0000 </r>
       <r>   -12.3763     0.0000     2.0000 </r>
       <r>   -12.3041     0.0000     2.0000 </r>
       <r>   -12.2318     0.0000     2.0000 </r>
       <r>   -12.1596     0.0000     2.0000 </r>
       <r>   -12.0873     0.0000     2.0000 </r>
       <r>   -12.0151     0.0000     2.0000 </r>
       <r>   -11.9428     0.0000     2.0000 </r>
       <r>   -11.8706     0.0000     2.0000 </r>
       <r>   -11.7983     0.0000     2.0000 </r>
       <r>   -11.7261     0.0000     2.0000 </r>
       <r>   -11.6538     0.0000     2.0000 </r>
       <r>   -11.5816     0.0000     2.0000 </r>
       <r>   -11.5093     0.0000     2.0000 </r>
       <r>   -11.4371     0.0000     2.0000 </r>
       <r>   -11.3648     0.0000     2.0000 </r>
       <r>   -11.2926     0.0000     2.0000 </r>
       <r>   -11.2203    -0.0000     2.0000 </r>
       <r>   -11.1481    -0.0000     2.0000 </r>
       <r>   -11.0758    -0.0000     2.0000 </r>
       <r>   -11.0036    -0.0000     2.0000 </r>
       <r>   -10.9313    -0.0000     2.0000 </r>
       <r>   -10.8591    -0.0000     2.0000 </r>
       <r>   -10.7868    -0.0000     2.0000 </r>
       <r>   -10.7146    -0.0000     2.0000 </r>
       <r>   -10.6423    -0.0000     2.0000 </r>
       <r>   -10.5701    -0.0000     2.0000 </r>
       <r>   -10.4978    -0.0000     2.0000 </r>
       <r>   -10.4255    -0.0000     2.0000 </r>
       <r>   -10.3533    -0.0000     2.0000 </r>
       <r>   -10.2810    -0.0002     2.0000 </r>
       <r>   -10.2088    -0.0016     1.9999 </r>
       <r>   -10.1365    -0.0103     1.9991 </r>
       <r>   -10.0643    -0.0499     1.9955 </r>
       <r>    -9.9920    -0.1704     1.9832 </r>
       <r>    -9.9198    -0.3776     1.9559 </r>
       <r>    -9.8475    -0.3784     1.9286 </r>
       <r>    -9.7753     0.6024     1.9721 </r>
       <r>    -9.7030     3.1560     2.2001 </r>
       <r>    -9.6308     6.3342     2.6578 </r>
       <r>    -9.5585     7.9431     3.2317 </r>
       <r>    -9.4863     7.3395     3.7620 </r>
       <r>    -9.4140     6.5452     4.2349 </r>
       <r>    -9.3418     7.0510     4.7443 </r>
       <r>    -9.2695     7.5795     5.2920 </r>
       <r>    -9.1973     6.9290     5.7926 </r>
       <r>    -9.1250     6.4473     6.2584 </r>
       <r>    -9.0528     7.3228     6.7875 </r>
       <r>    -8.9805     7.9198     7.3597 </r>
       <r>    -8.9083     6.2460     7.8110 </r>
       <r>    -8.8360     3.0531     8.0316 </r>
       <r>    -8.7638     0.5457     8.0710 </r>
       <r>    -8.6915    -0.3886     8.0429 </r>
       <r>    -8.6193    -0.3708     8.0161 </r>
       <r>    -8.5470    -0.1645     8.0043 </r>
       <r>    -8.4748    -0.0476     8.0008 </r>
       <r>    -8.4025    -0.0097     8.0001 </r>
       <r>    -8.3303    -0.0015     8.0000 </r>
       <r>    -8.2580    -0.0002     8.0000 </r>
       <r>    -8.1858    -0.0000     8.0000 </r>
       <r>    -8.1135    -0.0000     8.0000 </r>
       <r>    -8.0413    -0.0000     8.0000 </r>
       <r>    -7.9690    -0.0000     8.0000 </r>
       <r>    -7.8968    -0.0000     8.0000 </r>
       <r>    -7.8245    -0.0000     8.0000 </r>
       <r>    -7.7523    -0.0000     8.0000 </r>
       <r>    -7.6800     0.0000     8.0000 </r>
       <r>    -7.6077     0.0000     8.0000 </r>
       <r>    -7.5355     0.0000     8.0000 </r>
       <r>    -7.4632     0.0000     8.0000 </r>
       <r>    -7.3910     0.0000     8.0000 </r>
       <r>    -7.3187     0.0000     8.0000 </r>
       <r>    -7.2465     0.0000     8.0000 </r>
       <r>    -7.1742     0.0000     8.0000 </r>
       <r>    -7.1020     0.0000     8.0000 </r>
       <r>    -7.0297     0.0000     8.0000 </r>
       <r>    -6.9575     0.0000     8.0000 </r>
       <r>    -6.8852     0.0000     8.0000 </r>
       <r>    -6.8130     0.0000     8.0000 </r>
       <r>    -6.7407     0.0000     8.0000 </r>
       <r>    -6.6685     0.0000     8.0000 </r>
       <r>    -6.5962     0.0000     8.0000 </r>
       <r>    -6.5240     0.0000     8.0000 </r>
       <r>    -6.4517     0.0000     8.0000 </r>
       <r>    -6.3795     0.0000     8.0000 </r>
       <r>    -6.3072     0.0000     8.0000 </r>
       <r>    -6.2350     0.0000     8.0000 </r>
       <r>    -6.1627     0.0000     8.0000 </r>
       <r>    -6.0905     0.0000     8.0000 </r>
       <r>    -6.0182     0.0000     8.0000 </r>
       <r>    -5.9460     0.0000     8.0000 </r>
       <r>    -5.8737     0.0000     8.0000 </r>
       <r>    -5.8015     0.0000     8.0000 </r>
       <r>    -5.7292     0.0000     8.0000 </r>
       <r>    -5.6570     0.0000     8.0000 </r>
       <r>    -5.5847     0.0000     8.0000 </r>
       <r>    -5.5125     0.0000     8.0000 </r>
       <r>    -5.4402     0.0000     8.0000 </r>
       <r>    -5.3680     0.0000     8.0000 </r>
       <r>    -5.2957     0.0000     8.0000 </r>
       <r>    -5.2235     0.0000     8.0000 </r>
       <r>    -5.1512     0.0000     8.0000 </r>
       <r>    -5.0790     0.0000     8.0000 </r>
       <r>    -5.0067     0.0000     8.0000 </r>
       <r>    -4.9345     0.0000     8.0000 </r>
       <r>    -4.8622     0.0000     8.0000 </r>
       <r>    -4.7899     0.0000     8.0000 </r>
       <r>    -4.7177     0.0000     8.0000 </r>
       <r>    -4.6454     0.0000     8.0000 </r>
       <r>    -4.5732     0.0000     8.0000 </r>
       <r>    -4.5009     0.0000     8.0000 </r>
       <r>    -4.4287     0.0000     8.0000 </r>
       <r>    -4.3564     0.0000     8.0000 </r>
       <r>    -4.2842     0.0000     8.0000 </r>
       <r>    -4.2119     0.0000     8.0000 </r>
       <r>    -4.1397     0.0000     8.0000 </r>
       <r>    -4.0674     0.0000     8.0000 </r>
       <r>    -3.9952     0.0000     8.0000 </r>
       <r>    -3.9229     0.0000     8.0000 </r>
       <r>    -3.8507     0.0000     8.0000 </r>
       <r>    -3.7784     0.0000     8.0000 </r>
       <r>    -3.7062     0.0000     8.0000 </r>
       <r>    -3.6339     0.0000     8.0000 </r>
       <r>    -3.5617     0.0000     8.0000 </r>
       <r>    -3.4894     0.0000     8.0000 </r>
       <r>    -3.4172     0.0000     8.0000 </r>
       <r>    -3.3449     0.0000     8.0000 </r>
       <r>    -3.2727     0.0000     8.0000 </r>
       <r>    -3.2004     0.0000     8.0000 </r>
       <r>    -3.1282     0.0000     8.0000 </r>
       <r>    -3.0559     0.0000     8.0000 </r>
       <r>    -2.9837     0.0000     8.0000 </r>
       <r>    -2.9114     0.0000     8.0000 </r>
       <r>    -2.8392     0.0000     8.0000 </r>
       <r>    -2.7669     0.0000     8.0000 </r>
       <r>    -2.6947     0.0000     8.0000 </r>
       <r>    -2.6224     0.0000     8.0000 </r>
       <r>    -2.5502     0.0000     8.0000 </r>
       <r>    -2.4779     0.0000     8.0000 </r>
       <r>    -2.4057     0.0000     8.0000 </r>
       <r>    -2.3334     0.0000     8.0000 </r>
       <r>    -2.2612     0.0000     8.0000 </r>
       <r>    -2.1889     0.0000     8.0000 </r>
       <r>    -2.1167     0.0000     8.0000 </r>
       <r>    -2.0444     0.0000     8.0000 </r>
       <r>    -1.9721    -0.0000     8.0000 </r>
       <r>    -1.8999    -0.0000     8.0000 </r>
       <r>    -1.8276    -0.0000     8.0000 </r>
       <r>    -1.7554    -0.0000     8.0000 </r>
       <r>    -1.6831    -0.0000     8.0000 </r>
       <r>    -1.6109    -0.0000     8.0000 </r>
       <r>    -1.5386    -0.0000     8.0000 </r>
       <r>    -1.4664    -0.0000     8.0000 </r>
       <r>    -1.3941    -0.0000     8.0000 </r>
       <r>    -1.3219    -0.0000     8.0000 </r>
       <r>    -1.2496    -0.0000     8.0000 </r>
       <r>    -1.1774    -0.0000     8.0000 </r>
       <r>    -1.1051    -0.0000     8.0000 </r>
       <r>    -1.0329    -0.0001     8.0000 </r>
       <r>    -0.9606    -0.0006     8.0000 </r>
       <r>    -0.8884    -0.0044     7.9996 </r>
       <r>    -0.8161    -0.0247     7.9979 </r>
       <r>    -0.7439    -0.0999     7.9906 </r>
       <r>    -0.6716    -0.2757     7.9707 </r>
       <r>    -0.5994    -0.4386     7.9390 </r>
       <r>    -0.5271    -0.0157     7.9379 </r>
       <r>    -0.4549     1.8687     8.0729 </r>
       <r>    -0.3826     5.1719     8.4466 </r>
       <r>    -0.3104     7.9329     9.0198 </r>
       <r>    -0.2381     7.8243     9.5851 </r>
       <r>    -0.1659     4.9453     9.9424 </r>
       <r>    -0.0936     1.6935    10.0647 </r>
       <r>    -0.0214    -0.0815    10.0588 </r>
       <r>     0.0509    -0.4530    10.0261 </r>
       <r>     0.1231    -0.3385    10.0017 </r>
       <r>     0.1954    -0.3536     9.9761 </r>
       <r>     0.2676    -0.6328     9.9304 </r>
       <r>     0.3399    -0.8061     9.8721 </r>
       <r>     0.4121     0.2513     9.8903 </r>
       <r>     0.4844     4.0749    10.1847 </r>
       <r>     0.5566    10.9796    10.9780 </r>
       <r>     0.6289    18.3733    12.3055 </r>
       <r>     0.7011    21.6507    13.8698 </r>
       <r>     0.7734    18.1825    15.1835 </r>
       <r>     0.8456    10.3241    15.9294 </r>
       <r>     0.9179     3.1663    16.1582 </r>
       <r>     0.9902    -0.3727    16.1313 </r>
       <r>     1.0624    -0.9841    16.0602 </r>
       <r>     1.1347    -0.5711    16.0189 </r>
       <r>     1.2069    -0.2019    16.0043 </r>
       <r>     1.2792    -0.0496    16.0007 </r>
       <r>     1.3514    -0.0089    16.0001 </r>
       <r>     1.4237    -0.0012    16.0000 </r>
       <r>     1.4959    -0.0001    16.0000 </r>
       <r>     1.5682    -0.0000    16.0000 </r>
       <r>     1.6404    -0.0000    16.0000 </r>
       <r>     1.7127    -0.0000    16.0000 </r>
       <r>     1.7849    -0.0000    16.0000 </r>
       <r>     1.8572    -0.0000    16.0000 </r>
       <r>     1.9294    -0.0000    16.0000 </r>
       <r>     2.0017    -0.0000    16.0000 </r>
       <r>     2.0739     0.0000    16.0000 </r>
       <r>     2.1462     0.0000    16.0000 </r>
       <r>     2.2184     0.0000    16.0000 </r>
       <r>     2.2907     0.0000    16.0000 </r>
       <r>     2.3629     0.0000    16.0000 </r>
       <r>     2.4352     0.0000    16.0000 </r>
       <r>     2.5074     0.0000    16.0000 </r>
       <r>     2.5797     0.0000    16.0000 </r>
       <r>     2.6519     0.0000    16.0000 </r>
       <r>     2.7242     0.0000    16.0000 </r>
      </set>
     </set>
    </array>
   </total>
  </dos>
 </calculation>
 <structure name="finalpos" >
  <crystal>
   <varray name="basis" >
    <v>       9.91397100       0.00000000       0.00000000 </v>
    <v>      -0.15987770       9.78291969       0.00000000 </v>
    <v>       0.08614104      -0.02072355      10.09296132 </v>
   </varray>
   <i name="volume">    978.89191515 </i>
   <varray name="rec_basis" >
    <v>       0.10086776       0.00164843      -0.00085750 </v>
    <v>      -0.00000000       0.10221897       0.00020988 </v>
    <v>       0.00000000      -0.00000000       0.09907895 </v>
   </varray>
  </crystal>
  <varray name="positions" >
   <v>       0.53949309       0.40870173       0.36277009 </v>
   <v>       0.39230143       0.48032018       0.44232744 </v>
   <v>       0.55370187       0.56876787       0.45553173 </v>
   <v>       0.52826854       0.40962545       0.53451258 </v>
   <v>       0.50274161       0.46745951       0.44420954 </v>
  </varray>
  <varray name="velocities" >
   <v>      -0.00178171       0.00098493      -0.00121045 </v>
   <v>       0.00027210      -0.00288416       0.00156820 </v>
   <v>      -0.00171989       0.00269925       0.00123493 </v>
   <v>      -0.00188021       0.00180385      -0.00148707 </v>
   <v>       0.00042542      -0.00021679      -0.00000879 </v>
  </varray>
 </structure>
</modeling>
