unknown system                          
           1
     9.913971    0.000000    0.000000
    -0.159878    9.782920    0.000000
     0.086141   -0.020724   10.092961
   H    C 
   4   1
Direct configuration=     1
   0.53854978  0.40666729  0.36049034
   0.39423482  0.48005349  0.43785725
   0.55195653  0.56545605  0.44269245
   0.52816374  0.41617850  0.53939624
   0.50281321  0.46738124  0.44543388
Direct configuration=     2
   0.53696552  0.40699533  0.36032662
   0.39664983  0.48125168  0.43649327
   0.55367563  0.56875892  0.44167775
   0.53029643  0.41675813  0.54008032
   0.50242336  0.46693093  0.44558860
Direct configuration=     3
   0.53441365  0.40883020  0.36016512
   0.39624206  0.48260851  0.43505097
   0.55505282  0.57111887  0.44230620
   0.53039398  0.41663417  0.54010895
   0.50254699  0.46647903  0.44566742
Direct configuration=     4
   0.53384403  0.41162915  0.35889218
   0.39528817  0.48309441  0.43540232
   0.55538260  0.57065324  0.44459340
   0.52829112  0.41573895  0.53950807
   0.50282145  0.46631884  0.44560375
Direct configuration=     5
   0.53556389  0.41309677  0.35646738
   0.39404242  0.48393931  0.43707746
   0.55586846  0.56835745  0.44608336
   0.52642624  0.41408081  0.53823701
   0.50289679  0.46645550  0.44564794
Direct configuration=     6
   0.53984724  0.41393550  0.35665741
   0.39096020  0.48514885  0.43835709
   0.55694722  0.56551049  0.44711311
   0.52574942  0.41145757  0.53691659
   0.50276333  0.46674040  0.44554978
Direct configuration=     7
   0.54375332  0.41290287  0.36024840
   0.39203291  0.48563984  0.43877669
   0.55774663  0.56490304  0.44862812
   0.52762289  0.40862222  0.53683272
   0.50212627  0.46707214  0.44509672
Direct configuration=     8
   0.54536744  0.40989070  0.36160949
   0.39510301  0.48511625  0.43977755
   0.55880864  0.56532005  0.45088178
   0.52882342  0.40873375  0.53363394
   0.50154790  0.46732251  0.44497875
Direct configuration=     9
   0.54507684  0.40750701  0.36217721
   0.39531535  0.48463240  0.44023253
   0.55785584  0.56563515  0.45276308
   0.52935639  0.40848620  0.53358016
   0.50158937  0.46755563  0.44474145
Direct configuration=    10
   0.54127480  0.40771680  0.36398055
   0.39202933  0.48320435  0.44075924
   0.55542176  0.56606862  0.45429680
   0.53014875  0.40782160  0.53599964
   0.50231619  0.46767630  0.44421833
