   5   5   0****
  0.1968674E+03  0.9904453E-09  0.9966611E-09  0.9977385E-09  0.2000000E-14
   50.000000000000000     
  CAR 
 unknown system                          
      2.71454216    -18.90852692  301     -9.08711580      1.00000000
    -18.909  0.0000E+00  0.0000E+00
    -18.836  0.0000E+00  0.0000E+00
    -18.764  0.0000E+00  0.0000E+00
    -18.692  0.0000E+00  0.0000E+00
    -18.620  0.0000E+00  0.0000E+00
    -18.548 -0.4153E-27 -0.2994E-28
    -18.476 -0.1280E-24 -0.9258E-26
    -18.404 -0.3044E-22 -0.2203E-23
    -18.332 -0.5568E-20 -0.4035E-21
    -18.260 -0.7831E-18 -0.5685E-19
    -18.188 -0.8466E-16 -0.6159E-17
    -18.116 -0.7032E-14 -0.5130E-15
    -18.044 -0.4346E-12 -0.3184E-13
    -17.972 -0.2118E-10 -0.1558E-11
    -17.899 -0.7900E-09 -0.5850E-10
    -17.827 -0.2254E-07 -0.1683E-08
    -17.755 -0.4905E-06 -0.3704E-07
    -17.683 -0.8123E-05 -0.6225E-06
    -17.611 -0.1020E-03 -0.7972E-05
    -17.539 -0.9646E-03 -0.7750E-04
    -17.467 -0.6814E-02 -0.5687E-03
    -17.395 -0.3541E-01 -0.3121E-02
    -17.323 -0.1315E+00 -0.1260E-01
    -17.251 -0.3263E+00 -0.3612E-01
    -17.179 -0.4258E+00 -0.6681E-01
    -17.107  0.2579E+00 -0.4822E-01
    -17.035  0.2526E+01  0.1339E+00
    -16.962  0.5931E+01  0.5614E+00
    -16.890  0.8205E+01  0.1153E+01
    -16.818  0.7372E+01  0.1684E+01
    -16.746  0.4186E+01  0.1986E+01
    -16.674  0.1168E+01  0.2070E+01
    -16.602 -0.2442E+00  0.2052E+01
    -16.530 -0.4179E+00  0.2022E+01
    -16.458 -0.2188E+00  0.2006E+01
    -16.386 -0.7106E-01  0.2001E+01
    -16.314 -0.1608E-01  0.2000E+01
    -16.242 -0.2645E-02  0.2000E+01
    -16.170 -0.3227E-03  0.2000E+01
    -16.098 -0.2957E-04  0.2000E+01
    -16.025 -0.2047E-05  0.2000E+01
    -15.953 -0.1077E-06  0.2000E+01
    -15.881 -0.4317E-08  0.2000E+01
    -15.809 -0.1322E-09  0.2000E+01
    -15.737 -0.3101E-11  0.2000E+01
    -15.665 -0.5545E-13  0.2000E+01
    -15.593  0.0000E+00  0.2000E+01
    -15.521  0.0000E+00  0.2000E+01
    -15.449  0.0000E+00  0.2000E+01
    -15.377  0.0000E+00  0.2000E+01
    -15.305  0.0000E+00  0.2000E+01
    -15.233  0.0000E+00  0.2000E+01
    -15.161  0.0000E+00  0.2000E+01
    -15.088  0.0000E+00  0.2000E+01
    -15.016  0.0000E+00  0.2000E+01
    -14.944  0.0000E+00  0.2000E+01
    -14.872  0.0000E+00  0.2000E+01
    -14.800  0.0000E+00  0.2000E+01
    -14.728  0.0000E+00  0.2000E+01
    -14.656  0.0000E+00  0.2000E+01
    -14.584  0.0000E+00  0.2000E+01
    -14.512  0.0000E+00  0.2000E+01
    -14.440  0.0000E+00  0.2000E+01
    -14.368  0.0000E+00  0.2000E+01
    -14.296  0.0000E+00  0.2000E+01
    -14.224  0.0000E+00  0.2000E+01
    -14.151  0.0000E+00  0.2000E+01
    -14.079  0.0000E+00  0.2000E+01
    -14.007  0.0000E+00  0.2000E+01
    -13.935  0.0000E+00  0.2000E+01
    -13.863  0.0000E+00  0.2000E+01
    -13.791  0.0000E+00  0.2000E+01
    -13.719  0.0000E+00  0.2000E+01
    -13.647  0.0000E+00  0.2000E+01
    -13.575  0.0000E+00  0.2000E+01
    -13.503  0.0000E+00  0.2000E+01
    -13.431  0.0000E+00  0.2000E+01
    -13.359  0.0000E+00  0.2000E+01
    -13.287  0.0000E+00  0.2000E+01
    -13.214  0.0000E+00  0.2000E+01
    -13.142  0.0000E+00  0.2000E+01
    -13.070  0.0000E+00  0.2000E+01
    -12.998  0.0000E+00  0.2000E+01
    -12.926  0.0000E+00  0.2000E+01
    -12.854  0.0000E+00  0.2000E+01
    -12.782  0.0000E+00  0.2000E+01
    -12.710  0.0000E+00  0.2000E+01
    -12.638  0.0000E+00  0.2000E+01
    -12.566  0.0000E+00  0.2000E+01
    -12.494  0.0000E+00  0.2000E+01
    -12.422  0.0000E+00  0.2000E+01
    -12.350  0.0000E+00  0.2000E+01
    -12.277  0.0000E+00  0.2000E+01
    -12.205  0.0000E+00  0.2000E+01
    -12.133  0.0000E+00  0.2000E+01
    -12.061  0.0000E+00  0.2000E+01
    -11.989  0.0000E+00  0.2000E+01
    -11.917  0.0000E+00  0.2000E+01
    -11.845  0.0000E+00  0.2000E+01
    -11.773  0.0000E+00  0.2000E+01
    -11.701  0.0000E+00  0.2000E+01
    -11.629  0.0000E+00  0.2000E+01
    -11.557  0.0000E+00  0.2000E+01
    -11.485  0.0000E+00  0.2000E+01
    -11.413  0.0000E+00  0.2000E+01
    -11.340  0.0000E+00  0.2000E+01
    -11.268  0.0000E+00  0.2000E+01
    -11.196  0.0000E+00  0.2000E+01
    -11.124  0.0000E+00  0.2000E+01
    -11.052  0.0000E+00  0.2000E+01
    -10.980 -0.3548E-26  0.2000E+01
    -10.908 -0.1000E-23  0.2000E+01
    -10.836 -0.2163E-21  0.2000E+01
    -10.764 -0.3600E-19  0.2000E+01
    -10.692 -0.4609E-17  0.2000E+01
    -10.620 -0.4539E-15  0.2000E+01
    -10.548 -0.3283E-13  0.2000E+01
    -10.476 -0.1937E-11  0.2000E+01
    -10.403 -0.8615E-10  0.2000E+01
    -10.331 -0.2940E-08  0.2000E+01
    -10.259 -0.7685E-07  0.2000E+01
    -10.187 -0.1537E-05  0.2000E+01
    -10.115 -0.2345E-04  0.2000E+01
    -10.043 -0.2723E-03  0.2000E+01
     -9.971 -0.2395E-02  0.2000E+01
     -9.899 -0.1583E-01  0.1999E+01
     -9.827 -0.7768E-01  0.1993E+01
     -9.755 -0.2760E+00  0.1973E+01
     -9.683 -0.6696E+00  0.1925E+01
     -9.611 -0.9073E+00  0.1860E+01
     -9.539  0.2704E+00  0.1879E+01
     -9.466  0.4552E+01  0.2207E+01
     -9.394  0.1192E+02  0.3066E+01
     -9.322  0.1902E+02  0.4437E+01
     -9.250  0.2127E+02  0.5970E+01
     -9.178  0.1716E+02  0.7207E+01
     -9.106  0.9654E+01  0.7903E+01
     -9.034  0.3157E+01  0.8131E+01
     -8.962 -0.1348E+00  0.8121E+01
     -8.890 -0.8456E+00  0.8060E+01
     -8.818 -0.5496E+00  0.8021E+01
     -8.746 -0.2144E+00  0.8005E+01
     -8.674 -0.5824E-01  0.8001E+01
     -8.602 -0.1154E-01  0.8000E+01
     -8.529 -0.1702E-02  0.8000E+01
     -8.457 -0.1888E-03  0.8000E+01
     -8.385 -0.1587E-04  0.8000E+01
     -8.313 -0.1014E-05  0.8000E+01
     -8.241 -0.4942E-07  0.8000E+01
     -8.169 -0.1840E-08  0.8000E+01
     -8.097 -0.5245E-10  0.8000E+01
     -8.025 -0.1148E-11  0.8000E+01
     -7.953 -0.1848E-13  0.8000E+01
     -7.881  0.0000E+00  0.8000E+01
     -7.809  0.0000E+00  0.8000E+01
     -7.737  0.0000E+00  0.8000E+01
     -7.665  0.0000E+00  0.8000E+01
     -7.592  0.0000E+00  0.8000E+01
     -7.520  0.0000E+00  0.8000E+01
     -7.448  0.0000E+00  0.8000E+01
     -7.376  0.0000E+00  0.8000E+01
     -7.304  0.0000E+00  0.8000E+01
     -7.232  0.0000E+00  0.8000E+01
     -7.160  0.0000E+00  0.8000E+01
     -7.088  0.0000E+00  0.8000E+01
     -7.016  0.0000E+00  0.8000E+01
     -6.944  0.0000E+00  0.8000E+01
     -6.872  0.0000E+00  0.8000E+01
     -6.800  0.0000E+00  0.8000E+01
     -6.728  0.0000E+00  0.8000E+01
     -6.655  0.0000E+00  0.8000E+01
     -6.583  0.0000E+00  0.8000E+01
     -6.511  0.0000E+00  0.8000E+01
     -6.439  0.0000E+00  0.8000E+01
     -6.367  0.0000E+00  0.8000E+01
     -6.295  0.0000E+00  0.8000E+01
     -6.223  0.0000E+00  0.8000E+01
     -6.151  0.0000E+00  0.8000E+01
     -6.079  0.0000E+00  0.8000E+01
     -6.007  0.0000E+00  0.8000E+01
     -5.935  0.0000E+00  0.8000E+01
     -5.863  0.0000E+00  0.8000E+01
     -5.791  0.0000E+00  0.8000E+01
     -5.718  0.0000E+00  0.8000E+01
     -5.646  0.0000E+00  0.8000E+01
     -5.574  0.0000E+00  0.8000E+01
     -5.502  0.0000E+00  0.8000E+01
     -5.430  0.0000E+00  0.8000E+01
     -5.358  0.0000E+00  0.8000E+01
     -5.286  0.0000E+00  0.8000E+01
     -5.214  0.0000E+00  0.8000E+01
     -5.142  0.0000E+00  0.8000E+01
     -5.070  0.0000E+00  0.8000E+01
     -4.998  0.0000E+00  0.8000E+01
     -4.926  0.0000E+00  0.8000E+01
     -4.854  0.0000E+00  0.8000E+01
     -4.781  0.0000E+00  0.8000E+01
     -4.709  0.0000E+00  0.8000E+01
     -4.637  0.0000E+00  0.8000E+01
     -4.565  0.0000E+00  0.8000E+01
     -4.493  0.0000E+00  0.8000E+01
     -4.421  0.0000E+00  0.8000E+01
     -4.349  0.0000E+00  0.8000E+01
     -4.277  0.0000E+00  0.8000E+01
     -4.205  0.0000E+00  0.8000E+01
     -4.133  0.0000E+00  0.8000E+01
     -4.061  0.0000E+00  0.8000E+01
     -3.989  0.0000E+00  0.8000E+01
     -3.917  0.0000E+00  0.8000E+01
     -3.844  0.0000E+00  0.8000E+01
     -3.772  0.0000E+00  0.8000E+01
     -3.700  0.0000E+00  0.8000E+01
     -3.628  0.0000E+00  0.8000E+01
     -3.556  0.0000E+00  0.8000E+01
     -3.484  0.0000E+00  0.8000E+01
     -3.412  0.0000E+00  0.8000E+01
     -3.340  0.0000E+00  0.8000E+01
     -3.268  0.0000E+00  0.8000E+01
     -3.196  0.0000E+00  0.8000E+01
     -3.124  0.0000E+00  0.8000E+01
     -3.052  0.0000E+00  0.8000E+01
     -2.980  0.0000E+00  0.8000E+01
     -2.907  0.0000E+00  0.8000E+01
     -2.835  0.0000E+00  0.8000E+01
     -2.763  0.0000E+00  0.8000E+01
     -2.691  0.0000E+00  0.8000E+01
     -2.619  0.0000E+00  0.8000E+01
     -2.547  0.0000E+00  0.8000E+01
     -2.475  0.0000E+00  0.8000E+01
     -2.403  0.0000E+00  0.8000E+01
     -2.331  0.0000E+00  0.8000E+01
     -2.259  0.0000E+00  0.8000E+01
     -2.187  0.0000E+00  0.8000E+01
     -2.115  0.0000E+00  0.8000E+01
     -2.043  0.0000E+00  0.8000E+01
     -1.970 -0.6497E-28  0.8000E+01
     -1.898 -0.2172E-25  0.8000E+01
     -1.826 -0.5599E-23  0.8000E+01
     -1.754 -0.1111E-20  0.8000E+01
     -1.682 -0.1695E-18  0.8000E+01
     -1.610 -0.1988E-16  0.8000E+01
     -1.538 -0.1792E-14  0.8000E+01
     -1.466 -0.1207E-12  0.8000E+01
     -1.394 -0.6376E-11  0.8000E+01
     -1.322 -0.2586E-09  0.8000E+01
     -1.250 -0.8025E-08  0.8000E+01
     -1.178 -0.1902E-06  0.8000E+01
     -1.106 -0.3433E-05  0.8000E+01
     -1.033 -0.4705E-04  0.8000E+01
     -0.961 -0.4869E-03  0.8000E+01
     -0.889 -0.3777E-02  0.8000E+01
     -0.817 -0.2168E-01  0.7998E+01
     -0.745 -0.8996E-01  0.7992E+01
     -0.673 -0.2568E+00  0.7973E+01
     -0.601 -0.4351E+00  0.7942E+01
     -0.529 -0.1036E+00  0.7934E+01
     -0.457  0.1615E+01  0.8051E+01
     -0.385  0.4830E+01  0.8399E+01
     -0.313  0.7759E+01  0.8958E+01
     -0.241  0.7989E+01  0.9534E+01
     -0.169  0.5310E+01  0.9917E+01
     -0.096  0.1987E+01  0.1006E+02
     -0.024  0.3003E-01  0.1006E+02
      0.048 -0.4546E+00  0.1003E+02
      0.120 -0.3633E+00  0.1000E+02
      0.192 -0.3693E+00  0.9976E+01
      0.264 -0.6470E+00  0.9930E+01
      0.336 -0.8366E+00  0.9870E+01
      0.408  0.2079E+00  0.9885E+01
      0.480  0.4082E+01  0.1018E+02
      0.552  0.1113E+02  0.1098E+02
      0.624  0.1864E+02  0.1232E+02
      0.696  0.2185E+02  0.1390E+02
      0.768  0.1818E+02  0.1521E+02
      0.841  0.1018E+02  0.1594E+02
      0.913  0.3033E+01  0.1616E+02
      0.985 -0.4278E+00  0.1613E+02
      1.057 -0.9901E+00  0.1606E+02
      1.129 -0.5657E+00  0.1602E+02
      1.201 -0.1986E+00  0.1600E+02
      1.273 -0.4864E-01  0.1600E+02
      1.345 -0.8681E-02  0.1600E+02
      1.417 -0.1153E-02  0.1600E+02
      1.489 -0.1152E-03  0.1600E+02
      1.561 -0.8721E-05  0.1600E+02
      1.633 -0.5027E-06  0.1600E+02
      1.705 -0.2213E-07  0.1600E+02
      1.778 -0.7458E-09  0.1600E+02
      1.850 -0.1927E-10  0.1600E+02
      1.922 -0.3820E-12  0.1600E+02
      1.994 -0.4621E-14  0.1600E+02
      2.066  0.0000E+00  0.1600E+02
      2.138  0.0000E+00  0.1600E+02
      2.210  0.0000E+00  0.1600E+02
      2.282  0.0000E+00  0.1600E+02
      2.354  0.0000E+00  0.1600E+02
      2.426  0.0000E+00  0.1600E+02
      2.498  0.0000E+00  0.1600E+02
      2.570  0.0000E+00  0.1600E+02
      2.642  0.0000E+00  0.1600E+02
      2.715  0.0000E+00  0.1600E+02
      2.71517090    -18.81114024  301     -8.75974498      1.00000000
    -18.811  0.0000E+00  0.0000E+00
    -18.739  0.0000E+00  0.0000E+00
    -18.668  0.0000E+00  0.0000E+00
    -18.596  0.0000E+00  0.0000E+00
    -18.524  0.0000E+00  0.0000E+00
    -18.452 -0.3659E-27 -0.2626E-28
    -18.381 -0.1106E-24 -0.7965E-26
    -18.309 -0.2587E-22 -0.1864E-23
    -18.237 -0.4662E-20 -0.3364E-21
    -18.165 -0.6478E-18 -0.4682E-19
    -18.094 -0.6934E-16 -0.5022E-17
    -18.022 -0.5717E-14 -0.4152E-15
    -17.950 -0.3519E-12 -0.2566E-13
    -17.878 -0.1709E-10 -0.1252E-11
    -17.807 -0.6373E-09 -0.4698E-10
    -17.735 -0.1822E-07 -0.1354E-08
    -17.663 -0.3985E-06 -0.2995E-07
    -17.591 -0.6650E-05 -0.5071E-06
    -17.520 -0.8434E-04 -0.6559E-05
    -17.448 -0.8085E-03 -0.6457E-04
    -17.376 -0.5808E-02 -0.4814E-03
    -17.304 -0.3083E-01 -0.2694E-02
    -17.233 -0.1177E+00 -0.1114E-01
    -17.161 -0.3045E+00 -0.3299E-01
    -17.089 -0.4363E+00 -0.6429E-01
    -17.017  0.1146E+00 -0.5607E-01
    -16.946  0.2183E+01  0.1006E+00
    -16.874  0.5533E+01  0.4976E+00
    -16.802  0.8075E+01  0.1077E+01
    -16.730  0.7655E+01  0.1626E+01
    -16.659  0.4651E+01  0.1960E+01
    -16.587  0.1494E+01  0.2067E+01
    -16.515 -0.1416E+00  0.2057E+01
    -16.443 -0.4332E+00  0.2026E+01
    -16.371 -0.2498E+00  0.2008E+01
    -16.300 -0.8665E-01  0.2002E+01
    -16.228 -0.2080E-01  0.2000E+01
    -16.156 -0.3621E-02  0.2000E+01
    -16.084 -0.4680E-03  0.2000E+01
    -16.013 -0.4544E-04  0.2000E+01
    -15.941 -0.3341E-05  0.2000E+01
    -15.869 -0.1869E-06  0.2000E+01
    -15.797 -0.7980E-08  0.2000E+01
    -15.726 -0.2609E-09  0.2000E+01
    -15.654 -0.6545E-11  0.2000E+01
    -15.582 -0.1238E-12  0.2000E+01
    -15.510  0.0000E+00  0.2000E+01
    -15.439  0.0000E+00  0.2000E+01
    -15.367  0.0000E+00  0.2000E+01
    -15.295  0.0000E+00  0.2000E+01
    -15.223  0.0000E+00  0.2000E+01
    -15.152  0.0000E+00  0.2000E+01
    -15.080  0.0000E+00  0.2000E+01
    -15.008  0.0000E+00  0.2000E+01
    -14.936  0.0000E+00  0.2000E+01
    -14.865  0.0000E+00  0.2000E+01
    -14.793  0.0000E+00  0.2000E+01
    -14.721  0.0000E+00  0.2000E+01
    -14.649  0.0000E+00  0.2000E+01
    -14.578  0.0000E+00  0.2000E+01
    -14.506  0.0000E+00  0.2000E+01
    -14.434  0.0000E+00  0.2000E+01
    -14.362  0.0000E+00  0.2000E+01
    -14.291  0.0000E+00  0.2000E+01
    -14.219  0.0000E+00  0.2000E+01
    -14.147  0.0000E+00  0.2000E+01
    -14.075  0.0000E+00  0.2000E+01
    -14.004  0.0000E+00  0.2000E+01
    -13.932  0.0000E+00  0.2000E+01
    -13.860  0.0000E+00  0.2000E+01
    -13.788  0.0000E+00  0.2000E+01
    -13.717  0.0000E+00  0.2000E+01
    -13.645  0.0000E+00  0.2000E+01
    -13.573  0.0000E+00  0.2000E+01
    -13.501  0.0000E+00  0.2000E+01
    -13.430  0.0000E+00  0.2000E+01
    -13.358  0.0000E+00  0.2000E+01
    -13.286  0.0000E+00  0.2000E+01
    -13.214  0.0000E+00  0.2000E+01
    -13.143  0.0000E+00  0.2000E+01
    -13.071  0.0000E+00  0.2000E+01
    -12.999  0.0000E+00  0.2000E+01
    -12.927  0.0000E+00  0.2000E+01
    -12.856  0.0000E+00  0.2000E+01
    -12.784  0.0000E+00  0.2000E+01
    -12.712  0.0000E+00  0.2000E+01
    -12.640  0.0000E+00  0.2000E+01
    -12.569  0.0000E+00  0.2000E+01
    -12.497  0.0000E+00  0.2000E+01
    -12.425  0.0000E+00  0.2000E+01
    -12.353  0.0000E+00  0.2000E+01
    -12.281  0.0000E+00  0.2000E+01
    -12.210  0.0000E+00  0.2000E+01
    -12.138  0.0000E+00  0.2000E+01
    -12.066  0.0000E+00  0.2000E+01
    -11.994  0.0000E+00  0.2000E+01
    -11.923  0.0000E+00  0.2000E+01
    -11.851  0.0000E+00  0.2000E+01
    -11.779  0.0000E+00  0.2000E+01
    -11.707  0.0000E+00  0.2000E+01
    -11.636  0.0000E+00  0.2000E+01
    -11.564  0.0000E+00  0.2000E+01
    -11.492  0.0000E+00  0.2000E+01
    -11.420  0.0000E+00  0.2000E+01
    -11.349  0.0000E+00  0.2000E+01
    -11.277  0.0000E+00  0.2000E+01
    -11.205  0.0000E+00  0.2000E+01
    -11.133 -0.3932E-26  0.2000E+01
    -11.062 -0.1068E-23  0.2000E+01
    -10.990 -0.2245E-21  0.2000E+01
    -10.918 -0.3638E-19  0.2000E+01
    -10.846 -0.4542E-17  0.2000E+01
    -10.775 -0.4368E-15  0.2000E+01
    -10.703 -0.3080E-13  0.2000E+01
    -10.631 -0.1785E-11  0.2000E+01
    -10.559 -0.7780E-10  0.2000E+01
    -10.488 -0.2603E-08  0.2000E+01
    -10.416 -0.6669E-07  0.2000E+01
    -10.344 -0.1306E-05  0.2000E+01
    -10.272 -0.1948E-04  0.2000E+01
    -10.201 -0.2205E-03  0.2000E+01
    -10.129 -0.1881E-02  0.2000E+01
    -10.057 -0.1197E-01  0.1999E+01
     -9.985 -0.5579E-01  0.1995E+01
     -9.914 -0.1841E+00  0.1982E+01
     -9.842 -0.3947E+00  0.1953E+01
     -9.770 -0.3791E+00  0.1926E+01
     -9.698  0.6256E+00  0.1971E+01
     -9.627  0.3168E+01  0.2198E+01
     -9.555  0.6396E+01  0.2657E+01
     -9.483  0.8485E+01  0.3266E+01
     -9.411  0.8918E+01  0.3906E+01
     -9.340  0.8814E+01  0.4539E+01
     -9.268  0.8420E+01  0.5143E+01
     -9.196  0.6746E+01  0.5627E+01
     -9.124  0.4374E+01  0.5941E+01
     -9.053  0.3766E+01  0.6211E+01
     -8.981  0.5734E+01  0.6622E+01
     -8.909  0.7772E+01  0.7180E+01
     -8.837  0.7128E+01  0.7691E+01
     -8.766  0.4114E+01  0.7987E+01
     -8.694  0.1164E+01  0.8070E+01
     -8.622 -0.2405E+00  0.8053E+01
     -8.550 -0.4205E+00  0.8023E+01
     -8.479 -0.2230E+00  0.8007E+01
     -8.407 -0.7338E-01  0.8001E+01
     -8.335 -0.1686E-01  0.8000E+01
     -8.263 -0.2822E-02  0.8000E+01
     -8.191 -0.3511E-03  0.8000E+01
     -8.120 -0.3287E-04  0.8000E+01
     -8.048 -0.2331E-05  0.8000E+01
     -7.976 -0.1259E-06  0.8000E+01
     -7.904 -0.5192E-08  0.8000E+01
     -7.833 -0.1640E-09  0.8000E+01
     -7.761 -0.3972E-11  0.8000E+01
     -7.689 -0.7582E-13  0.8000E+01
     -7.617  0.0000E+00  0.8000E+01
     -7.546  0.0000E+00  0.8000E+01
     -7.474  0.0000E+00  0.8000E+01
     -7.402  0.0000E+00  0.8000E+01
     -7.330  0.0000E+00  0.8000E+01
     -7.259  0.0000E+00  0.8000E+01
     -7.187  0.0000E+00  0.8000E+01
     -7.115  0.0000E+00  0.8000E+01
     -7.043  0.0000E+00  0.8000E+01
     -6.972  0.0000E+00  0.8000E+01
     -6.900  0.0000E+00  0.8000E+01
     -6.828  0.0000E+00  0.8000E+01
     -6.756  0.0000E+00  0.8000E+01
     -6.685  0.0000E+00  0.8000E+01
     -6.613  0.0000E+00  0.8000E+01
     -6.541  0.0000E+00  0.8000E+01
     -6.469  0.0000E+00  0.8000E+01
     -6.398  0.0000E+00  0.8000E+01
     -6.326  0.0000E+00  0.8000E+01
     -6.254  0.0000E+00  0.8000E+01
     -6.182  0.0000E+00  0.8000E+01
     -6.111  0.0000E+00  0.8000E+01
     -6.039  0.0000E+00  0.8000E+01
     -5.967  0.0000E+00  0.8000E+01
     -5.895  0.0000E+00  0.8000E+01
     -5.824  0.0000E+00  0.8000E+01
     -5.752  0.0000E+00  0.8000E+01
     -5.680  0.0000E+00  0.8000E+01
     -5.608  0.0000E+00  0.8000E+01
     -5.537  0.0000E+00  0.8000E+01
     -5.465  0.0000E+00  0.8000E+01
     -5.393  0.0000E+00  0.8000E+01
     -5.321  0.0000E+00  0.8000E+01
     -5.250  0.0000E+00  0.8000E+01
     -5.178  0.0000E+00  0.8000E+01
     -5.106  0.0000E+00  0.8000E+01
     -5.034  0.0000E+00  0.8000E+01
     -4.963  0.0000E+00  0.8000E+01
     -4.891  0.0000E+00  0.8000E+01
     -4.819  0.0000E+00  0.8000E+01
     -4.747  0.0000E+00  0.8000E+01
     -4.676  0.0000E+00  0.8000E+01
     -4.604  0.0000E+00  0.8000E+01
     -4.532  0.0000E+00  0.8000E+01
     -4.460  0.0000E+00  0.8000E+01
     -4.389  0.0000E+00  0.8000E+01
     -4.317  0.0000E+00  0.8000E+01
     -4.245  0.0000E+00  0.8000E+01
     -4.173  0.0000E+00  0.8000E+01
     -4.101  0.0000E+00  0.8000E+01
     -4.030  0.0000E+00  0.8000E+01
     -3.958  0.0000E+00  0.8000E+01
     -3.886  0.0000E+00  0.8000E+01
     -3.814  0.0000E+00  0.8000E+01
     -3.743  0.0000E+00  0.8000E+01
     -3.671  0.0000E+00  0.8000E+01
     -3.599  0.0000E+00  0.8000E+01
     -3.527  0.0000E+00  0.8000E+01
     -3.456  0.0000E+00  0.8000E+01
     -3.384  0.0000E+00  0.8000E+01
     -3.312  0.0000E+00  0.8000E+01
     -3.240  0.0000E+00  0.8000E+01
     -3.169  0.0000E+00  0.8000E+01
     -3.097  0.0000E+00  0.8000E+01
     -3.025  0.0000E+00  0.8000E+01
     -2.953  0.0000E+00  0.8000E+01
     -2.882  0.0000E+00  0.8000E+01
     -2.810  0.0000E+00  0.8000E+01
     -2.738  0.0000E+00  0.8000E+01
     -2.666  0.0000E+00  0.8000E+01
     -2.595  0.0000E+00  0.8000E+01
     -2.523  0.0000E+00  0.8000E+01
     -2.451  0.0000E+00  0.8000E+01
     -2.379  0.0000E+00  0.8000E+01
     -2.308  0.0000E+00  0.8000E+01
     -2.236  0.0000E+00  0.8000E+01
     -2.164  0.0000E+00  0.8000E+01
     -2.092  0.0000E+00  0.8000E+01
     -2.021  0.0000E+00  0.8000E+01
     -1.949 -0.2013E-26  0.8000E+01
     -1.877 -0.5630E-24  0.8000E+01
     -1.805 -0.1218E-21  0.8000E+01
     -1.734 -0.2031E-19  0.8000E+01
     -1.662 -0.2611E-17  0.8000E+01
     -1.590 -0.2587E-15  0.8000E+01
     -1.518 -0.1973E-13  0.8000E+01
     -1.447 -0.1121E-11  0.8000E+01
     -1.375 -0.5041E-10  0.8000E+01
     -1.303 -0.1739E-08  0.8000E+01
     -1.231 -0.4595E-07  0.8000E+01
     -1.160 -0.9284E-06  0.8000E+01
     -1.088 -0.1430E-04  0.8000E+01
     -1.016 -0.1672E-03  0.8000E+01
     -0.944 -0.1475E-02  0.8000E+01
     -0.873 -0.9718E-02  0.7999E+01
     -0.801 -0.4704E-01  0.7996E+01
     -0.729 -0.1618E+00  0.7984E+01
     -0.657 -0.3649E+00  0.7958E+01
     -0.586 -0.3872E+00  0.7930E+01
     -0.514  0.5321E+00  0.7968E+01
     -0.442  0.3077E+01  0.8189E+01
     -0.370  0.6465E+01  0.8653E+01
     -0.299  0.8297E+01  0.9248E+01
     -0.227  0.6962E+01  0.9748E+01
     -0.155  0.3651E+01  0.1001E+02
     -0.083  0.8475E+00  0.1007E+02
     -0.011 -0.3282E+00  0.1005E+02
      0.060 -0.4247E+00  0.1002E+02
      0.132 -0.3107E+00  0.9994E+01
      0.204 -0.4166E+00  0.9965E+01
      0.276 -0.7297E+00  0.9912E+01
      0.347 -0.6787E+00  0.9864E+01
      0.419  0.1047E+01  0.9939E+01
      0.491  0.5789E+01  0.1035E+02
      0.563  0.1312E+02  0.1130E+02
      0.634  0.1973E+02  0.1271E+02
      0.706  0.2128E+02  0.1424E+02
      0.778  0.1638E+02  0.1541E+02
      0.850  0.8379E+01  0.1601E+02
      0.921  0.2049E+01  0.1616E+02
      0.993 -0.6605E+00  0.1611E+02
      1.065 -0.9164E+00  0.1605E+02
      1.137 -0.4763E+00  0.1601E+02
      1.208 -0.1583E+00  0.1600E+02
      1.280 -0.3722E-01  0.1600E+02
      1.352 -0.6431E-02  0.1600E+02
      1.424 -0.8313E-03  0.1600E+02
      1.495 -0.8126E-04  0.1600E+02
      1.567 -0.6044E-05  0.1600E+02
      1.639 -0.3435E-06  0.1600E+02
      1.711 -0.1496E-07  0.1600E+02
      1.782 -0.5004E-09  0.1600E+02
      1.854 -0.1287E-10  0.1600E+02
      1.926 -0.2568E-12  0.1600E+02
      1.998 -0.4642E-14  0.1600E+02
      2.069  0.0000E+00  0.1600E+02
      2.141  0.0000E+00  0.1600E+02
      2.213  0.0000E+00  0.1600E+02
      2.285  0.0000E+00  0.1600E+02
      2.356  0.0000E+00  0.1600E+02
      2.428  0.0000E+00  0.1600E+02
      2.500  0.0000E+00  0.1600E+02
      2.572  0.0000E+00  0.1600E+02
      2.643  0.0000E+00  0.1600E+02
      2.715  0.0000E+00  0.1600E+02
      2.71593951    -18.70818406  301     -8.68818786      1.00000000
    -18.708  0.0000E+00  0.0000E+00
    -18.637  0.0000E+00  0.0000E+00
    -18.565  0.0000E+00  0.0000E+00
    -18.494  0.0000E+00  0.0000E+00
    -18.423  0.0000E+00  0.0000E+00
    -18.351 -0.3201E-27 -0.2286E-28
    -18.280 -0.9482E-25 -0.6794E-26
    -18.208 -0.2177E-22 -0.1562E-23
    -18.137 -0.3864E-20 -0.2775E-21
    -18.065 -0.5300E-18 -0.3812E-19
    -17.994 -0.5614E-16 -0.4047E-17
    -17.923 -0.4591E-14 -0.3319E-15
    -17.851 -0.2804E-12 -0.2035E-13
    -17.780 -0.1361E-10 -0.9923E-12
    -17.708 -0.5075E-09 -0.3723E-10
    -17.637 -0.1454E-07 -0.1076E-08
    -17.566 -0.3196E-06 -0.2390E-07
    -17.494 -0.5374E-05 -0.4077E-06
    -17.423 -0.6888E-04 -0.5327E-05
    -17.351 -0.6695E-03 -0.5314E-04
    -17.280 -0.4894E-02 -0.4027E-03
    -17.208 -0.2656E-01 -0.2299E-02
    -17.137 -0.1043E+00 -0.9750E-02
    -17.066 -0.2812E+00 -0.2983E-01
    -16.994 -0.4395E+00 -0.6122E-01
    -16.923 -0.1547E-01 -0.6232E-01
    -16.851  0.1841E+01  0.6914E-01
    -16.780  0.5099E+01  0.4333E+00
    -16.709  0.7884E+01  0.9964E+00
    -16.637  0.7904E+01  0.1561E+01
    -16.566  0.5141E+01  0.1928E+01
    -16.494  0.1874E+01  0.2062E+01
    -16.423 -0.3086E-02  0.2062E+01
    -16.352 -0.4395E+00  0.2030E+01
    -16.280 -0.2838E+00  0.2010E+01
    -16.209 -0.1058E+00  0.2002E+01
    -16.137 -0.2705E-01  0.2000E+01
    -16.066 -0.5004E-02  0.2000E+01
    -15.994 -0.6869E-03  0.2000E+01
    -15.923 -0.7091E-04  0.2000E+01
    -15.852 -0.5551E-05  0.2000E+01
    -15.780 -0.3312E-06  0.2000E+01
    -15.709 -0.1512E-07  0.2000E+01
    -15.637 -0.5292E-09  0.2000E+01
    -15.566 -0.1424E-10  0.2000E+01
    -15.495 -0.2923E-12  0.2000E+01
    -15.423 -0.6219E-14  0.2000E+01
    -15.352  0.0000E+00  0.2000E+01
    -15.280  0.0000E+00  0.2000E+01
    -15.209  0.0000E+00  0.2000E+01
    -15.137  0.0000E+00  0.2000E+01
    -15.066  0.0000E+00  0.2000E+01
    -14.995  0.0000E+00  0.2000E+01
    -14.923  0.0000E+00  0.2000E+01
    -14.852  0.0000E+00  0.2000E+01
    -14.780  0.0000E+00  0.2000E+01
    -14.709  0.0000E+00  0.2000E+01
    -14.638  0.0000E+00  0.2000E+01
    -14.566  0.0000E+00  0.2000E+01
    -14.495  0.0000E+00  0.2000E+01
    -14.423  0.0000E+00  0.2000E+01
    -14.352  0.0000E+00  0.2000E+01
    -14.281  0.0000E+00  0.2000E+01
    -14.209  0.0000E+00  0.2000E+01
    -14.138  0.0000E+00  0.2000E+01
    -14.066  0.0000E+00  0.2000E+01
    -13.995  0.0000E+00  0.2000E+01
    -13.923  0.0000E+00  0.2000E+01
    -13.852  0.0000E+00  0.2000E+01
    -13.781  0.0000E+00  0.2000E+01
    -13.709  0.0000E+00  0.2000E+01
    -13.638  0.0000E+00  0.2000E+01
    -13.566  0.0000E+00  0.2000E+01
    -13.495  0.0000E+00  0.2000E+01
    -13.424  0.0000E+00  0.2000E+01
    -13.352  0.0000E+00  0.2000E+01
    -13.281  0.0000E+00  0.2000E+01
    -13.209  0.0000E+00  0.2000E+01
    -13.138  0.0000E+00  0.2000E+01
    -13.066  0.0000E+00  0.2000E+01
    -12.995  0.0000E+00  0.2000E+01
    -12.924  0.0000E+00  0.2000E+01
    -12.852  0.0000E+00  0.2000E+01
    -12.781  0.0000E+00  0.2000E+01
    -12.709  0.0000E+00  0.2000E+01
    -12.638  0.0000E+00  0.2000E+01
    -12.567  0.0000E+00  0.2000E+01
    -12.495  0.0000E+00  0.2000E+01
    -12.424  0.0000E+00  0.2000E+01
    -12.352  0.0000E+00  0.2000E+01
    -12.281  0.0000E+00  0.2000E+01
    -12.210  0.0000E+00  0.2000E+01
    -12.138  0.0000E+00  0.2000E+01
    -12.067  0.0000E+00  0.2000E+01
    -11.995  0.0000E+00  0.2000E+01
    -11.924  0.0000E+00  0.2000E+01
    -11.852  0.0000E+00  0.2000E+01
    -11.781  0.0000E+00  0.2000E+01
    -11.710  0.0000E+00  0.2000E+01
    -11.638  0.0000E+00  0.2000E+01
    -11.567  0.0000E+00  0.2000E+01
    -11.495  0.0000E+00  0.2000E+01
    -11.424  0.0000E+00  0.2000E+01
    -11.353  0.0000E+00  0.2000E+01
    -11.281  0.0000E+00  0.2000E+01
    -11.210  0.0000E+00  0.2000E+01
    -11.138 -0.7128E-27  0.2000E+01
    -11.067 -0.2038E-24  0.2000E+01
    -10.995 -0.4516E-22  0.2000E+01
    -10.924 -0.7735E-20  0.2000E+01
    -10.853 -0.1024E-17  0.2000E+01
    -10.781 -0.1046E-15  0.2000E+01
    -10.710 -0.8258E-14  0.2000E+01
    -10.638 -0.4872E-12  0.2000E+01
    -10.567 -0.2277E-10  0.2000E+01
    -10.496 -0.8188E-09  0.2000E+01
    -10.424 -0.2262E-07  0.2000E+01
    -10.353 -0.4793E-06  0.2000E+01
    -10.281 -0.7765E-05  0.2000E+01
    -10.210 -0.9584E-04  0.2000E+01
    -10.139 -0.8961E-03  0.2000E+01
    -10.067 -0.6293E-02  0.1999E+01
     -9.996 -0.3272E-01  0.1997E+01
     -9.924 -0.1226E+00  0.1988E+01
     -9.853 -0.3116E+00  0.1966E+01
     -9.781 -0.4387E+00  0.1935E+01
     -9.710  0.1176E+00  0.1943E+01
     -9.639  0.2140E+01  0.2096E+01
     -9.567  0.5317E+01  0.2476E+01
     -9.496  0.7649E+01  0.3022E+01
     -9.424  0.7519E+01  0.3559E+01
     -9.353  0.6158E+01  0.3999E+01
     -9.282  0.6082E+01  0.4433E+01
     -9.210  0.7240E+01  0.4950E+01
     -9.139  0.7204E+01  0.5465E+01
     -9.067  0.5330E+01  0.5845E+01
     -8.996  0.4085E+01  0.6137E+01
     -8.925  0.5362E+01  0.6520E+01
     -8.853  0.7515E+01  0.7057E+01
     -8.782  0.7520E+01  0.7594E+01
     -8.710  0.4867E+01  0.7941E+01
     -8.639  0.1723E+01  0.8064E+01
     -8.567 -0.5327E-01  0.8060E+01
     -8.496 -0.4399E+00  0.8029E+01
     -8.425 -0.2745E+00  0.8009E+01
     -8.353 -0.1004E+00  0.8002E+01
     -8.282 -0.2529E-01  0.8000E+01
     -8.210 -0.4616E-02  0.8000E+01
     -8.139 -0.6256E-03  0.8000E+01
     -8.068 -0.6379E-04  0.8000E+01
     -7.996 -0.4934E-05  0.8000E+01
     -7.925 -0.2909E-06  0.8000E+01
     -7.853 -0.1312E-07  0.8000E+01
     -7.782 -0.4542E-09  0.8000E+01
     -7.710 -0.1208E-10  0.8000E+01
     -7.639 -0.2487E-12  0.8000E+01
     -7.568 -0.6219E-14  0.8000E+01
     -7.496  0.0000E+00  0.8000E+01
     -7.425  0.0000E+00  0.8000E+01
     -7.353  0.0000E+00  0.8000E+01
     -7.282  0.0000E+00  0.8000E+01
     -7.211  0.0000E+00  0.8000E+01
     -7.139  0.0000E+00  0.8000E+01
     -7.068  0.0000E+00  0.8000E+01
     -6.996  0.0000E+00  0.8000E+01
     -6.925  0.0000E+00  0.8000E+01
     -6.854  0.0000E+00  0.8000E+01
     -6.782  0.0000E+00  0.8000E+01
     -6.711  0.0000E+00  0.8000E+01
     -6.639  0.0000E+00  0.8000E+01
     -6.568  0.0000E+00  0.8000E+01
     -6.496  0.0000E+00  0.8000E+01
     -6.425  0.0000E+00  0.8000E+01
     -6.354  0.0000E+00  0.8000E+01
     -6.282  0.0000E+00  0.8000E+01
     -6.211  0.0000E+00  0.8000E+01
     -6.139  0.0000E+00  0.8000E+01
     -6.068  0.0000E+00  0.8000E+01
     -5.997  0.0000E+00  0.8000E+01
     -5.925  0.0000E+00  0.8000E+01
     -5.854  0.0000E+00  0.8000E+01
     -5.782  0.0000E+00  0.8000E+01
     -5.711  0.0000E+00  0.8000E+01
     -5.639  0.0000E+00  0.8000E+01
     -5.568  0.0000E+00  0.8000E+01
     -5.497  0.0000E+00  0.8000E+01
     -5.425  0.0000E+00  0.8000E+01
     -5.354  0.0000E+00  0.8000E+01
     -5.282  0.0000E+00  0.8000E+01
     -5.211  0.0000E+00  0.8000E+01
     -5.140  0.0000E+00  0.8000E+01
     -5.068  0.0000E+00  0.8000E+01
     -4.997  0.0000E+00  0.8000E+01
     -4.925  0.0000E+00  0.8000E+01
     -4.854  0.0000E+00  0.8000E+01
     -4.783  0.0000E+00  0.8000E+01
     -4.711  0.0000E+00  0.8000E+01
     -4.640  0.0000E+00  0.8000E+01
     -4.568  0.0000E+00  0.8000E+01
     -4.497  0.0000E+00  0.8000E+01
     -4.425  0.0000E+00  0.8000E+01
     -4.354  0.0000E+00  0.8000E+01
     -4.283  0.0000E+00  0.8000E+01
     -4.211  0.0000E+00  0.8000E+01
     -4.140  0.0000E+00  0.8000E+01
     -4.068  0.0000E+00  0.8000E+01
     -3.997  0.0000E+00  0.8000E+01
     -3.926  0.0000E+00  0.8000E+01
     -3.854  0.0000E+00  0.8000E+01
     -3.783  0.0000E+00  0.8000E+01
     -3.711  0.0000E+00  0.8000E+01
     -3.640  0.0000E+00  0.8000E+01
     -3.568  0.0000E+00  0.8000E+01
     -3.497  0.0000E+00  0.8000E+01
     -3.426  0.0000E+00  0.8000E+01
     -3.354  0.0000E+00  0.8000E+01
     -3.283  0.0000E+00  0.8000E+01
     -3.211  0.0000E+00  0.8000E+01
     -3.140  0.0000E+00  0.8000E+01
     -3.069  0.0000E+00  0.8000E+01