    5    5    1    1
  0.1968674E+03  0.9904453E-09  0.9966611E-09  0.9977384E-09  0.2000000E-14
   50.000000000000000     
  CAR 
 unknown system                          
      8      4      8

  0.2500000E+00  0.2500000E+00  0.2500000E+00  0.2500000E+00
    1      -17.108807   1.000000
    2       -9.565150   1.002566
    3       -9.430649   1.021221
    4       -9.252582   0.976073
    5       -0.282363   0.000000
    6        0.576771   0.000000
    7        0.680928   0.000000
    8        0.703694   0.000000

 -0.2500000E+00  0.2500000E+00  0.2500000E+00  0.2500000E+00
    1      -17.108846   1.000000
    2       -9.565301   1.002558
    3       -9.430777   1.021192
    4       -9.252746   0.976319
    5       -0.288299   0.000000
    6        0.585790   0.000000
    7        0.680541   0.000000
    8        0.732265   0.000000

  0.2500000E+00 -0.2500000E+00  0.2500000E+00  0.2500000E+00
    1      -17.108813   1.000000
    2       -9.565302   1.002558
    3       -9.430851   1.021175
    4       -9.252749   0.976323
    5       -0.289444   0.000000
    6        0.588942   0.000000
    7        0.688594   0.000000
    8        0.728839   0.000000

 -0.2500000E+00 -0.2500000E+00  0.2500000E+00  0.2500000E+00
    1      -17.108838   1.000000
    2       -9.565276   1.002560
    3       -9.430752   1.021197
    4       -9.252706   0.976259
    5       -0.292210   0.000000
    6        0.593296   0.000000
    7        0.701543   0.000000
    8        0.733765   0.000000
