       N       E                     dE             d eps       ncg     rms          rms(c)
DAV:   1     0.135238741632E+02    0.13524E+02   -0.19563E+03    96   0.415E+02
DAV:   2    -0.235051357129E+02   -0.37029E+02   -0.37029E+02    64   0.115E+02
DAV:   3    -0.274479240145E+02   -0.39428E+01   -0.39528E+01    64   0.450E+01
DAV:   4    -0.275972273318E+02   -0.14930E+00   -0.14916E+00   128   0.953E+00
DAV:   5    -0.275972702501E+02   -0.42918E-04   -0.42918E-04    96   0.175E-01    0.882E+00
RMM:   6    -0.246531204049E+02    0.29441E+01   -0.54528E+00    64   0.143E+01    0.436E+00
RMM:   7    -0.241480822668E+02    0.50504E+00   -0.12582E+00    64   0.650E+00    0.231E+00
RMM:   8    -0.239998069740E+02    0.14828E+00   -0.16428E-01    64   0.291E+00    0.239E-01
RMM:   9    -0.239939786880E+02    0.58283E-02   -0.11197E-02    64   0.708E-01    0.203E-01
RMM:  10    -0.239917059752E+02    0.22727E-02   -0.11802E-02    64   0.585E-01    0.171E-01
RMM:  11    -0.239876552533E+02    0.40507E-02   -0.15270E-03    64   0.284E-01    0.105E-01
RMM:  12    -0.239904603555E+02   -0.28051E-02   -0.24050E-03    64   0.314E-01    0.680E-02
RMM:  13    -0.239978894079E+02   -0.74291E-02   -0.17084E-03    64   0.228E-01    0.339E-02
RMM:  14    -0.239989698352E+02   -0.10804E-02   -0.22529E-04    64   0.807E-02    0.160E-02
RMM:  15    -0.240011432506E+02   -0.21734E-02   -0.37414E-04    64   0.112E-01    0.223E-02
RMM:  16    -0.240014951663E+02   -0.35192E-03   -0.82502E-05    64   0.519E-02    0.113E-02
RMM:  17    -0.240017681452E+02   -0.27298E-03   -0.30418E-05    64   0.351E-02    0.893E-03
RMM:  18    -0.240018211883E+02   -0.53043E-04   -0.95099E-06    64   0.180E-02    0.232E-03
RMM:  19    -0.240018459372E+02   -0.24749E-04   -0.26625E-06    60   0.935E-03    0.146E-03
RMM:  20    -0.240018499722E+02   -0.40350E-05   -0.16420E-07    48   0.254E-03    0.372E-04
RMM:  21    -0.240018523185E+02   -0.23463E-05   -0.18313E-07    48   0.275E-03    0.453E-04
RMM:  22    -0.240018525698E+02   -0.25134E-06    0.00000E+00    32   0.116E-03
    1 T=    72. E= -.23964440E+02 F= -.24001853E+02 E0= -.24015120E+02  EK= 0.37397E-01 SP= 0.00E+00 SK= 0.16E-04
       N       E                     dE             d eps       ncg     rms          rms(c)
DAV:   1    -0.239928118118E+02    0.90405E-02   -0.19754E+00    64   0.137E+01    0.672E-01
RMM:   2    -0.240093649949E+02   -0.16553E-01   -0.22096E-01    64   0.278E+00    0.700E-01
RMM:   3    -0.239873589517E+02    0.22006E-01   -0.57133E-02    64   0.134E+00    0.187E-01
RMM:   4    -0.239908928061E+02   -0.35339E-02   -0.38163E-02    64   0.114E+00    0.307E-01
RMM:   5    -0.239878008260E+02    0.30920E-02   -0.40726E-03    64   0.402E-01    0.140E-01
RMM:   6    -0.239877270113E+02    0.73815E-04   -0.81142E-03    64   0.530E-01    0.597E-02
RMM:   7    -0.239876949800E+02    0.32031E-04   -0.26048E-04    64   0.116E-01    0.251E-02
RMM:   8    -0.239877616392E+02   -0.66659E-04   -0.18893E-05    64   0.291E-02    0.259E-02
RMM:   9    -0.239878099846E+02   -0.48345E-04   -0.17728E-04    64   0.758E-02    0.518E-03
RMM:  10    -0.239878309498E+02   -0.20965E-04   -0.53636E-06    64   0.161E-02    0.204E-03
RMM:  11    -0.239878514842E+02   -0.20534E-04   -0.11285E-05    64   0.193E-02    0.731E-03
RMM:  12    -0.239878566576E+02   -0.51733E-05   -0.70509E-06    64   0.149E-02    0.137E-03
RMM:  13    -0.239878611754E+02   -0.45178E-05   -0.34740E-06    60   0.114E-02    0.275E-03
RMM:  14    -0.239878621434E+02   -0.96798E-06   -0.12992E-06    48   0.709E-03
    2 T=    75. E= -.23948418E+02 F= -.23987862E+02 E0= -.23991914E+02  EK= 0.39002E-01 SP= 0.28E-03 SK= 0.16E-03
       N       E                     dE             d eps       ncg     rms          rms(c)
DAV:   1    -0.239627572654E+02    0.25104E-01   -0.15431E+00    64   0.123E+01    0.402E-01
RMM:   2    -0.239626230425E+02    0.13422E-03   -0.44879E-02    64   0.156E+00    0.294E-01
RMM:   3    -0.239613341225E+02    0.12889E-02   -0.47790E-03    64   0.472E-01    0.111E-01
RMM:   4    -0.239618408576E+02   -0.50674E-03   -0.16526E-03    64   0.249E-01    0.111E-01
RMM:   5    -0.239615927073E+02    0.24815E-03   -0.64829E-04    64   0.150E-01    0.420E-02
RMM:   6    -0.239616346258E+02   -0.41919E-04   -0.46123E-04    64   0.131E-01    0.115E-02
RMM:   7    -0.239616391259E+02   -0.45001E-05   -0.17827E-05    64   0.346E-02    0.591E-03
RMM:   8    -0.239616583826E+02   -0.19257E-04   -0.10065E-05    64   0.199E-02    0.239E-03
RMM:   9    -0.239616625147E+02   -0.41321E-05   -0.30325E-06    60   0.108E-02    0.290E-03
RMM:  10    -0.239616682215E+02   -0.57067E-05   -0.12893E-06    48   0.691E-03    0.165E-03
RMM:  11    -0.239616700277E+02   -0.18062E-05   -0.86452E-07    48   0.645E-03    0.142E-03
RMM:  12    -0.239616713051E+02   -0.12774E-05   -0.75755E-07    48   0.539E-03    0.682E-04
RMM:  13    -0.239616718470E+02   -0.54188E-06   -0.13936E-07    48   0.306E-03
    3 T=    53. E= -.23932930E+02 F= -.23961672E+02 E0= -.23965758E+02  EK= 0.27538E-01 SP= 0.89E-03 SK= 0.31E-03
       N       E                     dE             d eps       ncg     rms          rms(c)
DAV:   1    -0.239885503259E+02   -0.26879E-01   -0.72298E-01    64   0.835E+00    0.526E-01
RMM:   2    -0.240180461911E+02   -0.29496E-01   -0.15242E-01    64   0.259E+00    0.104E+00
RMM:   3    -0.239853882529E+02    0.32658E-01   -0.21398E-01    64   0.259E+00    0.202E-01
RMM:   4    -0.239845251930E+02    0.86306E-03   -0.52120E-03    64   0.515E-01    0.727E-02
RMM:   5    -0.239845125590E+02    0.12634E-04   -0.24275E-04    64   0.117E-01    0.340E-02
RMM:   6    -0.239845674368E+02   -0.54878E-04   -0.17914E-04    64   0.854E-02    0.328E-02
RMM:   7    -0.239845529698E+02    0.14467E-04   -0.21341E-04    64   0.847E-02    0.763E-03
RMM:   8    -0.239845660922E+02   -0.13122E-04   -0.11046E-05    64   0.239E-02    0.318E-03
RMM:   9    -0.239845765697E+02   -0.10478E-04   -0.96261E-06    64   0.179E-02    0.512E-03
RMM:  10    -0.239845790952E+02   -0.25255E-05   -0.22735E-06    52   0.929E-03    0.177E-03
RMM:  11    -0.239845823615E+02   -0.32663E-05   -0.16747E-06    48   0.902E-03    0.970E-04
RMM:  12    -0.239845838580E+02   -0.14965E-05   -0.32034E-07    48   0.477E-03    0.889E-04
RMM:  13    -0.239845849146E+02   -0.10566E-05   -0.35036E-07    48   0.410E-03    0.162E-03
RMM:  14    -0.239845851892E+02   -0.27460E-06   -0.64901E-07    48   0.497E-03
    4 T=    89. E= -.23936571E+02 F= -.23984585E+02 E0= -.23989039E+02  EK= 0.45836E-01 SP= 0.15E-02 SK= 0.64E-03
       N       E                     dE             d eps       ncg     rms          rms(c)
DAV:   1    -0.239908262114E+02   -0.62413E-02   -0.16318E+00    64   0.124E+01    0.632E-01
RMM:   2    -0.239944623153E+02   -0.36361E-02   -0.79637E-02    64   0.208E+00    0.513E-01
RMM:   3    -0.239914015779E+02    0.30607E-02   -0.14324E-02    64   0.832E-01    0.314E-01
RMM:   4    -0.239879162363E+02    0.34853E-02   -0.11330E-02    64   0.631E-01    0.684E-02
RMM:   5    -0.239883628935E+02   -0.44666E-03   -0.15826E-03    64   0.256E-01    0.638E-02
RMM:   6    -0.239886369707E+02   -0.27408E-03   -0.42799E-04    64   0.137E-01    0.703E-02
RMM:   7    -0.239885786497E+02    0.58321E-04   -0.12539E-03    64   0.202E-01    0.139E-02
RMM:   8    -0.239886008611E+02   -0.22211E-04   -0.29696E-05    64   0.455E-02    0.143E-02
RMM:   9    -0.239886249113E+02   -0.24050E-04   -0.37441E-05    64   0.339E-02    0.236E-03
RMM:  10    -0.239886368628E+02   -0.11951E-04   -0.17802E-06    48   0.883E-03    0.248E-03
RMM:  11    -0.239886484879E+02   -0.11625E-04   -0.28872E-06    56   0.102E-02    0.157E-03
RMM:  12    -0.239886521344E+02   -0.36465E-05   -0.31839E-07    48   0.391E-03    0.924E-04
RMM:  13    -0.239886538706E+02   -0.17361E-05   -0.91022E-07    48   0.574E-03    0.975E-04
RMM:  14    -0.239886549281E+02   -0.10575E-05   -0.31734E-07    48   0.342E-03    0.418E-04
RMM:  15    -0.239886552376E+02   -0.30953E-06    0.00000E+00    32   0.143E-03
    5 T=   118. E= -.23923059E+02 F= -.23988655E+02 E0= -.23992931E+02  EK= 0.60938E-01 SP= 0.27E-02 SK= 0.20E-02
       N       E                     dE             d eps       ncg     rms          rms(c)
DAV:   1    -0.239918577610E+02   -0.32028E-02   -0.14677E+00    64   0.120E+01    0.619E-01
RMM:   2    -0.239875039210E+02    0.43538E-02   -0.47527E-02    64   0.182E+00    0.469E-01
RMM:   3    -0.239939520256E+02   -0.64481E-02   -0.19060E-02    64   0.940E-01    0.506E-01
RMM:   4    -0.239861513378E+02    0.78007E-02   -0.54682E-02    64   0.130E+00    0.156E-01
RMM:   5    -0.239880469903E+02   -0.18957E-02   -0.18856E-03    64   0.286E-01    0.800E-02
RMM:   6    -0.239895171614E+02   -0.14702E-02   -0.10506E-02    64   0.572E-01    0.175E-01
RMM:   7    -0.239887173075E+02    0.79985E-03   -0.34166E-03    64   0.336E-01    0.467E-02
RMM:   8    -0.239888412347E+02   -0.12393E-03   -0.42805E-04    64   0.135E-01    0.260E-02
RMM:   9    -0.239890499619E+02   -0.20873E-03   -0.83332E-04    64   0.170E-01    0.658E-02
RMM:  10    -0.239889663911E+02    0.83571E-04   -0.33572E-04    64   0.106E-01    0.214E-02
RMM:  11    -0.239889720392E+02   -0.56481E-05   -0.11080E-04    68   0.672E-02    0.460E-03
RMM:  12    -0.239889860637E+02   -0.14025E-04   -0.40774E-05    68   0.379E-02    0.115E-02
RMM:  13    -0.239889837881E+02    0.22756E-05   -0.27437E-05    64   0.294E-02    0.161E-03
RMM:  14    -0.239889869590E+02   -0.31709E-05   -0.64752E-07    48   0.654E-03    0.985E-04
RMM:  15    -0.239889896896E+02   -0.27306E-05   -0.83778E-07    48   0.548E-03    0.125E-03
RMM:  16    -0.239889912838E+02   -0.15941E-05   -0.18736E-07    48   0.272E-03    0.347E-04
RMM:  17    -0.239889920846E+02   -0.80082E-06   -0.34601E-07    48   0.366E-03
    6 T=    85. E= -.23936545E+02 F= -.23988992E+02 E0= -.23997547E+02  EK= 0.43837E-01 SP= 0.47E-02 SK= 0.39E-02
       N       E                     dE             d eps       ncg     rms          rms(c)
DAV:   1    -0.239809414406E+02    0.80498E-02   -0.89495E-01    64   0.855E+00    0.549E-01
RMM:   2    -0.239733118883E+02    0.76296E-02   -0.20004E-02    64   0.127E+00    0.308E-01
RMM:   3    -0.239745049435E+02   -0.11931E-02   -0.25068E-02    64   0.938E-01    0.276E-01
RMM:   4    -0.239735693792E+02    0.93556E-03   -0.31584E-03    64   0.365E-01    0.212E-01
RMM:   5    -0.239731636452E+02    0.40573E-03   -0.13246E-03    64   0.220E-01    0.144E-01
RMM:   6    -0.239727994307E+02    0.36421E-03   -0.38918E-03    64   0.365E-01    0.522E-02
RMM:   7    -0.239730093767E+02   -0.20995E-03   -0.25494E-04    64   0.111E-01    0.249E-02
RMM:   8    -0.239730586110E+02   -0.49234E-04   -0.49949E-05    64   0.474E-02    0.122E-02
RMM:   9    -0.239731141852E+02   -0.55574E-04   -0.12618E-04    64   0.649E-02    0.233E-02
RMM:  10    -0.239731014855E+02    0.12700E-04   -0.10501E-04    64   0.580E-02    0.272E-03
RMM:  11    -0.239731130472E+02   -0.11562E-04   -0.50942E-06    60   0.170E-02    0.157E-03
RMM:  12    -0.239731183018E+02   -0.52546E-05   -0.10799E-06    48   0.681E-03    0.120E-03
RMM:  13    -0.239731197975E+02   -0.14957E-05   -0.39918E-07    48   0.414E-03    0.114E-03
RMM:  14    -0.239731200550E+02   -0.25745E-06   -0.73217E-08    48   0.211E-03
    7 T=    65. E= -.23927059E+02 F= -.23973120E+02 E0= -.23977164E+02  EK= 0.33819E-01 SP= 0.71E-02 SK= 0.51E-02
       N       E                     dE             d eps       ncg     rms          rms(c)
DAV:   1    -0.239876151211E+02   -0.14495E-01   -0.13155E+00    64   0.111E+01    0.664E-01
RMM:   2    -0.240637028999E+02   -0.76088E-01   -0.66276E-01    64   0.470E+00    0.153E+00
RMM:   3    -0.239740314709E+02    0.89671E-01   -0.26957E-01    64   0.297E+00    0.332E-01
RMM:   4    -0.239759576026E+02   -0.19261E-02   -0.76805E-02    64   0.168E+00    0.237E-01
RMM:   5    -0.239746872892E+02    0.12703E-02   -0.59702E-03    64   0.514E-01    0.870E-02
RMM:   6    -0.239757782913E+02   -0.10910E-02   -0.14014E-03    64   0.233E-01    0.109E-01
RMM:   7    -0.239761266823E+02   -0.34839E-03   -0.40736E-04    64   0.126E-01    0.399E-02
RMM:   8    -0.239762379669E+02   -0.11128E-03   -0.28626E-04    64   0.101E-01    0.274E-02
RMM:   9    -0.239763180914E+02   -0.80124E-04   -0.57199E-05    64   0.509E-02    0.315E-02
RMM:  10    -0.239763426227E+02   -0.24531E-04   -0.13215E-04    64   0.666E-02    0.515E-03
RMM:  11    -0.239763870794E+02   -0.44457E-04   -0.75623E-06    60   0.197E-02    0.429E-03
RMM:  12    -0.239764090886E+02   -0.22009E-04   -0.61141E-06    64   0.140E-02    0.229E-03
RMM:  13    -0.239764182783E+02   -0.91897E-05   -0.45882E-06    60   0.123E-02    0.273E-03
RMM:  14    -0.239764195885E+02   -0.13102E-05   -0.99674E-07    48   0.619E-03    0.117E-03
RMM:  15    -0.239764206541E+02   -0.10656E-05   -0.48587E-07    48   0.528E-03    0.464E-04
RMM:  16    -0.239764208891E+02   -0.23499E-06   -0.96827E-08    44   0.269E-03
    8 T=    85. E= -.23916164E+02 F= -.23976421E+02 E0= -.23985018E+02  EK= 0.43965E-01 SP= 0.98E-02 SK= 0.65E-02
       N       E                     dE             d eps       ncg     rms          rms(c)
DAV:   1    -0.240019366532E+02   -0.25516E-01   -0.19497E+00    64   0.133E+01    0.689E-01
RMM:   2    -0.242474407812E+02   -0.24550E+00   -0.13243E+00    64   0.683E+00    0.279E+00
RMM:   3    -0.240055441776E+02    0.24190E+00   -0.15044E+00    64   0.696E+00    0.655E-01
RMM:   4    -0.239979788929E+02    0.75653E-02   -0.18773E-02    64   0.109E+00    0.411E-01
RMM:   5    -0.239937212723E+02    0.42576E-02   -0.14271E-02    64   0.700E-01    0.151E-01
RMM:   6    -0.239945176148E+02   -0.79634E-03   -0.38613E-03    64   0.398E-01    0.989E-02
RMM:   7    -0.239946861605E+02   -0.16855E-03   -0.40849E-04    64   0.137E-01    0.615E-02
RMM:   8    -0.239947423625E+02   -0.56202E-04   -0.39524E-04    64   0.123E-01    0.289E-02
RMM:   9    -0.239948921067E+02   -0.14974E-03   -0.80593E-04    64   0.167E-01    0.394E-02
RMM:  10    -0.239948699647E+02    0.22142E-04   -0.61519E-05    64   0.502E-02    0.176E-02
RMM:  11    -0.239948913914E+02   -0.21427E-04   -0.14250E-04    64   0.696E-02    0.769E-03
RMM:  12    -0.239949006961E+02   -0.93047E-05   -0.84709E-06    64   0.185E-02    0.987E-04
RMM:  13    -0.239949087447E+02   -0.80486E-05   -0.15460E-06    48   0.834E-03    0.150E-03
RMM:  14    -0.239949109993E+02   -0.22547E-05   -0.32734E-07    48   0.446E-03    0.150E-03
RMM:  15    -0.239949113180E+02   -0.31864E-06   -0.33932E-07    48   0.359E-03
    9 T=   104. E= -.23918794E+02 F= -.23994911E+02 E0= -.23999551E+02  EK= 0.53849E-01 SP= 0.13E-01 SK= 0.94E-02
       N       E                     dE             d eps       ncg     rms          rms(c)
DAV:   1    -0.239595395852E+02    0.35371E-01   -0.53508E-01    64   0.740E+00    0.505E-01
RMM:   2    -0.239539640706E+02    0.55755E-02   -0.49136E-02    64   0.158E+00    0.302E-01
RMM:   3    -0.239665582215E+02   -0.12594E-01   -0.38643E-02    64   0.120E+00    0.650E-01
RMM:   4    -0.239562472832E+02    0.10311E-01   -0.34641E-02    64   0.107E+00    0.354E-01
RMM:   5    -0.239552043353E+02    0.10429E-02   -0.10554E-02    64   0.655E-01    0.661E-02
RMM:   6    -0.239558221892E+02   -0.61785E-03   -0.97636E-04    64   0.232E-01    0.322E-02
RMM:   7    -0.239562040854E+02   -0.38190E-03   -0.13050E-04    64   0.760E-02    0.223E-02
RMM:   8    -0.239563857449E+02   -0.18166E-03   -0.98628E-05    64   0.593E-02    0.115E-02
RMM:   9    -0.239564210455E+02   -0.35301E-04   -0.96112E-06    64   0.208E-02    0.703E-03
RMM:  10    -0.239564311502E+02   -0.10105E-04   -0.12237E-05    64   0.204E-02    0.373E-03
RMM:  11    -0.239564481821E+02   -0.17032E-04   -0.28699E-06    60   0.102E-02    0.156E-03
RMM:  12    -0.239564538501E+02   -0.56681E-05   -0.71515E-07    48   0.594E-03    0.181E-03
RMM:  13    -0.239564549623E+02   -0.11121E-05   -0.26480E-07    48   0.344E-03    0.710E-04
RMM:  14    -0.239564554247E+02   -0.46239E-06   -0.72326E-08    44   0.204E-03
   10 T=    74. E= -.23889054E+02 F= -.23956455E+02 E0= -.23965874E+02  EK= 0.38494E-01 SP= 0.17E-01 SK= 0.12E-01
