 vasp.5.4.4.18Apr17-6-g9f103f2a35 (build Jul 12 2018 13:43:46) complex           
 executed on             LinuxGNU date 2019.06.22  02:17:32
 running on    1 total cores
 distrk:  each k-point on    1 cores,    1 groups
 distr:  one band on NCORES_PER_BAND=   1 cores,    1 groups


--------------------------------------------------------------------------------------------------------


 INCAR:
 POTCAR:    PAW_PBE H 15Jun2001                   
 POTCAR:    PAW_PBE C 08Apr2002                   
 POTCAR:    PAW_PBE H 15Jun2001                   
   VRHFIN =H: ultrasoft test                                                    
   LEXCH  = PE                                                                  
   EATOM  =    12.4884 eV,    0.9179 Ry                                         
                                                                                
   TITEL  = PAW_PBE H 15Jun2001                                                 
   LULTRA =        F    use ultrasoft PP ?                                      
   IUNSCR =        0    unscreen: 0-lin 1-nonlin 2-no                           
   RPACOR =    0.000    partial core radius                                     
   POMASS =    1.000; ZVAL   =    1.000    mass and valenz                      
   RCORE  =    1.100    outmost cutoff radius                                   
   RWIGS  =    0.700; RWIGS  =    0.370    wigner-seitz radius (au A)           
   ENMAX  =  250.000; ENMIN  =  200.000 eV                                      
   RCLOC  =    0.701    cutoff for local pot                                    
   LCOR   =        T    correct aug charges                                     
   LPAW   =        T    paw PP                                                  
   EAUG   =  400.000                                                            
   RMAX   =    1.123    core radius for proj-oper                               
   RAUG   =    1.200    factor for augmentation sphere                          
   RDEP   =    1.112    radius for radial grids                                 
   RDEPT  =    0.926    core radius for aug-charge                              
                                                                                
   Atomic configuration                                                         
    2 entries                                                                   
     n  l   j            E        occ.                                          
     1  0  0.50        -6.4927   1.0000                                         
     2  1  0.50        -3.4015   0.0000                                         
   Description                                                                  
     l       E           TYP  RCUT    TYP  RCUT                                 
     0     -6.4927494     23  1.100                                             
     0      6.8029130     23  1.100                                             
     1     -4.0817478     23  1.100                                             
  local pseudopotential read in
  atomic valenz-charges read in
  non local Contribution for L=           0  read in
    real space projection operators read in
  non local Contribution for L=           0  read in
    real space projection operators read in
  non local Contribution for L=           1  read in
    real space projection operators read in
    PAW grid and wavefunctions read in

   number of l-projection  operators is LMAX  =           3
   number of lm-projection operators is LMMAX =           5

 POTCAR:    PAW_PBE C 08Apr2002                   
   VRHFIN =C: s2p2                                                              
   LEXCH  = PE                                                                  
   EATOM  =   147.1560 eV,   10.8157 Ry                                         
                                                                                
   TITEL  = PAW_PBE C 08Apr2002                                                 
   LULTRA =        F    use ultrasoft PP ?                                      
   IUNSCR =        1    unscreen: 0-lin 1-nonlin 2-no                           
   RPACOR =    1.200    partial core radius                                     
   POMASS =   12.011; ZVAL   =    4.000    mass and valenz                      
   RCORE  =    1.500    outmost cutoff radius                                   
   RWIGS  =    1.630; RWIGS  =    0.863    wigner-seitz radius (au A)           
   ENMAX  =  400.000; ENMIN  =  300.000 eV                                      
   ICORE  =        2    local potential                                         
   LCOR   =        T    correct aug charges                                     
   LPAW   =        T    paw PP                                                  
   EAUG   =  644.873                                                            
   DEXC   =    0.000                                                            
   RMAX   =    1.529    core radius for proj-oper                               
   RAUG   =    1.300    factor for augmentation sphere                          
   RDEP   =    1.501    radius for radial grids                                 
   RDEPT  =    1.300    core radius for aug-charge                              
                                                                                
   Atomic configuration                                                         
    4 entries                                                                   
     n  l   j            E        occ.                                          
     1  0  0.50      -273.3789   2.0000                                         
     2  0  0.50       -13.7508   2.0000                                         
     2  1  0.50        -5.2854   2.0000                                         
     3  2  1.50        -5.4423   0.0000                                         
   Description                                                                  
     l       E           TYP  RCUT    TYP  RCUT                                 
     0    -13.7508458     23  1.200                                             
     0     -8.2022199     23  1.200                                             
     1     -5.2854383     23  1.500                                             
     1     34.0145650     23  1.500                                             
     2     -5.4423304      7  1.500                                             
  local pseudopotential read in
  partial core-charges read in
  partial kinetic energy density read in
  atomic valenz-charges read in
  non local Contribution for L=           0  read in
    real space projection operators read in
  non local Contribution for L=           0  read in
    real space projection operators read in
  non local Contribution for L=           1  read in
    real space projection operators read in
  non local Contribution for L=           1  read in
    real space projection operators read in
    PAW grid and wavefunctions read in

   number of l-projection  operators is LMAX  =           4
   number of lm-projection operators is LMMAX =           8


 ----------------------------------------------------------------------------- 
|                                                                             |
|  ADVICE TO THIS USER RUNNING 'VASP/VAMP'   (HEAR YOUR MASTER'S VOICE ...):  |
|                                                                             |
|      You have a (more or less) 'small supercell' and for smaller cells      |
|      it is recommended  to use the reciprocal-space projection scheme!      |
|      The real space optimization is not  efficient for small cells and it   |
|      is also less accurate ...                                              |
|      Therefore set LREAL=.FALSE. in the  INCAR file                         |
|                                                                             |
 ----------------------------------------------------------------------------- 


 ----------------------------------------------------------------------------- 
|                                                                             |
|           W    W    AA    RRRRR   N    N  II  N    N   GGGG   !!!           |
|           W    W   A  A   R    R  NN   N  II  NN   N  G    G  !!!           |
|           W    W  A    A  R    R  N N  N  II  N N  N  G       !!!           |
|           W WW W  AAAAAA  RRRRR   N  N N  II  N  N N  G  GGG   !            |
|           WW  WW  A    A  R   R   N   NN  II  N   NN  G    G                |
|           W    W  A    A  R    R  N    N  II  N    N   GGGG   !!!           |
|                                                                             |
|     The real-space-projection scheme for the treatment of the nonlocal      |
|     pseudopotentials has been switched on -- but on file POTCAR I have      |
|     not found any entries signalling me that you have ever performed a      |
|     real-space optimization of all nonlocal projectors! BE WARNED that      |
|     a calculation using the real-space-projection scheme together with      |
|     nonlocal projectors which were not real-space-optimized (according      |
|     to the plane-wave-cutoff used in this calculation) might give more      |
|     or less inaccurate results                                              |
|     I hope you know what you are doing                                      |
|                                                                             |
 ----------------------------------------------------------------------------- 

  PAW_PBE H 15Jun2001                   :
 energy of atom  1       EATOM=  -12.4884
 kinetic energy error for atom=    0.0098 (will be added to EATOM!!)
  PAW_PBE C 08Apr2002                   :
 energy of atom  2       EATOM= -147.1560
 kinetic energy error for atom=    0.0288 (will be added to EATOM!!)


 POSCAR:  H  C                                   
  positions in cartesian coordinates
  No initial velocities read in
 exchange correlation table for  LEXCH =        8
   RHO(1)=    0.500       N(1)  =     2000
   RHO(2)=  100.500       N(2)  =     4000



--------------------------------------------------------------------------------------------------------


 ion  position               nearest neighbor table
   1  0.538  0.407  0.361-   5 1.09
   2  0.395  0.481  0.439-   5 1.08
   3  0.553  0.566  0.443-   5 1.10
   4  0.528  0.417  0.539-   5 1.09
   5  0.503  0.467  0.446-   2 1.08   1 1.09   4 1.09   3 1.10


IMPORTANT INFORMATION: All symmetrisations will be switched off!
NOSYMM: (Re-)initialisation of all symmetry stuff for point group C_1.




Automatic generation of k-mesh.
 generate k-points for:    2    2    2
Space group operators:
 irot       det(A)        alpha          n_x          n_y          n_z        tau_x        tau_y        tau_z
    1     1.000000     0.000000     1.000000     0.000000     0.000000     0.000000     0.000000     0.000000
 
 Subroutine IBZKPT returns following result:
 ===========================================
 
 Found      4 irreducible k-points:
 
 Following reciprocal coordinates:
            Coordinates               Weight
  0.250000  0.250000  0.250000      2.000000
 -0.250000  0.250000  0.250000      2.000000
  0.250000 -0.250000  0.250000      2.000000
 -0.250000 -0.250000  0.250000      2.000000
 
 Following cartesian coordinates:
            Coordinates               Weight
  0.025241  0.025187  0.026272      2.000000
 -0.025241  0.024981  0.025140      2.000000
  0.025241 -0.024981  0.025002      2.000000
 -0.025241 -0.025187  0.023870      2.000000
 


--------------------------------------------------------------------------------------------------------




 Dimension of arrays:
   k-points           NKPTS =      4   k-points in BZ     NKDIM =      4   number of bands    NBANDS=      8
   number of dos      NEDOS =    301   number of ions     NIONS =      5
   non local maximal  LDIM  =      4   non local SUM 2l+1 LMDIM =      8
   total plane-waves  NPLWV = 343000
   max r-space proj   IRMAX =    822   max aug-charges    IRDMAX=   4311
   dimension x,y,z NGX =    70 NGY =   70 NGZ =   70
   dimension x,y,z NGXF=   140 NGYF=  140 NGZF=  140
   support grid    NGXF=   140 NGYF=  140 NGZF=  140
   ions per type =               4   1
   NGX,Y,Z   is equivalent  to a cutoff of  11.75, 11.68, 11.66 a.u.
   NGXF,Y,Z  is equivalent  to a cutoff of  23.50, 23.35, 23.33 a.u.

 SYSTEM =  unknown system                          
 POSCAR =   H  C                                   

 Startparameter for this run:
   NWRITE =      2    write-flag & timer
   PREC   = a         normal or accurate (medium, high low for compatibility)
   ISTART =      0    job   : 0-new  1-cont  2-samecut
   ICHARG =      2    charge: 1-file 2-atom 10-const
   ISPIN  =      1    spin polarized calculation?
   LNONCOLLINEAR =      F non collinear calculations
   LSORBIT =      F    spin-orbit coupling
   INIWAV =      1    electr: 0-lowe 1-rand  2-diag
   LASPH  =      F    aspherical Exc in radial PAW
   METAGGA=      F    non-selfconsistent MetaGGA calc.

 Electronic Relaxation 1
   ENCUT  =  400.0 eV  29.40 Ry    5.42 a.u.  16.15 16.25 16.27*2*pi/ulx,y,z
   ENINI  =  400.0     initial cutoff
   ENAUG  =  644.9 eV  augmentation charge cutoff
   NELM   =     60;   NELMIN=  2; NELMDL= -5     # of ELM steps 
   EDIFF  = 0.1E-05   stopping-criterion for ELM
   LREAL  =      T    real-space projection
   NLSPLINE    = F    spline interpolate recip. space projectors
   LCOMPAT=      F    compatible to vasp.4.4
   GGA_COMPAT  = T    GGA compatible to vasp.4.4-vasp.4.6
   LMAXPAW     = -100 max onsite density
   LMAXMIX     =    2 max onsite mixed and CHGCAR
   VOSKOWN=      0    Vosko Wilk Nusair interpolation
   ROPT   =    0.00000   0.00000
 Ionic relaxation
   EDIFFG = 0.1E-04   stopping-criterion for IOM
   NSW    =     10    number of steps for IOM
   NBLOCK =      1;   KBLOCK =      1    inner block; outer block 
   IBRION =      0    ionic relax: 0-MD 1-quasi-New 2-CG
   NFREE  =      0    steps in history (QN), initial steepest desc. (CG)
   ISIF   =      2    stress and relaxation
   IWAVPR =     12    prediction:  0-non 1-charg 2-wave 3-comb
   ISYM   =      0    0-nonsym 1-usesym 2-fastsym
   LCORR  =      T    Harris-Foulkes like correction to forces

   POTIM  = 2.0000    time-step for ionic-motion
   TEIN   =   50.0    initial temperature
   TEBEG  =   50.0;   TEEND  =  50.0 temperature during run
   SMASS  =   0.00    Nose mass-parameter (am)
   estimated Nose-frequenzy (Omega)   =  0.79E+14 period in steps = 40.00 mass=   0.123E-29a.u.
   SCALEE = 1.0000    scale energy and forces
   NPACO  =    256;   APACO  = 16.0  distance and # of slots for P.C.
   PSTRESS=    0.0 pullay stress

  Mass of Ions in am
   POMASS =   1.00 12.01
  Ionic Valenz
   ZVAL   =   1.00  4.00
  Atomic Wigner-Seitz radii
   RWIGS  =  -1.00 -1.00
  virtual crystal weights 
   VCA    =   1.00  1.00
   NELECT =       8.0000    total number of electrons
   NUPDOWN=      -1.0000    fix difference up-down

 DOS related values:
   EMIN   =  10.00;   EMAX   =-10.00  energy-range for DOS
   EFERMI =   0.00
   ISMEAR =     1;   SIGMA  =   0.20  broadening in eV -4-tet -1-fermi 0-gaus

 Electronic relaxation 2 (details)
   IALGO  =     68    algorithm
   LDIAG  =      T    sub-space diagonalisation (order eigenvalues)
   LSUBROT=      F    optimize rotation matrix (better conditioning)
   TURBO    =      0    0=normal 1=particle mesh
   IRESTART =      0    0=no restart 2=restart with 2 vectors
   NREBOOT  =      0    no. of reboots
   NMIN     =      0    reboot dimension
   EREF     =   0.00    reference energy to select bands
   IMIX   =      4    mixing-type and parameters
     AMIX     =   0.40;   BMIX     =  1.00
     AMIX_MAG =   1.60;   BMIX_MAG =  1.00
     AMIN     =   0.10
     WC   =   100.;   INIMIX=   1;  MIXPRE=   1;  MAXMIX=  50

 Intra band minimization:
   WEIMIN = 0.0010     energy-eigenvalue tresh-hold
   EBREAK =  0.31E-07  absolut break condition
   DEPER  =   0.30     relativ break condition  

   TIME   =   0.40     timestep for ELM

  volume/ion in A,a.u.               =     196.87      1328.53
  Fermi-wavevector in a.u.,A,eV,Ry     =   0.329147  0.621998  1.474027  0.108338
  Thomas-Fermi vector in A             =   1.223345

 Write flags
   LWAVE        =      F    write WAVECAR
   LDOWNSAMPLE  =      F    k-point downsampling of WAVECAR
   LCHARG       =      F    write CHGCAR
   LVTOT        =      F    write LOCPOT, total local potential
   LVHAR        =      F    write LOCPOT, Hartree potential only
   LELF         =      F    write electronic localiz. function (ELF)
   LORBIT       =      0    0 simple, 1 ext, 2 COOP (PROOUT), +10 PAW based schemes


 Dipole corrections
   LMONO  =      F    monopole corrections only (constant potential shift)
   LDIPOL =      F    correct potential (dipole corrections)
   IDIPOL =      0    1-x, 2-y, 3-z, 4-all directions 
   EPSILON=  1.0000000 bulk dielectric constant

 Exchange correlation treatment:
   GGA     =    --    GGA type
   LEXCH   =     8    internal setting for exchange type
   VOSKOWN=      0    Vosko Wilk Nusair interpolation
   LHFCALC =     F    Hartree Fock is set to
   LHFONE  =     F    Hartree Fock one center treatment
   AEXX    =    0.0000 exact exchange contribution

 Linear response parameters
   LEPSILON=     F    determine dielectric tensor
   LRPA    =     F    only Hartree local field effects (RPA)
   LNABLA  =     F    use nabla operator in PAW spheres
   LVEL    =     F    velocity operator in full k-point grid
   LINTERFAST=   F  fast interpolation
   KINTER  =     0    interpolate to denser k-point grid
   CSHIFT  =0.1000    complex shift for real part using Kramers Kronig
   OMEGAMAX=  -1.0    maximum frequency
   DEG_THRESHOLD= 0.2000000E-02 threshold for treating states as degnerate
   RTIME   =   -0.100 relaxation time in fs
  (WPLASMAI=    0.000 imaginary part of plasma frequency in eV, 0.658/RTIME)
   DFIELD  = 0.0000000 0.0000000 0.0000000 field for delta impulse in time

 Orbital magnetization related:
   ORBITALMAG=     F  switch on orbital magnetization
   LCHIMAG   =     F  perturbation theory with respect to B field
   DQ        =  0.001000  dq finite difference perturbation B field
   LLRAUG    =     F  two centre corrections for induced B field



--------------------------------------------------------------------------------------------------------


 molecular dynamics for ions
   using nose mass (canonical ensemble)
 charge density and potential will be updated during run
 non-spin polarized calculation
 RMM-DIIS sequential band-by-band and
  variant of blocked Davidson during initial phase
 perform sub-space diagonalisation
    before iterative eigenvector-optimisation
 modified Broyden-mixing scheme, WC =      100.0
 initial mixing is a Kerker type mixing with AMIX =  0.4000 and BMIX =      1.0000
 Hartree-type preconditioning will be used
 using additional bands            4
 real space projection scheme for non local part
 use partial core corrections
 calculate Harris-corrections to forces   (improved forces if not selfconsistent)
 use gradient corrections 
 use of overlap-Matrix (Vanderbilt PP)
 Methfessel and Paxton  Order N= 1 SIGMA  =   0.20


--------------------------------------------------------------------------------------------------------


  energy-cutoff  :      400.00
  volume of cell :      984.34
      direct lattice vectors                 reciprocal lattice vectors
     9.904453092  0.000000000  0.000000000     0.100964686  0.000412883  0.002264167
    -0.040756886  9.966527312  0.000000000    -0.000000000  0.100335851  0.002539965
    -0.222586553 -0.252430118  9.971706720     0.000000000 -0.000000000  0.100283736

  length of vectors
     9.904453092  9.966610647  9.977384459     0.100990915  0.100367995  0.100283736



 k-points in units of 2pi/SCALE and weight: read from INCAR                         
   0.02524117  0.02518718  0.02627197       0.250
  -0.02524117  0.02498074  0.02513988       0.250
   0.02524117 -0.02498074  0.02500198       0.250
  -0.02524117 -0.02518718  0.02386990       0.250

 k-points in reciprocal lattice and weights: read from INCAR                         
   0.25000000  0.25000000  0.25000000       0.250
  -0.25000000  0.25000000  0.25000000       0.250
   0.25000000 -0.25000000  0.25000000       0.250
  -0.25000000 -0.25000000  0.25000000       0.250

 position of ions in fractional coordinates (direct lattice) 
   0.53800040  0.40666389  0.36077924
   0.39479837  0.48066691  0.43862191
   0.55272486  0.56621796  0.44264533
   0.52833428  0.41653952  0.53913518
   0.50262081  0.46718207  0.44591101

 position of ions in cartesian coordinates  (Angst):
   5.23172079  3.96195525  3.59758474
   3.79304014  4.67985848  4.37380907
   5.35283323  5.53148971  4.41392941
   5.09588097  4.01535856  5.37609788
   4.85988960  4.54362153  4.44649383



--------------------------------------------------------------------------------------------------------


 k-point  1 :   0.2500 0.2500 0.2500  plane waves:   17861
 k-point  2 :  -0.2500 0.2500 0.2500  plane waves:   17887
 k-point  3 :   0.2500-0.2500 0.2500  plane waves:   17882
 k-point  4 :  -0.2500-0.2500 0.2500  plane waves:   17877

 maximum and minimum number of plane-waves per node :     17887    17861

 maximum number of plane-waves:     17887
 maximum index in each direction: 
   IXMAX=   16   IYMAX=   16   IZMAX=   16
   IXMIN=  -16   IYMIN=  -16   IZMIN=  -16


 serial   3D FFT for wavefunctions
 parallel 3D FFT for charge:
    minimum data exchange during FFTs selected (reduces bandwidth)


 total amount of memory used by VASP MPI-rank0   303088. kBytes
=======================================================================

   base      :      30000. kBytes
   nonlr-proj:        171. kBytes
   fftplans  :      94700. kBytes
   grid      :     169030. kBytes
   one-center:         15. kBytes
   wavefun   :       9172. kBytes

     INWAV:  cpu time    0.0000: real time    0.0000
 Broyden mixing: mesh for mixing (old mesh)
   NGX = 33   NGY = 33   NGZ = 33
  (NGX  =140   NGY  =140   NGZ  =140)
  gives a total of  35937 points

 initial charge density was supplied:
 charge density of overlapping atoms calculated
 number of electron       8.0000000 magnetization 
 keeping initial charge density in first step


--------------------------------------------------------------------------------------------------------


 Maximum index for non-local projection operator          751
 Maximum index for augmentation-charges         3987 (set IRDMAX)


--------------------------------------------------------------------------------------------------------


 First call to EWALD:  gamma=   0.178
 Maximum number of real-space cells 3x 3x 3
 Maximum number of reciprocal cells 3x 3x 3

    FEWALD:  cpu time    0.0007: real time    0.0007


--------------------------------------- Iteration      1(   1)  ---------------------------------------


    POTLOK:  cpu time    1.8452: real time    1.8498
    SETDIJ:  cpu time    0.0068: real time    0.0068
     EDDAV:  cpu time    2.9340: real time    2.9410
       DOS:  cpu time    0.0003: real time    0.0003
    --------------------------------------------
      LOOP:  cpu time    4.7863: real time    4.7978

 eigenvalue-minimisations  :    96
 total energy-change (2. order) : 0.1352387E+02  (-0.1956288E+03)
 number of electron       8.0000000 magnetization 
 augmentation part        8.0000000 magnetization 

 Free energy of the ion-electron system (eV)
  ---------------------------------------------------
  alpha Z        PSCENC =         0.24610552
  Ewald energy   TEWEN  =       128.98114501
  -Hartree energ DENC   =      -243.81165491
  -exchange      EXHF   =         0.00000000
  -V(xc)+E(xc)   XCENC  =        22.03222876
  PAW double counting   =       117.05815612     -117.66307307
  entropy T*S    EENTRO =         0.00289895
  eigenvalues    EBANDS =       -90.36368675
  atomic energy  EATOM  =       197.04175453
  Solvation  Ediel_sol  =         0.00000000
  ---------------------------------------------------
  free energy    TOTEN  =        13.52387416 eV

  energy without entropy =       13.52097521  energy(sigma->0) =       13.52290785


--------------------------------------------------------------------------------------------------------




--------------------------------------- Iteration      1(   2)  ---------------------------------------


     EDDAV:  cpu time    2.1947: real time    2.2000
       DOS:  cpu time    0.0002: real time    0.0002
    --------------------------------------------
      LOOP:  cpu time    2.1949: real time    2.2002

 eigenvalue-minimisations  :    64
 total energy-change (2. order) :-0.3702901E+02  (-0.3702903E+02)
 number of electron       8.0000000 magnetization 
 augmentation part        8.0000000 magnetization 

 Free energy of the ion-electron system (eV)
  ---------------------------------------------------
  alpha Z        PSCENC =         0.24610552
  Ewald energy   TEWEN  =       128.98114501
  -Hartree energ DENC   =      -243.81165491
  -exchange      EXHF   =         0.00000000
  -V(xc)+E(xc)   XCENC  =        22.03222876
  PAW double counting   =       117.05815612     -117.66307307
  entropy T*S    EENTRO =         0.00305668
  eigenvalues    EBANDS =      -127.39285435
  atomic energy  EATOM  =       197.04175453
  Solvation  Ediel_sol  =         0.00000000
  ---------------------------------------------------
  free energy    TOTEN  =       -23.50513571 eV

  energy without entropy =      -23.50819239  energy(sigma->0) =      -23.50615461


--------------------------------------------------------------------------------------------------------




--------------------------------------- Iteration      1(   3)  ---------------------------------------


     EDDAV:  cpu time    2.1980: real time    2.2034
       DOS:  cpu time    0.0002: real time    0.0002
    --------------------------------------------
      LOOP:  cpu time    2.1982: real time    2.2036

 eigenvalue-minimisations  :    64
 total energy-change (2. order) :-0.3942788E+01  (-0.3952811E+01)
 number of electron       8.0000000 magnetization 
 augmentation part        8.0000000 magnetization 

 Free energy of the ion-electron system (eV)
  ---------------------------------------------------
  alpha Z        PSCENC =         0.24610552
  Ewald energy   TEWEN  =       128.98114501
  -Hartree energ DENC   =      -243.81165491
  -exchange      EXHF   =         0.00000000
  -V(xc)+E(xc)   XCENC  =        22.03222876
  PAW double counting   =       117.05815612     -117.66307307
  entropy T*S    EENTRO =         0.02054416
  eigenvalues    EBANDS =      -131.35313013
  atomic energy  EATOM  =       197.04175453
  Solvation  Ediel_sol  =         0.00000000
  ---------------------------------------------------
  free energy    TOTEN  =       -27.44792401 eV

  energy without entropy =      -27.46846818  energy(sigma->0) =      -27.45477207


--------------------------------------------------------------------------------------------------------




--------------------------------------- Iteration      1(   4)  ---------------------------------------


     EDDAV:  cpu time    3.9416: real time    3.9510
       DOS:  cpu time    0.0002: real time    0.0002
    --------------------------------------------
      LOOP:  cpu time    3.9419: real time    3.9513

 eigenvalue-minimisations  :   128
 total energy-change (2. order) :-0.1493033E+00  (-0.1491616E+00)
 number of electron       8.0000000 magnetization 
 augmentation part        8.0000000 magnetization 

 Free energy of the ion-electron system (eV)
  ---------------------------------------------------
  alpha Z        PSCENC =         0.24610552
  Ewald energy   TEWEN  =       128.98114501
  -Hartree energ DENC   =      -243.81165491
  -exchange      EXHF   =         0.00000000
  -V(xc)+E(xc)   XCENC  =        22.03222876
  PAW double counting   =       117.05815612     -117.66307307
  entropy T*S    EENTRO =         0.02086936
  eigenvalues    EBANDS =      -131.50275865
  atomic energy  EATOM  =       197.04175453
  Solvation  Ediel_sol  =         0.00000000
  ---------------------------------------------------
  free energy    TOTEN  =       -27.59722733 eV

  energy without entropy =      -27.61809669  energy(sigma->0) =      -27.60418379


--------------------------------------------------------------------------------------------------------




--------------------------------------- Iteration      1(   5)  ---------------------------------------


     EDDAV:  cpu time    3.0337: real time    3.0409
       DOS:  cpu time    0.0002: real time    0.0002
    CHARGE:  cpu time    0.2169: real time    0.2174
    MIXING:  cpu time    0.0426: real time    0.0427
    --------------------------------------------
      LOOP:  cpu time    3.2935: real time    3.3013

 eigenvalue-minimisations  :    96
 total energy-change (2. order) :-0.4291826E-04  (-0.4291751E-04)
 number of electron       8.0000000 magnetization 
 augmentation part        0.2265447 magnetization 

 Broyden mixing:
  rms(total) = 0.88236E+00    rms(broyden)= 0.88217E+00
  rms(prec ) = 0.12572E+01
  weight for this iteration     100.00

 Free energy of the ion-electron system (eV)
  ---------------------------------------------------
  alpha Z        PSCENC =         0.24610552
  Ewald energy   TEWEN  =       128.98114501
  -Hartree energ DENC   =      -243.81165491
  -exchange      EXHF   =         0.00000000
  -V(xc)+E(xc)   XCENC  =        22.03222876
  PAW double counting   =       117.05815612     -117.66307307
  entropy T*S    EENTRO =         0.02086955
  eigenvalues    EBANDS =      -131.50280176
  atomic energy  EATOM  =       197.04175453
  Solvation  Ediel_sol  =         0.00000000
  ---------------------------------------------------
  free energy    TOTEN  =       -27.59727025 eV

  energy without entropy =      -27.61813980  energy(sigma->0) =      -27.60422677


--------------------------------------------------------------------------------------------------------




--------------------------------------- Iteration      1(   6)  ---------------------------------------


    POTLOK:  cpu time    1.8874: real time    1.8918
    SETDIJ:  cpu time    0.0066: real time    0.0066
    EDDIAG:  cpu time    0.4939: real time    0.4951
  RMM-DIIS:  cpu time    1.5473: real time    1.5511
    ORTHCH:  cpu time    0.0111: real time    0.0111
       DOS:  cpu time    0.0002: real time    0.0002
    CHARGE:  cpu time    0.1995: real time    0.2000
    MIXING:  cpu time    0.0429: real time    0.0430
    --------------------------------------------
      LOOP:  cpu time    4.1888: real time    4.1989

 eigenvalue-minimisations  :    64
 total energy-change (2. order) : 0.2944150E+01  (-0.5452847E+00)
 number of electron       8.0000000 magnetization 
 augmentation part        0.1995876 magnetization 

 Broyden mixing:
  rms(total) = 0.43561E+00    rms(broyden)= 0.43553E+00
  rms(prec ) = 0.56783E+00
  weight for this iteration     100.00

 eigenvalues of (default mixing * dielectric matrix)
  average eigenvalue GAMMA=   1.3114
  1.3114

 Free energy of the ion-electron system (eV)
  ---------------------------------------------------
  alpha Z        PSCENC =         0.24610552
  Ewald energy   TEWEN  =       128.98114501
  -Hartree energ DENC   =      -263.70956051
  -exchange      EXHF   =         0.00000000
  -V(xc)+E(xc)   XCENC  =        23.23965073
  PAW double counting   =       240.76594328     -241.54835776
  entropy T*S    EENTRO =         0.02755059
  eigenvalues    EBANDS =      -109.69735178
  atomic energy  EATOM  =       197.04175453
  Solvation  Ediel_sol  =         0.00000000
  ---------------------------------------------------
  free energy    TOTEN  =       -24.65312040 eV

  energy without entropy =      -24.68067100  energy(sigma->0) =      -24.66230394


--------------------------------------------------------------------------------------------------------




--------------------------------------- Iteration      1(   7)  ---------------------------------------


    POTLOK:  cpu time    1.9178: real time    1.9223
    SETDIJ:  cpu time    0.0065: real time    0.0065
    EDDIAG:  cpu time    0.4806: real time    0.4817
  RMM-DIIS:  cpu time    1.5484: real time    1.5521
    ORTHCH:  cpu time    0.0115: real time    0.0115
       DOS:  cpu time    0.0002: real time    0.0002
    CHARGE:  cpu time    0.2053: real time    0.2058
    MIXING:  cpu time    0.0437: real time    0.0438
    --------------------------------------------
      LOOP:  cpu time    4.2140: real time    4.2240

 eigenvalue-minimisations  :    64
 total energy-change (2. order) : 0.5050381E+00  (-0.1258174E+00)
 number of electron       7.9999999 magnetization 
 augmentation part        0.1888846 magnetization 

 Broyden mixing:
  rms(total) = 0.23100E+00    rms(broyden)= 0.23095E+00
  rms(prec ) = 0.28006E+00
  weight for this iteration     100.00

 eigenvalues of (default mixing * dielectric matrix)
  average eigenvalue GAMMA=   1.8417
  1.4621  2.2212

 Free energy of the ion-electron system (eV)
  ---------------------------------------------------
  alpha Z        PSCENC =         0.24610552
  Ewald energy   TEWEN  =       128.98114501
  -Hartree energ DENC   =      -275.57215934
  -exchange      EXHF   =         0.00000000
  -V(xc)+E(xc)   XCENC  =        24.11010644
  PAW double counting   =       371.36022455     -372.18363325
  entropy T*S    EENTRO =         0.03480042
  eigenvalues    EBANDS =       -98.16642613
  atomic energy  EATOM  =       197.04175453
  Solvation  Ediel_sol  =         0.00000000
  ---------------------------------------------------
  free energy    TOTEN  =       -24.14808227 eV

  energy without entropy =      -24.18288269  energy(sigma->0) =      -24.15968241


--------------------------------------------------------------------------------------------------------




--------------------------------------- Iteration      1(   8)  ---------------------------------------


    POTLOK:  cpu time    1.9101: real time    1.9146
    SETDIJ:  cpu time    0.0065: real time    0.0065
    EDDIAG:  cpu time    0.4654: real time    0.4665
  RMM-DIIS:  cpu time    1.5905: real time    1.5943
    ORTHCH:  cpu time    0.0116: real time    0.0116
       DOS:  cpu time    0.0002: real time    0.0002
    CHARGE:  cpu time    0.2056: real time    0.2063
    MIXING:  cpu time    0.0455: real time    0.0456
    --------------------------------------------
      LOOP:  cpu time    4.2354: real time    4.2456

 eigenvalue-minimisations  :    64
 total energy-change (2. order) : 0.1482753E+00  (-0.1642802E-01)
 number of electron       7.9999999 magnetization 
 augmentation part        0.1875019 magnetization 

 Broyden mixing:
  rms(total) = 0.23870E-01    rms(broyden)= 0.23847E-01
  rms(prec ) = 0.54414E-01
  weight for this iteration     100.00

 eigenvalues of (default mixing * dielectric matrix)
  average eigenvalue GAMMA=   1.5580
  2.2483  1.0155  1.4101

 Free energy of the ion-electron system (eV)
  ---------------------------------------------------
  alpha Z        PSCENC =         0.24610552
  Ewald energy   TEWEN  =       128.98114501
  -Hartree energ DENC   =      -280.96711456
  -exchange      EXHF   =         0.00000000
  -V(xc)+E(xc)   XCENC  =        24.64548591
  PAW double counting   =       482.73898723     -483.53047126
  entropy T*S    EENTRO =         0.03743998
  eigenvalues    EBANDS =       -93.19313932
  atomic energy  EATOM  =       197.04175453
  Solvation  Ediel_sol  =         0.00000000
  ---------------------------------------------------
  free energy    TOTEN  =       -23.99980697 eV

  energy without entropy =      -24.03724695  energy(sigma->0) =      -24.01228697


--------------------------------------------------------------------------------------------------------




--------------------------------------- Iteration      1(   9)  ---------------------------------------


    POTLOK:  cpu time    1.8932: real time    1.8977
    SETDIJ:  cpu time    0.0065: real time    0.0065
    EDDIAG:  cpu time    0.4737: real time    0.4749
  RMM-DIIS:  cpu time    1.6406: real time    1.6445
    ORTHCH:  cpu time    0.0116: real time    0.0116
       DOS:  cpu time    0.0002: real time    0.0002
    CHARGE:  cpu time    0.2100: real time    0.2105
    MIXING:  cpu time    0.0458: real time    0.0459
    --------------------------------------------
      LOOP:  cpu time    4.2816: real time    4.2918

 eigenvalue-minimisations  :    64
 total energy-change (2. order) : 0.5828286E-02  (-0.1119651E-02)
 number of electron       7.9999999 magnetization 
 augmentation part        0.1869450 magnetization 

 Broyden mixing:
  rms(total) = 0.20300E-01    rms(broyden)= 0.20295E-01
  rms(prec ) = 0.41659E-01
  weight for this iteration     100.00

 eigenvalues of (default mixing * dielectric matrix)
  average eigenvalue GAMMA=   1.6726
  2.1663  2.1663  0.9934  1.3643

 Free energy of the ion-electron system (eV)
  ---------------------------------------------------
  alpha Z        PSCENC =         0.24610552
  Ewald energy   TEWEN  =       128.98114501
  -Hartree energ DENC   =      -282.22088170
  -exchange      EXHF   =         0.00000000
  -V(xc)+E(xc)   XCENC  =        24.71560155
  PAW double counting   =       486.55310473     -487.34706904
  entropy T*S    EENTRO =         0.03840401
  eigenvalues    EBANDS =       -92.00214330
  atomic energy  EATOM  =       197.04175453
  Solvation  Ediel_sol  =         0.00000000
  ---------------------------------------------------
  free energy    TOTEN  =       -23.99397869 eV

  energy without entropy =      -24.03238270  energy(sigma->0) =      -24.00678003


--------------------------------------------------------------------------------------------------------




--------------------------------------- Iteration      1(  10)  ---------------------------------------


    POTLOK:  cpu time    1.8497: real time    1.8541
    SETDIJ:  cpu time    0.0065: real time    0.0065
    EDDIAG:  cpu time    0.4784: real time    0.4795
  RMM-DIIS:  cpu time    1.6402: real time    1.6441
    ORTHCH:  cpu time    0.0116: real time    0.0116
       DOS:  cpu time    0.0002: real time    0.0002
    CHARGE:  cpu time    0.1959: real time    0.1964
    MIXING:  cpu time    0.0451: real time    0.0452
    --------------------------------------------
      LOOP:  cpu time    4.2277: real time    4.2376

 eigenvalue-minimisations  :    64
 total energy-change (2. order) : 0.2272713E-02  (-0.1180190E-02)
 number of electron       7.9999999 magnetization 
 augmentation part        0.1861330 magnetization 

 Broyden mixing:
  rms(total) = 0.17139E-01    rms(broyden)= 0.17135E-01
  rms(prec ) = 0.27835E-01
  weight for this iteration     100.00

 eigenvalues of (default mixing * dielectric matrix)
  average eigenvalue GAMMA=   1.7463
  3.0230  2.6387  1.3105  0.9441  0.8152

 Free energy of the ion-electron system (eV)
  ---------------------------------------------------
  alpha Z        PSCENC =         0.24610552
  Ewald energy   TEWEN  =       128.98114501
  -Hartree energ DENC   =      -283.72968647
  -exchange      EXHF   =         0.00000000
  -V(xc)+E(xc)   XCENC  =        24.76290633
  PAW double counting   =       476.01312756     -476.80945865
  entropy T*S    EENTRO =         0.03970204
  eigenvalues    EBANDS =       -90.53730184
  atomic energy  EATOM  =       197.04175453
  Solvation  Ediel_sol  =         0.00000000
  ---------------------------------------------------
  free energy    TOTEN  =       -23.99170598 eV

  energy without entropy =      -24.03140802  energy(sigma->0) =      -24.00493999


--------------------------------------------------------------------------------------------------------




--------------------------------------- Iteration      1(  11)  ---------------------------------------


    POTLOK:  cpu time    1.7692: real time    1.7735
    SETDIJ:  cpu time    0.0066: real time    0.0066
    EDDIAG:  cpu time    0.4908: real time    0.4920
  RMM-DIIS:  cpu time    1.6293: real time    1.6331
    ORTHCH:  cpu time    0.0117: real time    0.0118
       DOS:  cpu time    0.0002: real time    0.0002
    CHARGE:  cpu time    0.2027: real time    0.2032
    MIXING:  cpu time    0.0461: real time    0.0462
    --------------------------------------------
      LOOP:  cpu time    4.1568: real time    4.1667

 eigenvalue-minimisations  :    64
 total energy-change (2. order) : 0.4050722E-02  (-0.1526983E-03)
 number of electron       7.9999999 magnetization 
 augmentation part        0.1860751 magnetization 

 Broyden mixing:
  rms(total) = 0.10468E-01    rms(broyden)= 0.10462E-01
  rms(prec ) = 0.17118E-01
  weight for this iteration     100.00

 eigenvalues of (default mixing * dielectric matrix)
  average eigenvalue GAMMA=   1.6001
  3.1260  2.4321  1.2574  1.2574  0.9420  0.5859

 Free energy of the ion-electron system (eV)
  ---------------------------------------------------
  alpha Z        PSCENC =         0.24610552
  Ewald energy   TEWEN  =       128.98114501
  -Hartree energ DENC   =      -284.34727497
  -exchange      EXHF   =         0.00000000
  -V(xc)+E(xc)   XCENC  =        24.79336350
  PAW double counting   =       475.80544014     -476.59854451
  entropy T*S    EENTRO =         0.04006910
  eigenvalues    EBANDS =       -89.94971358
  atomic energy  EATOM  =       197.04175453
  Solvation  Ediel_sol  =         0.00000000
  ---------------------------------------------------
  free energy    TOTEN  =       -23.98765525 eV

  energy without entropy =      -24.02772435  energy(sigma->0) =      -24.00101162


--------------------------------------------------------------------------------------------------------




--------------------------------------- Iteration      1(  12)  ---------------------------------------


    POTLOK:  cpu time    1.7709: real time    1.7751
    SETDIJ:  cpu time    0.0066: real time    0.0066
    EDDIAG:  cpu time    0.4826: real time    0.4838
  RMM-DIIS:  cpu time    1.6242: real time    1.6280
    ORTHCH:  cpu time    0.0116: real time    0.0117
       DOS:  cpu time    0.0002: real time    0.0002
    CHARGE:  cpu time    0.2054: real time    0.2059
    MIXING:  cpu time    0.0475: real time    0.0476
    --------------------------------------------
      LOOP:  cpu time    4.1490: real time    4.1588

 eigenvalue-minimisations  :    64
 total energy-change (2. order) :-0.2805102E-02  (-0.2404995E-03)
 number of electron       7.9999999 magnetization 
 augmentation part        0.1862932 magnetization 

 Broyden mixing:
  rms(total) = 0.67962E-02    rms(broyden)= 0.67933E-02
  rms(prec ) = 0.12398E-01
  weight for this iteration     100.00

 eigenvalues of (default mixing * dielectric matrix)
  average eigenvalue GAMMA=   1.9359
  4.4196  2.9437  2.3598  1.1831  1.0477  1.0477  0.5495

 Free energy of the ion-electron system (eV)
  ---------------------------------------------------
  alpha Z        PSCENC =         0.24610552
  Ewald energy   TEWEN  =       128.98114501
  -Hartree energ DENC   =      -284.34549647
  -exchange      EXHF   =         0.00000000
  -V(xc)+E(xc)   XCENC  =        24.79568426
  PAW double counting   =       478.12418209     -478.91456501
  entropy T*S    EENTRO =         0.03988786
  eigenvalues    EBANDS =       -89.95915814
  atomic energy  EATOM  =       197.04175453
  Solvation  Ediel_sol  =         0.00000000
  ---------------------------------------------------
  free energy    TOTEN  =       -23.99046036 eV

  energy without entropy =      -24.03034822  energy(sigma->0) =      -24.00375631


--------------------------------------------------------------------------------------------------------




--------------------------------------- Iteration      1(  13)  ---------------------------------------


    POTLOK:  cpu time    1.6411: real time    1.6449
    SETDIJ:  cpu time    0.0065: real time    0.0065
    EDDIAG:  cpu time    0.4799: real time    0.4811
  RMM-DIIS:  cpu time    1.6776: real time    1.6816
    ORTHCH:  cpu time    0.0113: real time    0.0114
       DOS:  cpu time    0.0002: real time    0.0002
    CHARGE:  cpu time    0.2090: real time    0.2095
    MIXING:  cpu time    0.0478: real time    0.0479
    --------------------------------------------
      LOOP:  cpu time    4.0734: real time    4.0831

 eigenvalue-minimisations  :    64
 total energy-change (2. order) :-0.7429052E-02  (-0.1708444E-03)
 number of electron       7.9999999 magnetization 
 augmentation part        0.1862126 magnetization 

 Broyden mixing:
  rms(total) = 0.33865E-02    rms(broyden)= 0.33861E-02
  rms(prec ) = 0.55407E-02
  weight for this iteration     100.00

 eigenvalues of (default mixing * dielectric matrix)
  average eigenvalue GAMMA=   1.7776
  4.3714  2.8798  2.3317  1.1116  1.0721  1.0721  0.5799  0.8020

 Free energy of the ion-electron system (eV)
  ---------------------------------------------------
  alpha Z        PSCENC =         0.24610552
  Ewald energy   TEWEN  =       128.98114501
  -Hartree energ DENC   =      -284.71987224
  -exchange      EXHF   =         0.00000000
  -V(xc)+E(xc)   XCENC  =        24.79740724
  PAW double counting   =       475.41562290     -476.20733657
  entropy T*S    EENTRO =         0.03974102
  eigenvalues    EBANDS =       -89.59245681
  atomic energy  EATOM  =       197.04175453
  Solvation  Ediel_sol  =         0.00000000
  ---------------------------------------------------
  free energy    TOTEN  =       -23.99788941 eV

  energy without entropy =      -24.03763043  energy(sigma->0) =      -24.01113641


--------------------------------------------------------------------------------------------------------




--------------------------------------- Iteration      1(  14)  ---------------------------------------


    POTLOK:  cpu time    1.6497: real time    1.6536
    SETDIJ:  cpu time    0.0066: real time    0.0066
    EDDIAG:  cpu time    0.4889: real time    0.4900
  RMM-DIIS:  cpu time    1.6996: real time    1.7036
    ORTHCH:  cpu time    0.0124: real time    0.0124
       DOS:  cpu time    0.0002: real time    0.0002
    CHARGE:  cpu time    0.1943: real time    0.1948
    MIXING:  cpu time    0.0503: real time    0.0504
    --------------------------------------------
      LOOP:  cpu time    4.1019: real time    4.1116

 eigenvalue-minimisations  :    64
 total energy-change (2. order) :-0.1080427E-02  (-0.2252924E-04)
 number of electron       7.9999999 magnetization 
 augmentation part        0.1861323 magnetization 

 Broyden mixing:
  rms(total) = 0.16000E-02    rms(broyden)= 0.15984E-02
  rms(prec ) = 0.34932E-02
  weight for this iteration     100.00

 eigenvalues of (default mixing * dielectric matrix)
  average eigenvalue GAMMA=   1.9807
  5.2798  3.0888  2.3499  2.3499  0.5731  1.2111  1.0347  1.0347  0.9046

 Free energy of the ion-electron system (eV)
  ---------------------------------------------------
  alpha Z        PSCENC =         0.24610552
  Ewald energy   TEWEN  =       128.98114501
  -Hartree energ DENC   =      -284.72096652
  -exchange      EXHF   =         0.00000000
  -V(xc)+E(xc)   XCENC  =        24.79539183
  PAW double counting   =       475.62692014     -476.41889315
  entropy T*S    EENTRO =         0.03979863
  eigenvalues    EBANDS =       -89.59022582
  atomic energy  EATOM  =       197.04175453
  Solvation  Ediel_sol  =         0.00000000
  ---------------------------------------------------
  free energy    TOTEN  =       -23.99896984 eV

  energy without entropy =      -24.03876846  energy(sigma->0) =      -24.01223604


--------------------------------------------------------------------------------------------------------




--------------------------------------- Iteration      1(  15)  ---------------------------------------


    POTLOK:  cpu time    1.6471: real time    1.6510
    SETDIJ:  cpu time    0.0065: real time    0.0066
    EDDIAG:  cpu time    0.4939: real time    0.4951
  RMM-DIIS:  cpu time    1.6410: real time    1.6448
    ORTHCH:  cpu time    0.0122: real time    0.0122
       DOS:  cpu time    0.0002: real time    0.0002
    CHARGE:  cpu time    0.2030: real time    0.2035
    MIXING:  cpu time    0.0493: real time    0.0495
    --------------------------------------------
      LOOP:  cpu time    4.0534: real time    4.0629

 eigenvalue-minimisations  :    64
 total energy-change (2. order) :-0.2173415E-02  (-0.3741430E-04)
 number of electron       7.9999999 magnetization 
 augmentation part        0.1861003 magnetization 

 Broyden mixing:
  rms(total) = 0.22331E-02    rms(broyden)= 0.22329E-02
  rms(prec ) = 0.29448E-02
  weight for this iteration     100.00

 eigenvalues of (default mixing * dielectric matrix)
  average eigenvalue GAMMA=   2.0649
  6.1868  3.7863  2.5882  2.0079  1.3124  1.3124  0.5717  0.9450  0.9450  0.9937

 Free energy of the ion-electron system (eV)
  ---------------------------------------------------
  alpha Z        PSCENC =         0.24610552
  Ewald energy   TEWEN  =       128.98114501
  -Hartree energ DENC   =      -284.68462653
  -exchange      EXHF   =         0.00000000
  -V(xc)+E(xc)   XCENC  =        24.78720083
  PAW double counting   =       475.38480996     -476.17693559
  entropy T*S    EENTRO =         0.03983808
  eigenvalues    EBANDS =       -89.62043506
  atomic energy  EATOM  =       197.04175453
  Solvation  Ediel_sol  =         0.00000000
  ---------------------------------------------------
  free energy    TOTEN  =       -24.00114325 eV

  energy without entropy =      -24.04098133  energy(sigma->0) =      -24.01442261


--------------------------------------------------------------------------------------------------------




--------------------------------------- Iteration      1(  16)  ---------------------------------------


    POTLOK:  cpu time    1.6330: real time    1.6370
    SETDIJ:  cpu time    0.0065: real time    0.0065
    EDDIAG:  cpu time    0.4947: real time    0.4958
  RMM-DIIS:  cpu time    1.6125: real time    1.6163
    ORTHCH:  cpu time    0.0119: real time    0.0119
       DOS:  cpu time    0.0002: real time    0.0002
    CHARGE:  cpu time    0.2085: real time    0.2090
    MIXING:  cpu time    0.0509: real time    0.0510
    --------------------------------------------
      LOOP:  cpu time    4.0181: real time    4.0277

 eigenvalue-minimisations  :    64
 total energy-change (2. order) :-0.3519157E-03  (-0.8250204E-05)
 number of electron       7.9999999 magnetization 
 augmentation part        0.1861067 magnetization 

 Broyden mixing:
  rms(total) = 0.11287E-02    rms(broyden)= 0.11285E-02
  rms(prec ) = 0.14773E-02
  weight for this iteration     100.00

 eigenvalues of (default mixing * dielectric matrix)
  average eigenvalue GAMMA=   2.1377
  6.9020  3.9791  2.5121  2.5121  1.8434  1.2096  1.2096  0.5716  1.0269  0.8740
  0.8740

 Free energy of the ion-electron system (eV)
  ---------------------------------------------------
  alpha Z        PSCENC =         0.24610552
  Ewald energy   TEWEN  =       128.98114501
  -Hartree energ DENC   =      -284.70613105
  -exchange      EXHF   =         0.00000000
  -V(xc)+E(xc)   XCENC  =        24.79015771
  PAW double counting   =       476.51424482     -477.30584597
  entropy T*S    EENTRO =         0.03978638
  eigenvalues    EBANDS =       -89.60271211
  atomic energy  EATOM  =       197.04175453
  Solvation  Ediel_sol  =         0.00000000
  ---------------------------------------------------
  free energy    TOTEN  =       -24.00149517 eV

  energy without entropy =      -24.04128155  energy(sigma->0) =      -24.01475729


--------------------------------------------------------------------------------------------------------




--------------------------------------- Iteration      1(  17)  ---------------------------------------


    POTLOK:  cpu time    1.6521: real time    1.6561
    SETDIJ:  cpu time    0.0065: real time    0.0065
    EDDIAG:  cpu time    0.4826: real time    0.4838
  RMM-DIIS:  cpu time    1.6488: real time    1.6528
    ORTHCH:  cpu time    0.0120: real time    0.0121
       DOS:  cpu time    0.0002: real time    0.0002
    CHARGE:  cpu time    0.2044: real time    0.2049
    MIXING:  cpu time    0.0520: real time    0.0521
    --------------------------------------------
      LOOP:  cpu time    4.0587: real time    4.0685

 eigenvalue-minimisations  :    64
 total energy-change (2. order) :-0.2729788E-03  (-0.3041779E-05)
 number of electron       7.9999999 magnetization 
 augmentation part        0.1860905 magnetization 

 Broyden mixing:
  rms(total) = 0.89275E-03    rms(broyden)= 0.89262E-03
  rms(prec ) = 0.11234E-02
  weight for this iteration     100.00

 eigenvalues of (default mixing * dielectric matrix)
  average eigenvalue GAMMA=   2.2450
  7.6600  4.6853  2.9192  2.5163  2.1360  1.3854  1.1783  1.1783  0.5715  0.9891
  0.8604  0.8604

 Free energy of the ion-electron system (eV)
  ---------------------------------------------------
  alpha Z        PSCENC =         0.24610552
  Ewald energy   TEWEN  =       128.98114501
  -Hartree energ DENC   =      -284.70293352
  -exchange      EXHF   =         0.00000000
  -V(xc)+E(xc)   XCENC  =        24.78824103
  PAW double counting   =       475.73291196     -476.52485047
  entropy T*S    EENTRO =         0.03979881
  eigenvalues    EBANDS =       -89.60394101
  atomic energy  EATOM  =       197.04175453
  Solvation  Ediel_sol  =         0.00000000
  ---------------------------------------------------
  free energy    TOTEN  =       -24.00176815 eV

  energy without entropy =      -24.04156696  energy(sigma->0) =      -24.01503442


--------------------------------------------------------------------------------------------------------




--------------------------------------- Iteration      1(  18)  ---------------------------------------


    POTLOK:  cpu time    1.6605: real time    1.6644
    SETDIJ:  cpu time    0.0067: real time    0.0067
    EDDIAG:  cpu time    0.4782: real time    0.4794
  RMM-DIIS:  cpu time    1.6586: real time    1.6627
    ORTHCH:  cpu time    0.0124: real time    0.0124
       DOS:  cpu time    0.0002: real time    0.0002
    CHARGE:  cpu time    0.2112: real time    0.2117
    MIXING:  cpu time    0.0545: real time    0.0547
    --------------------------------------------
      LOOP:  cpu time    4.0824: real time    4.0922

 eigenvalue-minimisations  :    64
 total energy-change (2. order) :-0.5304307E-04  (-0.9509892E-06)
 number of electron       7.9999999 magnetization 
 augmentation part        0.1861036 magnetization 

 Broyden mixing:
  rms(total) = 0.23198E-03    rms(broyden)= 0.23158E-03
  rms(prec ) = 0.34427E-03
  weight for this iteration     100.00

 eigenvalues of (default mixing * dielectric matrix)
  average eigenvalue GAMMA=   2.2995
  7.9848  5.0313  3.4729  2.5422  2.3033  1.6435  1.3914  1.1347  1.1347  0.5715
  0.9960  0.8436  0.8436

 Free energy of the ion-electron system (eV)
  ---------------------------------------------------
  alpha Z        PSCENC =         0.24610552
  Ewald energy   TEWEN  =       128.98114501
  -Hartree energ DENC   =      -284.69332210
  -exchange      EXHF   =         0.00000000
  -V(xc)+E(xc)   XCENC  =        24.78821787
  PAW double counting   =       475.89499191     -476.68669274
  entropy T*S    EENTRO =         0.03979334
  eigenvalues    EBANDS =       -89.61381453
  atomic energy  EATOM  =       197.04175453
  Solvation  Ediel_sol  =         0.00000000
  ---------------------------------------------------
  free energy    TOTEN  =       -24.00182119 eV

  energy without entropy =      -24.04161453  energy(sigma->0) =      -24.01508563


--------------------------------------------------------------------------------------------------------




--------------------------------------- Iteration      1(  19)  ---------------------------------------


    POTLOK:  cpu time    1.7094: real time    1.7135
    SETDIJ:  cpu time    0.0065: real time    0.0065
    EDDIAG:  cpu time    0.4771: real time    0.4782
  RMM-DIIS:  cpu time    1.5535: real time    1.5572
    ORTHCH:  cpu time    0.0114: real time    0.0114
       DOS:  cpu time    0.0002: real time    0.0002
    CHARGE:  cpu time    0.2038: real time    0.2043
    MIXING:  cpu time    0.0541: real time    0.0542
    --------------------------------------------
      LOOP:  cpu time    4.0161: real time    4.0256

 eigenvalue-minimisations  :    60
 total energy-change (2. order) :-0.2474891E-04  (-0.2662506E-06)
 number of electron       7.9999999 magnetization 
 augmentation part        0.1860955 magnetization 

 Broyden mixing:
  rms(total) = 0.14606E-03    rms(broyden)= 0.14599E-03
  rms(prec ) = 0.19650E-03
  weight for this iteration     100.00

 eigenvalues of (default mixing * dielectric matrix)
  average eigenvalue GAMMA=   2.2906
  8.2874  5.2913  3.5869  2.5010  2.5010  1.8604  0.5714  1.4010  1.1686  1.1686
  1.0309  1.0309  0.8346  0.8346

 Free energy of the ion-electron system (eV)
  ---------------------------------------------------
  alpha Z        PSCENC =         0.24610552
  Ewald energy   TEWEN  =       128.98114501
  -Hartree energ DENC   =      -284.70697827
  -exchange      EXHF   =         0.00000000
  -V(xc)+E(xc)   XCENC  =        24.78889827
  PAW double counting   =       475.90901623     -476.70081791
  entropy T*S    EENTRO =         0.03980716
  eigenvalues    EBANDS =       -89.60077647
  atomic energy  EATOM  =       197.04175453
  Solvation  Ediel_sol  =         0.00000000
  ---------------------------------------------------
  free energy    TOTEN  =       -24.00184594 eV

  energy without entropy =      -24.04165310  energy(sigma->0) =      -24.01511499


--------------------------------------------------------------------------------------------------------




--------------------------------------- Iteration      1(  20)  ---------------------------------------


    POTLOK:  cpu time    1.7480: real time    1.7521
    SETDIJ:  cpu time    0.0065: real time    0.0065
    EDDIAG:  cpu time    0.4829: real time    0.4841
  RMM-DIIS:  cpu time    1.2742: real time    1.2772
    ORTHCH:  cpu time    0.0121: real time    0.0121
       DOS:  cpu time    0.0002: real time    0.0002
    CHARGE:  cpu time    0.2209: real time    0.2214
    MIXING:  cpu time    0.0585: real time    0.0587
    --------------------------------------------
      LOOP:  cpu time    3.8035: real time    3.8124

 eigenvalue-minimisations  :    48
 total energy-change (2. order) :-0.4035002E-05  (-0.1641954E-07)
 number of electron       7.9999999 magnetization 
 augmentation part        0.1860970 magnetization 

 Broyden mixing:
  rms(total) = 0.37207E-04    rms(broyden)= 0.37166E-04
  rms(prec ) = 0.55410E-04
  weight for this iteration     100.00

 eigenvalues of (default mixing * dielectric matrix)
  average eigenvalue GAMMA=   2.3534
  8.3806  5.4123  3.8133  3.1140  2.4773  2.4773  1.7601  0.5714  1.3187  1.1486
  1.1486  1.0005  1.0005  0.8388  0.8388

 Free energy of the ion-electron system (eV)
  ---------------------------------------------------
  alpha Z        PSCENC =         0.24610552
  Ewald energy   TEWEN  =       128.98114501
  -Hartree energ DENC   =      -284.70351694
  -exchange      EXHF   =         0.00000000
  -V(xc)+E(xc)   XCENC  =        24.78874527
  PAW double counting   =       475.92955575     -476.72132239
  entropy T*S    EENTRO =         0.03980439
  eigenvalues    EBANDS =       -89.60412111
  atomic energy  EATOM  =       197.04175453
  Solvation  Ediel_sol  =         0.00000000
  ---------------------------------------------------
  free energy    TOTEN  =       -24.00184997 eV

  energy without entropy =      -24.04165437  energy(sigma->0) =      -24.01511810


--------------------------------------------------------------------------------------------------------




--------------------------------------- Iteration      1(  21)  ---------------------------------------


    POTLOK:  cpu time    1.7911: real time    1.7954
    SETDIJ:  cpu time    0.0065: real time    0.0065
    EDDIAG:  cpu time    0.4756: real time    0.4767
  RMM-DIIS:  cpu time    1.2961: real time    1.2991
    ORTHCH:  cpu time    0.0120: real time    0.0121
       DOS:  cpu time    0.0002: real time    0.0002
    CHARGE:  cpu time    0.2232: real time    0.2237
    MIXING:  cpu time    0.0647: real time    0.0649
    --------------------------------------------
      LOOP:  cpu time    3.8693: real time    3.8786

 eigenvalue-minimisations  :    48
 total energy-change (2. order) :-0.2346298E-05  (-0.1831339E-07)
 number of electron       7.9999999 magnetization 
 augmentation part        0.1860992 magnetization 

 Broyden mixing:
  rms(total) = 0.45337E-04    rms(broyden)= 0.45317E-04
  rms(prec ) = 0.61725E-04
  weight for this iteration     100.00

 eigenvalues of (default mixing * dielectric matrix)
  average eigenvalue GAMMA=   2.2921
  8.4397  5.4557  4.0913  3.0859  2.4643  2.4643  1.6248  1.4765  0.5714  1.1395
  1.1395  1.0639  1.0639  0.8490  0.8490  0.8944

 Free energy of the ion-electron system (eV)
  ---------------------------------------------------
  alpha Z        PSCENC =         0.24610552
  Ewald energy   TEWEN  =       128.98114501
  -Hartree energ DENC   =      -284.70174329
  -exchange      EXHF   =         0.00000000
  -V(xc)+E(xc)   XCENC  =        24.78862483
  PAW double counting   =       475.92476282     -476.71650816
  entropy T*S    EENTRO =         0.03980189
  eigenvalues    EBANDS =       -89.60579546
  atomic energy  EATOM  =       197.04175453
  Solvation  Ediel_sol  =         0.00000000
  ---------------------------------------------------
  free energy    TOTEN  =       -24.00185232 eV

  energy without entropy =      -24.04165421  energy(sigma->0) =      -24.01511961


--------------------------------------------------------------------------------------------------------




--------------------------------------- Iteration      1(  22)  ---------------------------------------


    POTLOK:  cpu time    1.7919: real time    1.7962
    SETDIJ:  cpu time    0.0065: real time    0.0065
    EDDIAG:  cpu time    0.4772: real time    0.4784
  RMM-DIIS:  cpu time    1.0437: real time    1.0462
    ORTHCH:  cpu time    0.0114: real time    0.0114
       DOS:  cpu time    0.0002: real time    0.0002
    --------------------------------------------
      LOOP:  cpu time    3.3309: real time    3.3388

 eigenvalue-minimisations  :    32
 total energy-change (2. order) :-0.2513366E-06  ( 0.0000000E+00)
 number of electron       7.9999999 magnetization 
 augmentation part        0.1860992 magnetization 

 Free energy of the ion-electron system (eV)
  ---------------------------------------------------
  alpha Z        PSCENC =         0.24610552
  Ewald energy   TEWEN  =       128.98114501
  -Hartree energ DENC   =      -284.70289360
  -exchange      EXHF   =         0.00000000
  -V(xc)+E(xc)   XCENC  =        24.78868343
  PAW double counting   =       475.92704168     -476.71879991
  entropy T*S    EENTRO =         0.03980257
  eigenvalues    EBANDS =       -89.60469180
  atomic energy  EATOM  =       197.04175453
  Solvation  Ediel_sol  =         0.00000000
  ---------------------------------------------------
  free energy    TOTEN  =       -24.00185257 eV

  energy without entropy =      -24.04165514  energy(sigma->0) =      -24.01512009


--------------------------------------------------------------------------------------------------------




 average (electrostatic) potential at core
  the test charge radii are     0.5201  0.6991
  (the norm of the test charge is              1.0000)
       1 -41.6041       2 -41.5258       3 -41.5324       4 -41.3840       5 -57.9308



 E-fermi :  -9.0871     XC(G=0):  -0.7083     alpha+bet : -0.2140


 k-point     1 :       0.2500    0.2500    0.2500
  band No.  band energies     occupation 
      1     -16.9085      2.00000
      2      -9.3669      2.06362
      3      -9.3043      2.06381
      4      -9.2146      1.87210
      5      -0.3024      0.00000
      6       0.5636      0.00000
      7       0.6715      0.00000
      8       0.6921      0.00000

 k-point     2 :      -0.2500    0.2500    0.2500
  band No.  band energies     occupation 
      1     -16.9085      2.00000
      2      -9.3671      2.06356
      3      -9.3045      2.06390
      4      -9.2147      1.87265
      5      -0.3080      0.00000
      6       0.5709      0.00000
      7       0.6778      0.00000
      8       0.7111      0.00000

 k-point     3 :       0.2500   -0.2500    0.2500
  band No.  band energies     occupation 
      1     -16.9085      2.00000
      2      -9.3671      2.06356
      3      -9.3045      2.06389
      4      -9.2147      1.87274
      5      -0.3086      0.00000
      6       0.5773      0.00000
      7       0.6774      0.00000
      8       0.7103      0.00000

 k-point     4 :      -0.2500   -0.2500    0.2500
  band No.  band energies     occupation 
      1     -16.9085      2.00000
      2      -9.3670      2.06359
      3      -9.3045      2.06389
      4      -9.2147      1.87269
      5      -0.3119      0.00000
      6       0.5850      0.00000
      7       0.6919      0.00000
      8       0.7145      0.00000


--------------------------------------------------------------------------------------------------------


 soft charge-density along one line, spin component           1
         0         1         2         3         4         5         6         7         8         9
 total charge-density along one line

 pseudopotential strength for first ion, spin component:           1
 -2.342  -4.037  -0.001  -0.001   0.001
 -4.037  -6.870  -0.003  -0.004   0.002
 -0.001  -0.003  -0.337   0.002  -0.001
 -0.001  -0.004   0.002  -0.335  -0.001
  0.001   0.002  -0.001  -0.001  -0.337
 total augmentation occupancy for first ion, spin component:           1
  3.687  -0.693   0.220   0.370  -0.175
 -0.693   0.144  -0.043  -0.071   0.033
  0.220  -0.043   0.019   0.018  -0.009
  0.370  -0.071   0.018   0.041  -0.016
 -0.175   0.033  -0.009  -0.016   0.016


------------------------ aborting loop because EDIFF is reached ----------------------------------------


    CHARGE:  cpu time    0.1973: real time    0.1978
    FORLOC:  cpu time    0.1206: real time    0.1209
    FORNL :  cpu time    0.6621: real time    0.6636
    STRESS:  cpu time    2.1550: real time    2.1601
    FORCOR:  cpu time    1.8421: real time    1.8467
    FORHAR:  cpu time    0.6065: real time    0.6080
    MIXING:  cpu time    0.0597: real time    0.0598
    OFIELD:  cpu time    0.0000: real time    0.0000

  FORCE on cell =-STRESS in cart. coord.  units (eV):
  Direction    XX          YY          ZZ          XY          YZ          ZX
  --------------------------------------------------------------------------------------
  Alpha Z     0.24611     0.24611     0.24611
  Ewald      44.50383    42.27897    42.19829    -0.94117    -2.20533    -1.91697
  Hartree    95.60201    94.78140    94.32088    -0.46313    -1.34925    -1.07782
  E(xc)     -27.26054   -27.26065   -27.26311    -0.00351    -0.01278    -0.00955
  Local    -198.67959  -196.02804  -195.12337     1.59723     3.93917     3.19675
  n-local   -16.35243   -15.42253   -15.33827     0.46525     0.72588     0.06148
  augment     0.11136     0.11594     0.11027    -0.00214    -0.00373    -0.00385
  Kinetic   101.81826   101.54566   100.93323    -0.74412    -0.70634    -0.69148
  Fock        0.00000     0.00000     0.00000     0.00000     0.00000     0.00000
  -------------------------------------------------------------------------------------
  Total      -0.01098     0.25686     0.08402    -0.09158     0.38761    -0.44144
  in kB      -0.01787     0.41808     0.13675    -0.14907     0.63090    -0.71851
  external pressure =        0.18 kB  Pullay stress =        0.00 kB

  kinetic pressure (ideal gas correction) =      0.03 kB
  total pressure  =      0.21 kB
  Total+kin.    -0.008       0.426       0.202      -0.142       0.617      -0.730

 VOLUME and BASIS-vectors are now :
 -----------------------------------------------------------------------------
  energy-cutoff  :      400.00
  volume of cell :      984.34
      direct lattice vectors                 reciprocal lattice vectors
     9.904453092  0.000000000  0.000000000     0.100964686  0.000412883  0.002264167
    -0.040756886  9.966527312  0.000000000    -0.000000000  0.100335851  0.002539965
    -0.222586553 -0.252430118  9.971706720     0.000000000 -0.000000000  0.100283736

  length of vectors
     9.904453092  9.966610647  9.977384459     0.100990915  0.100367995  0.100283736


 FORCES acting on ions
    electron-ion (+dipol)            ewald-force                    non-local-force                 convergence-correction
 -----------------------------------------------------------------------------------------------
   -.176E+02 0.283E+02 0.412E+02   0.198E+02 -.313E+02 -.455E+02   -.139E+01 0.268E+01 0.364E+01   0.417E-04 -.826E-04 -.106E-03
   0.532E+02 -.658E+01 0.381E+01   -.595E+02 0.755E+01 -.404E+01   0.591E+01 -.621E+00 0.703E+00   -.140E-03 0.214E-04 -.587E-05
   -.235E+02 -.470E+02 0.110E+01   0.258E+02 0.516E+02 -.148E+01   -.231E+01 -.475E+01 0.438E+00   0.467E-04 0.126E-03 -.275E-05
   -.115E+02 0.253E+02 -.452E+02   0.126E+02 -.282E+02 0.497E+02   -.121E+01 0.262E+01 -.465E+01   0.213E-04 -.708E-04 0.113E-03
   -.131E+01 -.347E+00 -.833E+00   0.127E+01 0.274E+00 0.127E+01   0.182E+00 0.871E+00 -.857E+00   -.887E-04 -.461E-04 0.649E-04
 -----------------------------------------------------------------------------------------------
   -.806E+00 -.253E+00 0.109E+00   0.000E+00 0.355E-14 -.711E-14   0.119E+01 0.795E+00 -.720E+00   -.119E-03 -.522E-04 0.638E-04


 POSITION                                       TOTAL-FORCE (eV/Angst)
 -----------------------------------------------------------------------------------
      5.23172      3.96196      3.59758         0.802288     -0.324089     -0.650670
      3.79304      4.67986      4.37381        -0.380726      0.351963      0.467807
      5.35283      5.53149      4.41393        -0.077584     -0.083178      0.055940
      5.09588      4.01536      5.37610        -0.103115     -0.200830     -0.064136
      4.85989      4.54362      4.44649         0.142586      0.797815     -0.419847
 -----------------------------------------------------------------------------------
    total drift:                                0.383448      0.541682     -0.610906


--------------------------------------------------------------------------------------------------------



  FREE ENERGIE OF THE ION-ELECTRON SYSTEM (eV)
  ---------------------------------------------------
  free  energy   TOTEN  =       -24.00185257 eV

  energy  without entropy=      -24.04165514  energy(sigma->0) =      -24.01512009



--------------------------------------------------------------------------------------------------------


    POTLOK:  cpu time    1.8697: real time    1.8741


--------------------------------------------------------------------------------------------------------


           RANDOM_SEED =         578492938                0                0
           RANDOM_SEED =         578492938               30                0
   IONSTEP:  cpu time    0.0017: real time    0.0018

  ENERGY OF THE ELECTRON-ION-THERMOSTAT SYSTEM (eV)
  ---------------------------------------------------
% ion-electron   TOTEN  =       -24.001853  see above
  kinetic energy EKIN   =         0.037397
  kin. lattice  EKIN_LAT=         0.000000  (temperature   72.33 K)
  nose potential ES     =         0.000000
  nose kinetic   EPS    =         0.000016
  ---------------------------------------------------
  total energy   ETOTAL =       -23.964440 eV

  maximum distance moved by ions :      0.47E-02


 mean value of Nose-termostat <S>:     1.006 mean value of <T> :    72.328
 mean temperature <T/S>/<1/S>  :    72.328

    WAVPRE:  cpu time    0.4793: real time    0.4855
    FEWALD:  cpu time    0.0004: real time    0.0004
    ORTHCH:  cpu time    0.2419: real time    0.2425
     LOOP+:  cpu time   93.5221: real time   93.7529


--------------------------------------- Iteration      2(   1)  ---------------------------------------


    POTLOK:  cpu time    1.8470: real time    1.8516
    SETDIJ:  cpu time    0.0066: real time    0.0066
     EDDAV:  cpu time    2.1195: real time    2.1245
       DOS:  cpu time    0.0002: real time    0.0002
    CHARGE:  cpu time    0.1914: real time    0.1919
    MIXING:  cpu time    0.0465: real time    0.0466
    --------------------------------------------
      LOOP:  cpu time    4.2113: real time    4.2215

 eigenvalue-minimisations  :    64
 total energy-change (2. order) : 0.9040507E-02  (-0.1975369E+00)
 number of electron       8.0000001 magnetization 
 augmentation part        0.1818319 magnetization 

 Broyden mixing:
  rms(total) = 0.67168E-01    rms(broyden)= 0.67098E-01
  rms(prec ) = 0.80120E-01
  weight for this iteration     100.00

 Free energy of the ion-electron system (eV)
  ---------------------------------------------------
  alpha Z        PSCENC =         0.24610552
  Ewald energy   TEWEN  =       125.70447516
  -Hartree energ DENC   =      -282.78092254
  -exchange      EXHF   =         0.00000000
  -V(xc)+E(xc)   XCENC  =        24.69190638
  PAW double counting   =       475.92541598     -476.71718763
  entropy T*S    EENTRO =         0.01407273
  eigenvalues    EBANDS =       -88.11843194
  atomic energy  EATOM  =       197.04175453
  Solvation  Ediel_sol  =         0.00000000
  ---------------------------------------------------
  free energy    TOTEN  =       -23.99281181 eV

  energy without entropy =      -24.00688455  energy(sigma->0) =      -23.99750272


--------------------------------------------------------------------------------------------------------




--------------------------------------- Iteration      2(   2)  ---------------------------------------


    POTLOK:  cpu time    1.5534: real time    1.5572
    SETDIJ:  cpu time    0.0066: real time    0.0066
    EDDIAG:  cpu time    0.4702: real time    0.4713
  RMM-DIIS:  cpu time    1.6393: real time    1.6432
    ORTHCH:  cpu time    0.0120: real time    0.0120
       DOS:  cpu time    0.0002: real time    0.0002
    CHARGE:  cpu time    0.2084: real time    0.2089
    MIXING:  cpu time    0.0623: real time    0.0624
    --------------------------------------------
      LOOP:  cpu time    3.9523: real time    3.9617

 eigenvalue-minimisations  :    64
 total energy-change (2. order) :-0.1655318E-01  (-0.2209631E-01)
 number of electron       8.0000001 magnetization 
 augmentation part        0.1854156 magnetization 

 Broyden mixing:
  rms(total) = 0.70010E-01    rms(broyden)= 0.70001E-01
  rms(prec ) = 0.99292E-01
  weight for this iteration     100.00

 eigenvalues of (default mixing * dielectric matrix)
  average eigenvalue GAMMA=   2.3072
  8.4499  5.4565  4.2621  3.2716  2.9326  2.4711  2.2848  1.9290  0.5714  1.4371
  1.4371  1.1407  1.1407  0.8393  0.8393  0.9576  0.9957  1.1125

 Free energy of the ion-electron system (eV)
  ---------------------------------------------------
  alpha Z        PSCENC =         0.24610552
  Ewald energy   TEWEN  =       125.70447516
  -Hartree energ DENC   =      -278.21042517
  -exchange      EXHF   =         0.00000000
  -V(xc)+E(xc)   XCENC  =        24.39554340
  PAW double counting   =       447.62545592     -448.39047182
  entropy T*S    EENTRO =         0.01324339
  eigenvalues    EBANDS =       -92.43504591
  atomic energy  EATOM  =       197.04175453
  Solvation  Ediel_sol  =         0.00000000
  ---------------------------------------------------
  free energy    TOTEN  =       -24.00936499 eV

  energy without entropy =      -24.02260839  energy(sigma->0) =      -24.01377946


--------------------------------------------------------------------------------------------------------




--------------------------------------- Iteration      2(   3)  ---------------------------------------


    POTLOK:  cpu time    1.6670: real time    1.6709
    SETDIJ:  cpu time    0.0066: real time    0.0066
    EDDIAG:  cpu time    0.4899: real time    0.4911
  RMM-DIIS:  cpu time    1.7005: real time    1.7045
    ORTHCH:  cpu time    0.0114: real time    0.0114
       DOS:  cpu time    0.0002: real time    0.0002
    CHARGE:  cpu time    0.1970: real time    0.1974
    MIXING:  cpu time    0.0606: real time    0.0608
    --------------------------------------------
      LOOP:  cpu time    4.1331: real time    4.1429

 eigenvalue-minimisations  :    64
 total energy-change (2. order) : 0.2200604E-01  (-0.5713288E-02)
 number of electron       8.0000001 magnetization 
 augmentation part        0.1834997 magnetization 

 Broyden mixing:
  rms(total) = 0.18680E-01    rms(broyden)= 0.18676E-01
  rms(prec ) = 0.25665E-01
  weight for this iteration     100.00

 eigenvalues of (default mixing * dielectric matrix)
  average eigenvalue GAMMA=   2.2642
  8.4495  5.4632  4.2435  3.3209  2.7867  2.6205  2.4803  2.1341  0.5714  1.4745
  1.4745  1.1432  1.1432  0.8390  0.8390  1.0854  0.9690  0.9690  1.0134

 Free energy of the ion-electron system (eV)
  ---------------------------------------------------
  alpha Z        PSCENC =         0.24610552
  Ewald energy   TEWEN  =       125.70447516
  -Hartree energ DENC   =      -281.35073138
  -exchange      EXHF   =         0.00000000
  -V(xc)+E(xc)   XCENC  =        24.60254876
  PAW double counting   =       455.63564001     -456.41606345
  entropy T*S    EENTRO =         0.01278251
  eigenvalues    EBANDS =       -89.46387061
  atomic energy  EATOM  =       197.04175453
  Solvation  Ediel_sol  =         0.00000000
  ---------------------------------------------------
  free energy    TOTEN  =       -23.98735895 eV

  energy without entropy =      -24.00014146  energy(sigma->0) =      -23.99161979


--------------------------------------------------------------------------------------------------------




--------------------------------------- Iteration      2(   4)  ---------------------------------------


    POTLOK:  cpu time    1.6949: real time    1.6989
    SETDIJ:  cpu time    0.0066: real time    0.0066
    EDDIAG:  cpu time    0.4905: real time    0.4916
  RMM-DIIS:  cpu time    1.6561: real time    1.6601
    ORTHCH:  cpu time    0.0112: real time    0.0113
       DOS:  cpu time    0.0002: real time    0.0002
    CHARGE:  cpu time    0.1953: real time    0.1957
    MIXING:  cpu time    0.0652: real time    0.0654
    --------------------------------------------
      LOOP:  cpu time    4.1199: real time    4.1298

 eigenvalue-minimisations  :    64
 total energy-change (2. order) :-0.3533854E-02  (-0.3816291E-02)
 number of electron       8.0000001 magnetization 
 augmentation part        0.1819968 magnetization 

 Broyden mixing:
  rms(total) = 0.30726E-01    rms(broyden)= 0.30720E-01
  rms(prec ) = 0.41117E-01
  weight for this iteration     100.00

 eigenvalues of (default mixing * dielectric matrix)
  average eigenvalue GAMMA=   2.2095
  8.4579  5.4629  4.4119  3.3590  2.7951  2.5694  2.5694  2.3245  1.7735  1.2809
  1.1579  1.1579  0.5714  1.0033  1.0033  0.9800  0.8230  0.8230  0.8326  0.8326

 Free energy of the ion-electron system (eV)
  ---------------------------------------------------
  alpha Z        PSCENC =         0.24610552
[...]
  rms(prec ) = 0.48776E-03
  weight for this iteration     100.00

 eigenvalues of (default mixing * dielectric matrix)
  average eigenvalue GAMMA=   2.4843
  5.5594  5.5594  4.7741  4.4619  0.3766  3.8308  0.7359  1.3108  1.3108  0.9875
  0.9875  1.0546  1.5852  1.5852  3.4373  2.9106  2.9106  1.6801  1.6801  1.6225
  1.8004  2.0485  2.0485  3.1091  3.1091  2.9393  2.9393  2.7351  2.7351  2.0953
  2.5351  2.5351  2.3391  2.3391  2.2950  2.2950  2.3889  2.3889  2.5235  2.5235
  2.7446  2.7446  2.7659  2.7292  2.6149  2.5927

 Free energy of the ion-electron system (eV)
  ---------------------------------------------------
  alpha Z        PSCENC =         0.24610552
  Ewald energy   TEWEN  =       127.40767694
  -Hartree energ DENC   =      -283.24183787
  -exchange      EXHF   =         0.00000000
  -V(xc)+E(xc)   XCENC  =        24.71112330
  PAW double counting   =       468.73376637     -469.51913457
  entropy T*S    EENTRO =         0.02824512
  eigenvalues    EBANDS =       -89.36413048
  atomic energy  EATOM  =       197.04175453
  Solvation  Ediel_sol  =         0.00000000
  ---------------------------------------------------
  free energy    TOTEN  =       -23.95643115 eV

  energy without entropy =      -23.98467627  energy(sigma->0) =      -23.96584619


--------------------------------------------------------------------------------------------------------




--------------------------------------- Iteration     10(  11)  ---------------------------------------


    POTLOK:  cpu time    1.8849: real time    1.8893
    SETDIJ:  cpu time    0.0066: real time    0.0066
    EDDIAG:  cpu time    0.5336: real time    0.5348
  RMM-DIIS:  cpu time    1.7615: real time    1.7667
    ORTHCH:  cpu time    0.0120: real time    0.0120
       DOS:  cpu time    0.0002: real time    0.0002
    CHARGE:  cpu time    0.2047: real time    0.2052
    MIXING:  cpu time    0.1758: real time    0.1762
    --------------------------------------------
      LOOP:  cpu time    4.5792: real time    4.5910

 eigenvalue-minimisations  :    60
 total energy-change (2. order) :-0.1703184E-04  (-0.2869876E-06)
 number of electron       7.9999999 magnetization 
 augmentation part        0.1842503 magnetization 

 Broyden mixing:
  rms(total) = 0.15576E-03    rms(broyden)= 0.15574E-03
  rms(prec ) = 0.20930E-03
  weight for this iteration     100.00

 eigenvalues of (default mixing * dielectric matrix)
  average eigenvalue GAMMA=   2.4910
  5.5716  5.5716  5.4915  4.4522  0.3811  0.7233  3.7550  0.9733  0.9733  1.1118
  1.1118  1.4281  1.4281  1.3928  1.6101  1.6101  3.4638  2.9662  2.9662  1.9065
  1.9065  1.7188  1.7209  2.8970  2.8970  3.0538  3.0538  2.9124  2.9124  2.0965
  2.8577  2.8104  2.8104  2.7534  2.2339  2.3966  2.3966  2.3187  2.3187  2.5187
  2.5187  2.4001  2.4001  2.5287  2.5287  2.6340  2.5930

 Free energy of the ion-electron system (eV)
  ---------------------------------------------------
  alpha Z        PSCENC =         0.24610552
  Ewald energy   TEWEN  =       127.40767694
  -Hartree energ DENC   =      -283.25148482
  -exchange      EXHF   =         0.00000000
  -V(xc)+E(xc)   XCENC  =        24.71150687
  PAW double counting   =       468.63196748     -469.41745946
  entropy T*S    EENTRO =         0.02824954
  eigenvalues    EBANDS =       -89.35476477
  atomic energy  EATOM  =       197.04175453
  Solvation  Ediel_sol  =         0.00000000
  ---------------------------------------------------
  free energy    TOTEN  =       -23.95644818 eV

  energy without entropy =      -23.98469772  energy(sigma->0) =      -23.96586470


--------------------------------------------------------------------------------------------------------




--------------------------------------- Iteration     10(  12)  ---------------------------------------


    POTLOK:  cpu time    1.9826: real time    1.9875
    SETDIJ:  cpu time    0.0065: real time    0.0065
    EDDIAG:  cpu time    0.5319: real time    0.5333
  RMM-DIIS:  cpu time    1.1788: real time    1.1816
    ORTHCH:  cpu time    0.0115: real time    0.0115
       DOS:  cpu time    0.0002: real time    0.0002
    CHARGE:  cpu time    0.1847: real time    0.1851
    MIXING:  cpu time    0.1561: real time    0.1565
    --------------------------------------------
      LOOP:  cpu time    4.0523: real time    4.0622

 eigenvalue-minimisations  :    48
 total energy-change (2. order) :-0.5668082E-05  (-0.7151528E-07)
 number of electron       7.9999999 magnetization 
 augmentation part        0.1842481 magnetization 

 Broyden mixing:
  rms(total) = 0.18123E-03    rms(broyden)= 0.18109E-03
  rms(prec ) = 0.23620E-03
  weight for this iteration     100.00

 eigenvalues of (default mixing * dielectric matrix)
  average eigenvalue GAMMA=   2.4712
  5.8334  5.5694  5.5103  0.3656  4.4378  3.8623  0.7971  0.9719  0.9719  0.9929
  1.2950  1.2950  1.1394  1.1394  1.4383  1.6276  1.6276  3.3814  2.9860  2.9860
  1.6883  2.8925  2.8925  1.8287  2.0060  2.0060  3.0852  2.9123  2.9123  2.8793
  2.8793  2.8916  2.1556  2.1556  2.7650  2.7650  2.5202  2.5202  2.3456  2.3456
  2.6319  2.5926  2.5926  2.5312  2.3837  2.3837  2.4142  2.4142

 Free energy of the ion-electron system (eV)
  ---------------------------------------------------
  alpha Z        PSCENC =         0.24610552
  Ewald energy   TEWEN  =       127.40767694
  -Hartree energ DENC   =      -283.25154766
  -exchange      EXHF   =         0.00000000
  -V(xc)+E(xc)   XCENC  =        24.71143669
  PAW double counting   =       468.64829681     -469.43381686
  entropy T*S    EENTRO =         0.02825987
  eigenvalues    EBANDS =       -89.35461969
  atomic energy  EATOM  =       197.04175453
  Solvation  Ediel_sol  =         0.00000000
  ---------------------------------------------------
  free energy    TOTEN  =       -23.95645385 eV

  energy without entropy =      -23.98471373  energy(sigma->0) =      -23.96587381


--------------------------------------------------------------------------------------------------------




--------------------------------------- Iteration     10(  13)  ---------------------------------------


    POTLOK:  cpu time    2.0060: real time    2.0109
    SETDIJ:  cpu time    0.0066: real time    0.0066
    EDDIAG:  cpu time    0.4311: real time    0.4321
  RMM-DIIS:  cpu time    1.1558: real time    1.1585
    ORTHCH:  cpu time    0.0111: real time    0.0111
       DOS:  cpu time    0.0002: real time    0.0002
    CHARGE:  cpu time    0.1885: real time    0.1890
    MIXING:  cpu time    0.1686: real time    0.1690
    --------------------------------------------
      LOOP:  cpu time    3.9679: real time    3.9775

 eigenvalue-minimisations  :    48
 total energy-change (2. order) :-0.1112129E-05  (-0.2647990E-07)
 number of electron       7.9999999 magnetization 
 augmentation part        0.1842495 magnetization 

 Broyden mixing:
  rms(total) = 0.71021E-04    rms(broyden)= 0.71003E-04
  rms(prec ) = 0.93991E-04
  weight for this iteration     100.00

 eigenvalues of (default mixing * dielectric matrix)
  average eigenvalue GAMMA=   2.4596
  5.8206  5.5801  5.5091  4.5245  0.3696  4.0199  0.7184  1.2112  1.2112  3.5795
  0.9429  1.0036  1.0558  1.0558  1.2751  1.2751  1.4040  1.9139  1.9139  1.6713
  1.6713  1.6731  2.7769  2.7769  3.1835  3.0841  3.0841  2.8661  2.8661  2.9372
  2.9372  2.8604  2.0800  2.1077  2.7776  2.6398  2.6398  2.4922  2.4922  2.3171
  2.3171  2.4026  2.4026  2.4065  2.4065  2.6443  2.5150  2.5150  2.5901

 Free energy of the ion-electron system (eV)
  ---------------------------------------------------
  alpha Z        PSCENC =         0.24610552
  Ewald energy   TEWEN  =       127.40767694
  -Hartree energ DENC   =      -283.24868273
  -exchange      EXHF   =         0.00000000
  -V(xc)+E(xc)   XCENC  =        24.71134279
  PAW double counting   =       468.66530302     -469.45077039
  entropy T*S    EENTRO =         0.02825707
  eigenvalues    EBANDS =       -89.35744170
  atomic energy  EATOM  =       197.04175453
  Solvation  Ediel_sol  =         0.00000000
  ---------------------------------------------------
  free energy    TOTEN  =       -23.95645496 eV

  energy without entropy =      -23.98471203  energy(sigma->0) =      -23.96587398


--------------------------------------------------------------------------------------------------------




--------------------------------------- Iteration     10(  14)  ---------------------------------------


    POTLOK:  cpu time    1.8908: real time    1.8954
    SETDIJ:  cpu time    0.0065: real time    0.0065
    EDDIAG:  cpu time    0.4690: real time    0.4702
  RMM-DIIS:  cpu time    1.1176: real time    1.1203
    ORTHCH:  cpu time    0.0110: real time    0.0110
       DOS:  cpu time    0.0002: real time    0.0002
    --------------------------------------------
      LOOP:  cpu time    3.4950: real time    3.5036

 eigenvalue-minimisations  :    44
 total energy-change (2. order) :-0.4623859E-06  (-0.7232597E-08)
 number of electron       7.9999999 magnetization 
 augmentation part        0.1842495 magnetization 

 Free energy of the ion-electron system (eV)
  ---------------------------------------------------
  alpha Z        PSCENC =         0.24610552
  Ewald energy   TEWEN  =       127.40767694
  -Hartree energ DENC   =      -283.24862744
  -exchange      EXHF   =         0.00000000
  -V(xc)+E(xc)   XCENC  =        24.71134841
  PAW double counting   =       468.67067961     -469.45614274
  entropy T*S    EENTRO =         0.02825460
  eigenvalues    EBANDS =       -89.35750486
  atomic energy  EATOM  =       197.04175453
  Solvation  Ediel_sol  =         0.00000000
  ---------------------------------------------------
  free energy    TOTEN  =       -23.95645542 eV

  energy without entropy =      -23.98471003  energy(sigma->0) =      -23.96587363


--------------------------------------------------------------------------------------------------------




 average (electrostatic) potential at core
  the test charge radii are     0.5201  0.6991
  (the norm of the test charge is              1.0000)
       1 -41.2519       2 -41.6892       3 -41.4720       4 -41.5110       5 -57.9824



 E-fermi :  -9.0008     XC(G=0):  -0.7136     alpha+bet : -0.2140


 k-point     1 :       0.2500    0.2500    0.2500
  band No.  band energies     occupation 
      1     -16.8666      2.00000
      2      -9.4402      2.00804
      3      -9.2256      2.06734
      4      -9.1421      1.92438
      5      -0.3142      0.00000
      6       0.5560      0.00000
      7       0.6628      0.00000
      8       0.6910      0.00000

 k-point     2 :      -0.2500    0.2500    0.2500
  band No.  band energies     occupation 
      1     -16.8667      2.00000
      2      -9.4403      2.00802
      3      -9.2257      2.06741
      4      -9.1422      1.92472
      5      -0.3189      0.00000
      6       0.5548      0.00000
      7       0.6723      0.00000
      8       0.7138      0.00000

 k-point     3 :       0.2500   -0.2500    0.2500
  band No.  band energies     occupation 
      1     -16.8666      2.00000
      2      -9.4403      2.00802
      3      -9.2257      2.06738
      4      -9.1422      1.92479
      5      -0.3206      0.00000
      6       0.5679      0.00000
      7       0.6716      0.00000
      8       0.7113      0.00000

 k-point     4 :      -0.2500   -0.2500    0.2500
  band No.  band energies     occupation 
      1     -16.8666      2.00000
      2      -9.4403      2.00802
      3      -9.2257      2.06739
      4      -9.1421      1.92450
      5      -0.3241      0.00000
      6       0.5836      0.00000
      7       0.6792      0.00000
      8       0.7129      0.00000


--------------------------------------------------------------------------------------------------------


 soft charge-density along one line, spin component           1
         0         1         2         3         4         5         6         7         8         9
 total charge-density along one line

 pseudopotential strength for first ion, spin component:           1
 -2.339  -4.030  -0.001  -0.001   0.000
 -4.030  -6.857  -0.003  -0.004   0.001
 -0.001  -0.003  -0.340   0.002  -0.001
 -0.001  -0.004   0.002  -0.338  -0.001
  0.000   0.001  -0.001  -0.001  -0.341
 total augmentation occupancy for first ion, spin component:           1
  3.286  -0.571   0.239   0.289  -0.086
 -0.571   0.112  -0.042  -0.053   0.016
  0.239  -0.042   0.023   0.018  -0.005
  0.289  -0.053   0.018   0.029  -0.006
 -0.086   0.016  -0.005  -0.006   0.009


------------------------ aborting loop because EDIFF is reached ----------------------------------------


    CHARGE:  cpu time    0.2827: real time    0.2833
    FORLOC:  cpu time    0.1184: real time    0.1187
    FORNL :  cpu time    0.7165: real time    0.7182
    STRESS:  cpu time    2.3206: real time    2.3262
    FORCOR:  cpu time    1.8876: real time    1.8920
    FORHAR:  cpu time    0.6076: real time    0.6090
    MIXING:  cpu time    0.1568: real time    0.1572
    OFIELD:  cpu time    0.0000: real time    0.0000

  FORCE on cell =-STRESS in cart. coord.  units (eV):
  Direction    XX          YY          ZZ          XY          YZ          ZX
  --------------------------------------------------------------------------------------
  Alpha Z     0.24611     0.24611     0.24611
  Ewald      40.11044    45.73149    41.56570    -1.46280    -0.94682     1.16305
  Hartree    93.50362    95.37545    94.36932    -0.45643     0.04869     0.20179
  E(xc)     -27.20135   -27.15763   -27.17427    -0.00864     0.00611     0.00479
  Local    -192.27063  -199.54589  -195.21370     1.59604     0.29114    -1.44794
  n-local   -16.14392   -15.86518   -15.90189     0.39130     0.32791    -0.27457
  augment     0.11223     0.11264     0.11953     0.00185     0.00638     0.00187
  Kinetic   101.63816   100.33831   100.90203     0.61871     0.07571     0.93793
  Fock        0.00000     0.00000     0.00000     0.00000     0.00000     0.00000
  -------------------------------------------------------------------------------------
  Total      -0.00534    -0.76471    -1.08718     0.68004    -0.19088     0.58692
  in kB      -0.00869    -1.24470    -1.76957     1.10688    -0.31069     0.95532
  external pressure =       -1.01 kB  Pullay stress =        0.00 kB

  kinetic pressure (ideal gas correction) =      0.06 kB
  total pressure  =     -0.95 kB
  Total+kin.     0.115      -1.238      -1.726       1.117      -0.297       0.987

 VOLUME and BASIS-vectors are now :
 -----------------------------------------------------------------------------
  energy-cutoff  :      400.00
  volume of cell :      984.34
      direct lattice vectors                 reciprocal lattice vectors
     9.904453092  0.000000000  0.000000000     0.100964686  0.000412883  0.002264167
    -0.040756886  9.966527312  0.000000000    -0.000000000  0.100335851  0.002539965
    -0.222586553 -0.252430118  9.971706720     0.000000000 -0.000000000  0.100283736

  length of vectors
     9.904453092  9.966610647  9.977384459     0.100990915  0.100367995  0.100283736


 FORCES acting on ions
    electron-ion (+dipol)            ewald-force                    non-local-force                 convergence-correction
 -----------------------------------------------------------------------------------------------
   -.138E+02 0.275E+02 0.408E+02   0.147E+02 -.296E+02 -.439E+02   -.140E+01 0.280E+01 0.447E+01   -.487E-06 0.233E-04 0.454E-04
   0.521E+02 -.108E+02 0.328E+01   -.583E+02 0.119E+02 -.391E+01   0.599E+01 -.120E+01 0.344E+00   0.390E-04 0.755E-04 0.600E-04
   -.249E+02 -.469E+02 -.111E+01   0.277E+02 0.518E+02 0.141E+01   -.233E+01 -.476E+01 -.293E+00   -.534E-04 0.152E-04 0.369E-04
   -.975E+01 0.279E+02 -.441E+02   0.110E+02 -.309E+02 0.489E+02   -.102E+01 0.362E+01 -.479E+01   -.112E-04 0.574E-04 0.496E-05
   -.412E+01 0.289E+01 0.216E+01   0.485E+01 -.327E+01 -.250E+01   -.622E+00 0.470E+00 -.108E+01   -.181E-03 0.913E-03 0.940E-03
 -----------------------------------------------------------------------------------------------
   -.441E+00 0.669E+00 0.103E+01   -.355E-14 0.000E+00 0.711E-14   0.621E+00 0.927E+00 -.135E+01   -.208E-03 0.108E-02 0.109E-02


 POSITION                                       TOTAL-FORCE (eV/Angst)
 -----------------------------------------------------------------------------------
      5.16393      3.93218      3.54038        -0.490247      0.707043      1.334044
      3.80698      4.76509      4.37630        -0.139571     -0.069881     -0.283350
      5.37102      5.51136      4.47468         0.483850      0.203957      0.007628
      5.06482      3.97315      5.35456         0.214585      0.662275      0.041413
      4.86545      4.54420      4.44778         0.110917      0.093839     -1.423407
 -----------------------------------------------------------------------------------
    total drift:                                0.179534      1.597232     -0.323672


--------------------------------------------------------------------------------------------------------



  FREE ENERGIE OF THE ION-ELECTRON SYSTEM (eV)
  ---------------------------------------------------
  free  energy   TOTEN  =       -23.95645542 eV

  energy  without entropy=      -23.98471003  energy(sigma->0) =      -23.96587363

 d Force =-0.1568153E-01[-0.564E-01, 0.250E-01]  d Energy =-0.3845589E-01 0.228E-01
 d Force =-0.2411221E+01[-0.247E+01,-0.235E+01]  d Ewald  =-0.2411412E+01 0.191E-03


--------------------------------------------------------------------------------------------------------


    POTLOK:  cpu time    1.9305: real time    1.9351


--------------------------------------------------------------------------------------------------------


           RANDOM_SEED =         578492938               30                0
   IONSTEP:  cpu time    0.0001: real time    0.0001

  ENERGY OF THE ELECTRON-ION-THERMOSTAT SYSTEM (eV)
  ---------------------------------------------------
% ion-electron   TOTEN  =       -23.956455  see above
  kinetic energy EKIN   =         0.038494
  kin. lattice  EKIN_LAT=         0.000000  (temperature   74.45 K)
  nose potential ES     =         0.016655
  nose kinetic   EPS    =         0.012253
  ---------------------------------------------------
  total energy   ETOTAL =       -23.889054 eV

  maximum distance moved by ions :      0.42E-02


 mean value of Nose-termostat <S>:     1.494 mean value of <T> :    74.450
 mean temperature <T/S>/<1/S>  :    74.450

    WAVPRE:  cpu time    0.5263: real time    0.5344
    FEWALD:  cpu time    0.0003: real time    0.0003
    ORTHCH:  cpu time    0.2224: real time    0.2230
 Prediction of Wavefunctions ALPHA= 1.112 BETA=-0.818
    POTLOK:  cpu time    1.8508: real time    1.8552
    EDDIAG:  cpu time    0.4299: real time    0.4310
     LOOP+:  cpu time   73.6789: real time   73.9953
    4ORBIT:  cpu time    0.0000: real time    0.0000

 total amount of memory used by VASP MPI-rank0   321432. kBytes
=======================================================================

   base      :      30000. kBytes
   nonlr-proj:        171. kBytes
   fftplans  :      94700. kBytes
   grid      :     169030. kBytes
   one-center:         15. kBytes
   wavefun   :      27516. kBytes

  
  
 General timing and accounting informations for this job:
 ========================================================
  
                  Total CPU time used (sec):      762.420
                            User time (sec):      747.784
                          System time (sec):       14.636
                         Elapsed time (sec):      766.382
  
                   Maximum memory used (kb):      501868.
                   Average memory used (kb):           0.
  
                          Minor page faults:      2308013
                          Major page faults:            0
                 Voluntary context switches:          394
