<?xml version="1.0" encoding="ISO-8859-1"?>
<modeling>
 <generator>
  <i name="program" type="string">vasp </i>
  <i name="version" type="string">5.4.4.18Apr17-6-g9f103f2a35  </i>
  <i name="subversion" type="string">(build Jul 12 2018 13:43:46) complex            parallel </i>
  <i name="platform" type="string">LinuxGNU </i>
  <i name="date" type="string">2019 06 22 </i>
  <i name="time" type="string">02:17:32 </i>
 </generator>
 <incar>
  <i type="int" name="ISTART">     0</i>
  <i type="string" name="PREC">a</i>
  <i type="string" name="ALGO">fast</i>
  <i type="int" name="MAXMIX">    50</i>
  <i type="int" name="ICHARG">     2</i>
  <i type="int" name="IBRION">     0</i>
  <i name="EDIFF">      0.00000100</i>
  <i type="int" name="NSW">    10</i>
  <i type="int" name="ISIF">     2</i>
  <i type="int" name="ISYM">     0</i>
  <i type="int" name="NBLOCK">     1</i>
  <i type="int" name="KBLOCK">   100</i>
  <i name="ENCUT">    400.00000000</i>
  <i name="POTIM">      2.00000000</i>
  <i name="TEBEG">     50.00000000</i>
  <i name="TEEND">     50.00000000</i>
  <i name="SMASS">      0.00000000</i>
  <i type="logical" name="LREAL"> T  </i>
  <i type="int" name="ISMEAR">     1</i>
  <i name="SIGMA">      0.20000000</i>
  <i name="KSPACING">      0.50000000</i>
  <i type="logical" name="KGAMMA"> F  </i>
  <i name="PSTRESS">      0.00000000</i>
  <i type="logical" name="LWAVE"> F  </i>
  <i type="logical" name="LCHARG"> F  </i>
  <v type="int" name="KPOINT_BSE">    -1     0     0     0</v>
 </incar>
 <structure name="primitive_cell" >
  <crystal>
   <varray name="basis" >
    <v>       9.90445309       0.00000000       0.00000000 </v>
    <v>      -0.04075689       9.96652731       0.00000000 </v>
    <v>      -0.22258655      -0.25243012       9.97170672 </v>
   </varray>
   <i name="volume">    984.33710788 </i>
   <varray name="rec_basis" >
    <v>       0.10096469       0.00041288       0.00226417 </v>
    <v>      -0.00000000       0.10033585       0.00253997 </v>
    <v>       0.00000000      -0.00000000       0.10028374 </v>
   </varray>
  </crystal>
  <varray name="positions" >
   <v>      -0.46199960       0.40666389       0.36077924 </v>
   <v>      -0.49737919       0.46718207       0.44591101 </v>
   <v>      -0.44727514      -0.43378204       0.44264533 </v>
   <v>      -0.47166572       0.41653952      -0.46086482 </v>
   <v>       0.39479837       0.48066691       0.43862191 </v>
  </varray>
 </structure>
 <varray name="primitive_index" >
  <v type="int" >        1 </v>
  <v type="int" >        5 </v>
  <v type="int" >        3 </v>
  <v type="int" >        4 </v>
  <v type="int" >        2 </v>
 </varray>
 <kpoints>
  <generation param="Monkhorst-Pack">
   <v type="int" name="divisions">       2        2        2 </v>
   <v name="usershift">      0.00000000       0.00000000       0.00000000 </v>
   <v name="genvec1">      0.50000000       0.00000000       0.00000000 </v>
   <v name="genvec2">      0.00000000       0.50000000       0.00000000 </v>
   <v name="genvec3">      0.00000000       0.00000000       0.50000000 </v>
   <v name="shift">      0.50000000       0.50000000       0.50000000 </v>
  </generation>
  <varray name="kpointlist" >
   <v>       0.25000000       0.25000000       0.25000000 </v>
   <v>      -0.25000000       0.25000000       0.25000000 </v>
   <v>       0.25000000      -0.25000000       0.25000000 </v>
   <v>      -0.25000000      -0.25000000       0.25000000 </v>
  </varray>
  <varray name="weights" >
   <v>       0.25000000 </v>
   <v>       0.25000000 </v>
   <v>       0.25000000 </v>
   <v>       0.25000000 </v>
  </varray>
 </kpoints>
 <parameters>
  <separator name="general" >
   <i type="string" name="SYSTEM">unknown system</i>
   <i type="logical" name="LCOMPAT"> F  </i>
  </separator>
  <separator name="electronic" >
   <i type="string" name="PREC">a</i>
   <i name="ENMAX">    400.00000000</i>
   <i name="ENAUG">    644.87300000</i>
   <i name="EDIFF">      0.00000100</i>
   <i type="int" name="IALGO">    68</i>
   <i type="int" name="IWAVPR">    12</i>
   <i type="int" name="NBANDS">     8</i>
   <i name="NELECT">      8.00000000</i>
   <i type="int" name="TURBO">     0</i>
   <i type="int" name="IRESTART">     0</i>
   <i type="int" name="NREBOOT">     0</i>
   <i type="int" name="NMIN">     0</i>
   <i name="EREF">      0.00000000</i>
   <separator name="electronic smearing" >
    <i type="int" name="ISMEAR">     1</i>
    <i name="SIGMA">      0.20000000</i>
    <i name="KSPACING">      0.50000000</i>
    <i type="logical" name="KGAMMA"> F  </i>
   </separator>
   <separator name="electronic projectors" >
    <i type="logical" name="LREAL"> T  </i>
    <v name="ROPT">      0.00000000      0.00000000</v>
    <i type="int" name="LMAXPAW">  -100</i>
    <i type="int" name="LMAXMIX">     2</i>
    <i type="logical" name="NLSPLINE"> F  </i>
   </separator>
   <separator name="electronic startup" >
    <i type="int" name="ISTART">     0</i>
    <i type="int" name="ICHARG">     2</i>
    <i type="int" name="INIWAV">     1</i>
   </separator>
   <separator name="electronic spin" >
    <i type="int" name="ISPIN">     1</i>
    <i type="logical" name="LNONCOLLINEAR"> F  </i>
    <v name="MAGMOM">      1.00000000      1.00000000      1.00000000      1.00000000      1.00000000</v>
    <i name="NUPDOWN">     -1.00000000</i>
    <i type="logical" name="LSORBIT"> F  </i>
    <v name="SAXIS">      0.00000000      0.00000000      1.00000000</v>
    <i type="logical" name="LSPIRAL"> F  </i>
    <v name="QSPIRAL">      0.00000000      0.00000000      0.00000000</v>
    <i type="logical" name="LZEROZ"> F  </i>
   </separator>
   <separator name="electronic exchange-correlation" >
    <i type="logical" name="LASPH"> F  </i>
    <i type="logical" name="LMETAGGA"> F  </i>
   </separator>
   <separator name="electronic convergence" >
    <i type="int" name="NELM">    60</i>
    <i type="int" name="NELMDL">    -5</i>
    <i type="int" name="NELMIN">     2</i>
    <i name="ENINI">    400.00000000</i>
    <separator name="electronic convergence detail" >
     <i type="logical" name="LDIAG"> T  </i>
     <i type="logical" name="LSUBROT"> F  </i>
     <i name="WEIMIN">      0.00100000</i>
     <i name="EBREAK">      0.00000003</i>
     <i name="DEPER">      0.30000000</i>
     <i type="int" name="NRMM">     4</i>
     <i name="TIME">      0.40000000</i>
    </separator>
   </separator>
   <separator name="electronic mixer" >
    <i name="AMIX">      0.40000000</i>
    <i name="BMIX">      1.00000000</i>
    <i name="AMIN">      0.10000000</i>
    <i name="AMIX_MAG">      1.60000000</i>
    <i name="BMIX_MAG">      1.00000000</i>
    <separator name="electronic mixer details" >
     <i type="int" name="IMIX">     4</i>
     <i type="logical" name="MIXFIRST"> F  </i>
     <i type="int" name="MAXMIX">    50</i>
     <i name="WC">    100.00000000</i>
     <i type="int" name="INIMIX">     1</i>
     <i type="int" name="MIXPRE">     1</i>
     <i type="int" name="MREMOVE">     5</i>
    </separator>
   </separator>
   <separator name="electronic dipolcorrection" >
    <i type="logical" name="LDIPOL"> F  </i>
    <i type="logical" name="LMONO"> F  </i>
    <i type="int" name="IDIPOL">     0</i>
    <i name="EPSILON">      1.00000000</i>
    <v name="DIPOL">   -100.00000000   -100.00000000   -100.00000000</v>
    <i name="EFIELD">      0.00000000</i>
   </separator>
  </separator>
  <separator name="grids" >
   <i type="int" name="NGX">    70</i>
   <i type="int" name="NGY">    70</i>
   <i type="int" name="NGZ">    70</i>
   <i type="int" name="NGXF">   140</i>
   <i type="int" name="NGYF">   140</i>
   <i type="int" name="NGZF">   140</i>
   <i type="logical" name="ADDGRID"> F  </i>
  </separator>
  <separator name="ionic" >
   <i type="int" name="NSW">    10</i>
   <i type="int" name="IBRION">     0</i>
   <i type="int" name="MDALGO">     0</i>
   <i type="int" name="ISIF">     2</i>
   <i name="PSTRESS">      0.00000000</i>
   <i name="EDIFFG">      0.00001000</i>
   <i type="int" name="NFREE">     0</i>
   <i name="POTIM">      2.00000000</i>
   <i name="SMASS">      0.00164884</i>
   <i name="SCALEE">      1.00000000</i>
  </separator>
  <separator name="ionic md" >
   <i name="TEBEG">     50.00000000</i>
   <i name="TEEND">     50.00000000</i>
   <i type="int" name="NBLOCK">     1</i>
   <i type="int" name="KBLOCK">     1</i>
   <i type="int" name="NPACO">   256</i>
   <i name="APACO">     16.00000000</i>
  </separator>
  <separator name="symmetry" >
   <i type="int" name="ISYM">     0</i>
   <i name="SYMPREC">      0.00001000</i>
  </separator>
  <separator name="dos" >
   <i type="int" name="LORBIT">     0</i>
   <v name="RWIGS">     -1.00000000     -1.00000000</v>
   <i type="int" name="NEDOS">   301</i>
   <i name="EMIN">     10.00000000</i>
   <i name="EMAX">    -10.00000000</i>
   <i name="EFERMI">      0.00000000</i>
  </separator>
  <separator name="writing" >
   <i type="int" name="NWRITE">     2</i>
   <i type="logical" name="LWAVE"> F  </i>
   <i type="logical" name="LDOWNSAMPLE"> F  </i>
   <i type="logical" name="LCHARG"> F  </i>
   <i type="logical" name="LPARD"> F  </i>
   <i type="logical" name="LVTOT"> F  </i>
   <i type="logical" name="LVHAR"> F  </i>
   <i type="logical" name="LELF"> F  </i>
   <i type="logical" name="LOPTICS"> F  </i>
   <v name="STM">      0.00000000      0.00000000      0.00000000      0.00000000      0.00000000      0.00000000      0.00000000</v>
  </separator>
  <separator name="performance" >
   <i type="int" name="NPAR">     1</i>
   <i type="int" name="NSIM">     4</i>
   <i type="int" name="NBLK">    -1</i>
   <i type="logical" name="LPLANE"> T  </i>
   <i type="logical" name="LSCALAPACK"> T  </i>
   <i type="logical" name="LSCAAWARE"> F  </i>
   <i type="logical" name="LSCALU"> F  </i>
   <i type="logical" name="LASYNC"> F  </i>
   <i type="logical" name="LORBITALREAL"> F  </i>
  </separator>
  <separator name="miscellaneous" >
   <i type="int" name="IDIOT">     3</i>
   <i type="int" name="ISPECIAL">     0</i>
   <i type="logical" name="LMUSIC"> F  </i>
   <v name="POMASS">      1.00000000     12.01100000</v>
   <v name="DARWINR">      0.00000000      0.00000000</v>
   <v name="DARWINV">      1.00000000      1.00000000</v>
   <i type="logical" name="LCORR"> T  </i>
  </separator>
  <i type="logical" name="GGA_COMPAT"> T  </i>
  <i type="logical" name="LBERRY"> F  </i>
  <i type="int" name="ICORELEVEL">     0</i>
  <i type="logical" name="LDAU"> F  </i>
  <i type="int" name="I_CONSTRAINED_M">     0</i>
  <separator name="electronic exchange-correlation" >
   <i type="string" name="GGA">--</i>
   <i type="int" name="VOSKOWN">     0</i>
   <i type="logical" name="LHFCALC"> F  </i>
   <i type="string" name="PRECFOCK"></i>
   <i type="logical" name="LSYMGRAD"> F  </i>
   <i type="logical" name="LHFONE"> F  </i>
   <i type="logical" name="LRHFCALC"> F  </i>
   <i type="logical" name="LTHOMAS"> F  </i>
   <i type="logical" name="LMODELHF"> F  </i>
   <i name="ENCUT4O">     -1.00000000</i>
   <i type="int" name="EXXOEP">     0</i>
   <i type="int" name="FOURORBIT">     0</i>
   <i name="AEXX">      0.00000000</i>
   <i name="HFALPHA">      0.00000000</i>
   <i name="MCALPHA">      0.00000000</i>
   <i name="ALDAX">      1.00000000</i>
   <i name="AGGAX">      1.00000000</i>
   <i name="ALDAC">      1.00000000</i>
   <i name="AGGAC">      1.00000000</i>
   <i type="int" name="NKREDX">     1</i>
   <i type="int" name="NKREDY">     1</i>
   <i type="int" name="NKREDZ">     1</i>
   <i type="logical" name="SHIFTRED"> F  </i>
   <i type="logical" name="ODDONLY"> F  </i>
   <i type="logical" name="EVENONLY"> F  </i>
   <i type="int" name="LMAXFOCK">     0</i>
   <i type="int" name="NMAXFOCKAE">     0</i>
   <i type="logical" name="LFOCKAEDFT"> F  </i>
   <i name="HFSCREEN">      0.00000000</i>
   <i name="HFSCREENC">      0.00000000</i>
   <i type="int" name="NBANDSGWLOW">     0</i>
  </separator>
  <separator name="vdW DFT" >
   <i type="logical" name="LUSE_VDW"> F  </i>
   <i name="Zab_VDW">     -0.84910000</i>
   <i name="PARAM1">      0.12340000</i>
   <i name="PARAM2">      1.00000000</i>
   <i name="PARAM3">      0.00000000</i>
  </separator>
  <separator name="model GW" >
   <i type="int" name="MODEL_GW">     0</i>
   <i name="MODEL_EPS0">    118.12045295</i>
   <i name="MODEL_ALPHA">      1.00000000</i>
  </separator>
  <separator name="linear response parameters" >
   <i type="logical" name="LEPSILON"> F  </i>
   <i type="logical" name="LRPA"> F  </i>
   <i type="logical" name="LNABLA"> F  </i>
   <i type="logical" name="LVEL"> F  </i>
   <i type="int" name="KINTER">     0</i>
   <i name="CSHIFT">      0.10000000</i>
   <i name="OMEGAMAX">     -1.00000000</i>
   <i name="DEG_THRESHOLD">      0.00200000</i>
   <i name="RTIME">     -0.10000000</i>
   <i name="WPLASMAI">      0.00000000</i>
   <v name="DFIELD">      0.00000000      0.00000000      0.00000000</v>
   <v name="WPLASMA">      0.00000000      0.00000000      0.00000000      0.00000000      0.00000000      0.00000000      0.00000000      0.00000000      0.00000000</v>
  </separator>
  <separator name="orbital magnetization" >
   <i type="logical" name="NUCIND"> F  </i>
   <v name="MAGPOS">      0.00000000      0.00000000      0.00000000</v>
   <i type="logical" name="LNICSALL"> T  </i>
   <i type="logical" name="ORBITALMAG"> F  </i>
   <i type="logical" name="LMAGBLOCH"> F  </i>
   <i type="logical" name="LCHIMAG"> F  </i>
   <i type="logical" name="LGAUGE"> T  </i>
   <i type="int" name="MAGATOM">     0</i>
   <v name="MAGDIPOL">      0.00000000      0.00000000      0.00000000</v>
   <v name="AVECCONST">      0.00000000      0.00000000      0.00000000</v>
  </separator>
  <separator name="response functions" >
   <i type="logical" name="LADDER"> F  </i>
   <i type="logical" name="LRPAFORCE"> F  </i>
   <i type="logical" name="LFXC"> F  </i>
   <i type="logical" name="LHARTREE"> T  </i>
   <i type="int" name="IBSE">     0</i>
   <v type="int" name="KPOINT">    -1     0     0     0</v>
   <i type="logical" name="LTCTE"> F  </i>
   <i type="logical" name="LTETE"> F  </i>
   <i type="logical" name="LTRIPLET"> F  </i>
   <i type="logical" name="LFXCEPS"> F  </i>
   <i type="logical" name="LFXHEG"> F  </i>
   <i type="int" name="NATURALO">     2</i>
   <i type="logical" name="L2ORDER"> F  </i>
   <i type="logical" name="LMP2LT"> F  </i>
   <i type="logical" name="LUSEW"> F  </i>
   <i name="ENCUTGW">     -2.00000000</i>
   <i name="ENCUTGWSOFT">     -2.00000000</i>
   <i name="ENCUTLF">     -1.00000000</i>
   <i type="int" name="LMAXMP2">    -1</i>
   <i name="SCISSOR">      0.00000000</i>
   <i type="int" name="NOMEGA">     0</i>
   <i type="int" name="NOMEGAR">     0</i>
   <i type="int" name="NBANDSGW">    -1</i>
   <i type="int" name="NBANDSO">    -1</i>
   <i type="int" name="NBANDSV">    -1</i>
   <i type="int" name="NELM">     1</i>
   <i type="int" name="NELMHF">     1</i>
   <i type="int" name="DIM">     3</i>
   <i type="int" name="ANTIRES">     0</i>
   <i name="OMEGAMAX">    -30.00000000</i>
   <i name="OMEGAMIN">    -30.00000000</i>
   <i name="OMEGATL">   -200.00000000</i>
   <i type="int" name="OMEGAGRID">   140</i>
   <i name="CSHIFT">     -0.10000000</i>
   <i type="logical" name="SELFENERGY"> F  </i>
   <i type="logical" name="LSPECTRAL"> F  </i>
   <i type="logical" name="LSPECTRALGW"> F  </i>
   <i type="logical" name="LSINGLES"> F  </i>
   <i type="logical" name="LFERMIGW"> F  </i>
   <i type="logical" name="ODDONLYGW"> F  </i>
   <i type="logical" name="EVENONLYGW"> F  </i>
   <i type="int" name="NKREDLFX">     1</i>
   <i type="int" name="NKREDLFY">     1</i>
   <i type="int" name="NKREDLFZ">     1</i>
   <i type="int" name="MAXMEM">  2800</i>
   <i type="int" name="TELESCOPE">     0</i>
   <i type="int" name="TAUPAR">     1</i>
   <i type="int" name="OMEGAPAR">    -1</i>
   <i name="LAMBDA">      1.00000000</i>
  </separator>
  <separator name="External order field" >
   <i name="OFIELD_KAPPA">      0.00000000</i>
   <v name="OFIELD_K">      0.00000000      0.00000000      0.00000000</v>
   <i name="OFIELD_Q6_NEAR">      0.00000000</i>
   <i name="OFIELD_Q6_FAR">      0.00000000</i>
   <i name="OFIELD_A">      0.00000000</i>
  </separator>
 </parameters>
 <atominfo>
  <atoms>       5 </atoms>
  <types>       2 </types>
  <array name="atoms" >
   <dimension dim="1">ion</dimension>
   <field type="string">element</field>
   <field type="int">atomtype</field>
   <set>
    <rc><c>H </c><c>   1</c></rc>
    <rc><c>H </c><c>   1</c></rc>
    <rc><c>H </c><c>   1</c></rc>
    <rc><c>H </c><c>   1</c></rc>
    <rc><c>C </c><c>   2</c></rc>
   </set>
  </array>
  <array name="atomtypes" >
   <dimension dim="1">type</dimension>
   <field type="int">atomspertype</field>
   <field type="string">element</field>
   <field>mass</field>
   <field>valence</field>
   <field type="string">pseudopotential</field>
   <set>
    <rc><c>   4</c><c>H </c><c>      1.00000000</c><c>      1.00000000</c><c>  PAW_PBE H 15Jun2001                   </c></rc>
    <rc><c>   1</c><c>C </c><c>     12.01100000</c><c>      4.00000000</c><c>  PAW_PBE C 08Apr2002                   </c></rc>
   </set>
  </array>
 </atominfo>
 <structure name="initialpos" >
  <crystal>
   <varray name="basis" >
    <v>       9.90445309       0.00000000       0.00000000 </v>
    <v>      -0.04075689       9.96652731       0.00000000 </v>
    <v>      -0.22258655      -0.25243012       9.97170672 </v>
   </varray>
   <i name="volume">    984.33710788 </i>
   <varray name="rec_basis" >
    <v>       0.10096469       0.00041288       0.00226417 </v>
    <v>      -0.00000000       0.10033585       0.00253997 </v>
    <v>       0.00000000      -0.00000000       0.10028374 </v>
   </varray>
  </crystal>
  <varray name="positions" >
   <v>       0.53800040       0.40666389       0.36077924 </v>
   <v>       0.39479837       0.48066691       0.43862191 </v>
   <v>       0.55272486       0.56621796       0.44264533 </v>
   <v>       0.52833428       0.41653952       0.53913518 </v>
   <v>       0.50262081       0.46718207       0.44591101 </v>
  </varray>
  <varray name="velocities" >
   <v>      -0.00077629      -0.00047152      -0.00049456 </v>
   <v>      -0.00063825      -0.00113937       0.00217489 </v>
   <v>       0.00072014       0.00032544      -0.00310963 </v>
   <v>      -0.00082521      -0.00016568      -0.00075864 </v>
   <v>       0.00012652       0.00012082       0.00018216 </v>
  </varray>
 </structure>
 <calculation>
  <scstep>
   <time name="dav">    2.93    2.94</time>
   <time name="total">    4.79    4.80</time>
   <energy>
    <i name="alphaZ">      0.24610552 </i>
    <i name="ewald">    128.98114501 </i>
    <i name="hartreedc">   -243.81165491 </i>
    <i name="XCdc">     22.03222876 </i>
    <i name="pawpsdc">    117.05815612 </i>
    <i name="pawaedc">   -117.66307307 </i>
    <i name="eentropy">      0.00289895 </i>
    <i name="bandstr">    -90.36368675 </i>
    <i name="atom">    197.04175453 </i>
    <i name="e_fr_energy">     13.52387416 </i>
    <i name="e_wo_entrp">     13.52097521 </i>
    <i name="e_0_energy">     13.52290785 </i>
   </energy>
  </scstep>
  <scstep>
   <time name="dav">    2.19    2.20</time>
   <time name="total">    2.19    2.20</time>
   <energy>
    <i name="e_fr_energy">    -23.50513571 </i>
    <i name="e_wo_entrp">    -23.50819239 </i>
    <i name="e_0_energy">    -23.50615461 </i>
   </energy>
  </scstep>
  <scstep>
   <time name="dav">    2.20    2.20</time>
   <time name="total">    2.20    2.20</time>
   <energy>
    <i name="e_fr_energy">    -27.44792401 </i>
    <i name="e_wo_entrp">    -27.46846818 </i>
    <i name="e_0_energy">    -27.45477207 </i>
   </energy>
  </scstep>
  <scstep>
   <time name="dav">    3.94    3.95</time>
   <time name="total">    3.94    3.95</time>
   <energy>
    <i name="e_fr_energy">    -27.59722733 </i>
    <i name="e_wo_entrp">    -27.61809669 </i>
    <i name="e_0_energy">    -27.60418379 </i>
   </energy>
  </scstep>
  <scstep>
   <time name="dav">    3.03    3.04</time>
   <time name="total">    3.29    3.30</time>
   <energy>
    <i name="e_fr_energy">    -27.59727025 </i>
    <i name="e_wo_entrp">    -27.61813980 </i>
    <i name="e_0_energy">    -27.60422677 </i>
   </energy>
  </scstep>
  <scstep>
   <time name="diag">    0.49    0.50</time>
   <time name="diis">    1.55    1.55</time>
   <time name="orth">    0.01    0.01</time>
   <time name="total">    4.19    4.20</time>
   <energy>
    <i name="e_fr_energy">    -24.65312040 </i>
    <i name="e_wo_entrp">    -24.68067100 </i>
    <i name="e_0_energy">    -24.66230394 </i>
   </energy>
  </scstep>
  <scstep>
   <time name="diag">    0.48    0.48</time>
   <time name="diis">    1.55    1.55</time>
   <time name="orth">    0.01    0.01</time>
   <time name="total">    4.21    4.22</time>
   <energy>
    <i name="e_fr_energy">    -24.14808227 </i>
    <i name="e_wo_entrp">    -24.18288269 </i>
    <i name="e_0_energy">    -24.15968241 </i>
   </energy>
  </scstep>
  <scstep>
   <time name="diag">    0.47    0.47</time>
   <time name="diis">    1.59    1.59</time>
   <time name="orth">    0.01    0.01</time>
   <time name="total">    4.24    4.25</time>
   <energy>
    <i name="e_fr_energy">    -23.99980697 </i>
    <i name="e_wo_entrp">    -24.03724695 </i>
    <i name="e_0_energy">    -24.01228697 </i>
   </energy>
  </scstep>
  <scstep>
   <time name="diag">    0.47    0.47</time>
   <time name="diis">    1.64    1.64</time>
   <time name="orth">    0.01    0.01</time>
   <time name="total">    4.28    4.29</time>
   <energy>
    <i name="e_fr_energy">    -23.99397869 </i>
    <i name="e_wo_entrp">    -24.03238270 </i>
    <i name="e_0_energy">    -24.00678003 </i>
   </energy>
  </scstep>
  <scstep>
   <time name="diag">    0.48    0.48</time>
   <time name="diis">    1.64    1.64</time>
   <time name="orth">    0.01    0.01</time>
   <time name="total">    4.23    4.24</time>
   <energy>
    <i name="e_fr_energy">    -23.99170598 </i>
    <i name="e_wo_entrp">    -24.03140802 </i>
    <i name="e_0_energy">    -24.00493999 </i>
   </energy>
  </scstep>
  <scstep>
   <time name="diag">    0.49    0.49</time>
   <time name="diis">    1.63    1.63</time>
   <time name="orth">    0.01    0.01</time>
   <time name="total">    4.16    4.17</time>
   <energy>
    <i name="e_fr_energy">    -23.98765525 </i>
    <i name="e_wo_entrp">    -24.02772435 </i>
    <i name="e_0_energy">    -24.00101162 </i>
   </energy>
  </scstep>
  <scstep>
   <time name="diag">    0.48    0.48</time>
   <time name="diis">    1.62    1.63</time>
   <time name="orth">    0.01    0.01</time>
   <time name="total">    4.15    4.16</time>
   <energy>
    <i name="e_fr_energy">    -23.99046036 </i>
    <i name="e_wo_entrp">    -24.03034822 </i>
    <i name="e_0_energy">    -24.00375631 </i>
   </energy>
  </scstep>
  <scstep>
   <time name="diag">    0.48    0.48</time>
   <time name="diis">    1.68    1.68</time>
   <time name="orth">    0.01    0.01</time>
   <time name="total">    4.07    4.08</time>
   <energy>
    <i name="e_fr_energy">    -23.99788941 </i>
    <i name="e_wo_entrp">    -24.03763043 </i>
    <i name="e_0_energy">    -24.01113641 </i>
   </energy>
  </scstep>
  <scstep>
   <time name="diag">    0.49    0.49</time>
   <time name="diis">    1.70    1.70</time>
   <time name="orth">    0.01    0.01</time>
   <time name="total">    4.10    4.11</time>
   <energy>
    <i name="e_fr_energy">    -23.99896984 </i>
    <i name="e_wo_entrp">    -24.03876846 </i>
    <i name="e_0_energy">    -24.01223604 </i>
   </energy>
  </scstep>
  <scstep>
   <time name="diag">    0.49    0.50</time>
   <time name="diis">    1.64    1.64</time>
   <time name="orth">    0.01    0.01</time>
   <time name="total">    4.05    4.06</time>
   <energy>
    <i name="e_fr_energy">    -24.00114325 </i>
    <i name="e_wo_entrp">    -24.04098133 </i>
    <i name="e_0_energy">    -24.01442261 </i>
   </energy>
  </scstep>
  <scstep>
   <time name="diag">    0.49    0.50</time>
   <time name="diis">    1.61    1.62</time>
   <time name="orth">    0.01    0.01</time>
   <time name="total">    4.02    4.03</time>
   <energy>
    <i name="e_fr_energy">    -24.00149517 </i>
    <i name="e_wo_entrp">    -24.04128155 </i>
    <i name="e_0_energy">    -24.01475729 </i>
   </energy>
  </scstep>
  <scstep>
   <time name="diag">    0.48    0.48</time>
   <time name="diis">    1.65    1.65</time>
   <time name="orth">    0.01    0.01</time>
   <time name="total">    4.06    4.07</time>
   <energy>
    <i name="e_fr_energy">    -24.00176815 </i>
    <i name="e_wo_entrp">    -24.04156696 </i>
    <i name="e_0_energy">    -24.01503442 </i>
   </energy>
  </scstep>
  <scstep>
   <time name="diag">    0.48    0.48</time>
   <time name="diis">    1.66    1.66</time>
   <time name="orth">    0.01    0.01</time>
   <time name="total">    4.08    4.09</time>
   <energy>
    <i name="e_fr_energy">    -24.00182119 </i>
    <i name="e_wo_entrp">    -24.04161453 </i>
    <i name="e_0_energy">    -24.01508563 </i>
   </energy>
  </scstep>
  <scstep>
   <time name="diag">    0.48    0.48</time>
   <time name="diis">    1.55    1.56</time>
   <time name="orth">    0.01    0.01</time>
   <time name="total">    4.02    4.03</time>
   <energy>
    <i name="e_fr_energy">    -24.00184594 </i>
    <i name="e_wo_entrp">    -24.04165310 </i>
    <i name="e_0_energy">    -24.01511499 </i>
   </energy>
  </scstep>
  <scstep>
   <time name="diag">    0.48    0.48</time>
   <time name="diis">    1.27    1.28</time>
   <time name="orth">    0.01    0.01</time>
   <time name="total">    3.80    3.81</time>
   <energy>
    <i name="e_fr_energy">    -24.00184997 </i>
    <i name="e_wo_entrp">    -24.04165437 </i>
    <i name="e_0_energy">    -24.01511810 </i>
   </energy>
  </scstep>
  <scstep>
   <time name="diag">    0.48    0.48</time>
   <time name="diis">    1.30    1.30</time>
   <time name="orth">    0.01    0.01</time>
   <time name="total">    3.87    3.88</time>
   <energy>
    <i name="e_fr_energy">    -24.00185232 </i>
    <i name="e_wo_entrp">    -24.04165421 </i>
    <i name="e_0_energy">    -24.01511961 </i>
   </energy>
  </scstep>
  <scstep>
   <time name="diag">    0.48    0.48</time>
   <time name="diis">    1.04    1.05</time>
   <time name="orth">    0.01    0.01</time>
   <time name="total">    3.33    3.34</time>
   <energy>
    <i name="alphaZ">      0.24610552 </i>
    <i name="ewald">    128.98114501 </i>
    <i name="hartreedc">   -284.70289360 </i>
    <i name="XCdc">     24.78868343 </i>
    <i name="pawpsdc">    475.92704168 </i>
    <i name="pawaedc">   -476.71879991 </i>
    <i name="eentropy">      0.03980257 </i>
    <i name="bandstr">    -89.60469180 </i>
    <i name="atom">    197.04175453 </i>
    <i name="e_fr_energy">    -24.00185257 </i>
    <i name="e_wo_entrp">    -24.04165514 </i>
    <i name="e_0_energy">    -24.01512009 </i>
   </energy>
  </scstep>
  <structure>
   <crystal>
    <varray name="basis" >
     <v>       9.90445309       0.00000000       0.00000000 </v>
     <v>      -0.04075689       9.96652731       0.00000000 </v>
     <v>      -0.22258655      -0.25243012       9.97170672 </v>
    </varray>
    <i name="volume">    984.33710788 </i>
    <varray name="rec_basis" >
     <v>       0.10096469       0.00041288       0.00226417 </v>
     <v>      -0.00000000       0.10033585       0.00253997 </v>
     <v>       0.00000000      -0.00000000       0.10028374 </v>
    </varray>
   </crystal>
   <varray name="positions" >
    <v>       0.53800040       0.40666389       0.36077924 </v>
    <v>       0.39479837       0.48066691       0.43862191 </v>
    <v>       0.55272486       0.56621796       0.44264533 </v>
    <v>       0.52833428       0.41653952       0.53913518 </v>
    <v>       0.50262081       0.46718207       0.44591101 </v>
   </varray>
  </structure>
  <varray name="forces" >
   <v>       0.80228778      -0.32408874      -0.65066983 </v>
   <v>      -0.38072645       0.35196349       0.46780659 </v>
   <v>      -0.07758447      -0.08317757       0.05594038 </v>
   <v>      -0.10311490      -0.20083028      -0.06413637 </v>
   <v>       0.14258609       0.79781511      -0.41984659 </v>
  </varray>
  <varray name="stress" >
   <v>      -0.01786790      -0.14906692      -0.71851279 </v>
   <v>      -0.14906692       0.41808282       0.63090333 </v>
   <v>      -0.71851279       0.63090333       0.13675181 </v>
  </varray>
  <energy>
   <i name="e_fr_energy">    -24.00185257 </i>
   <i name="e_wo_entrp">    -24.01512009 </i>
   <i name="e_0_energy">      0.03980257 </i>
   <i name="kinetic">      0.03739681 </i>
   <i name="lattice kinetic">      0.00000000 </i>
   <i name="nosepot">      0.00000000 </i>
   <i name="nosekinetic">      0.00001594 </i>
   <i name="total">    -23.96443981 </i>
  </energy>
  <dos>
   <i name="efermi">     -9.08711580 </i>
   <total>
    <array>
     <dimension dim="1">gridpoints</dimension>
     <dimension dim="2">spin</dimension>
     <field>energy</field>
     <field>total</field>
     <field>integrated</field>
     <set>
      <set comment="spin 1">
       <r>   -18.9085     0.0000     0.0000 </r>
       <r>   -18.8365     0.0000     0.0000 </r>
       <r>   -18.7644     0.0000     0.0000 </r>
       <r>   -18.6923     0.0000     0.0000 </r>
       <r>   -18.6202     0.0000     0.0000 </r>
       <r>   -18.5481    -0.0000    -0.0000 </r>
       <r>   -18.4761    -0.0000    -0.0000 </r>
       <r>   -18.4040    -0.0000    -0.0000 </r>
       <r>   -18.3319    -0.0000    -0.0000 </r>
       <r>   -18.2598    -0.0000    -0.0000 </r>
       <r>   -18.1878    -0.0000    -0.0000 </r>
       <r>   -18.1157    -0.0000    -0.0000 </r>
       <r>   -18.0436    -0.0000    -0.0000 </r>
       <r>   -17.9715    -0.0000    -0.0000 </r>
       <r>   -17.8995    -0.0000    -0.0000 </r>
       <r>   -17.8274    -0.0000    -0.0000 </r>
       <r>   -17.7553    -0.0000    -0.0000 </r>
       <r>   -17.6832    -0.0000    -0.0000 </r>
       <r>   -17.6111    -0.0001    -0.0000 </r>
       <r>   -17.5391    -0.0010    -0.0001 </r>
       <r>   -17.4670    -0.0068    -0.0006 </r>
       <r>   -17.3949    -0.0354    -0.0031 </r>
       <r>   -17.3228    -0.1315    -0.0126 </r>
       <r>   -17.2508    -0.3263    -0.0361 </r>
       <r>   -17.1787    -0.4258    -0.0668 </r>
       <r>   -17.1066     0.2579    -0.0482 </r>
       <r>   -17.0345     2.5264     0.1339 </r>
       <r>   -16.9625     5.9314     0.5614 </r>
       <r>   -16.8904     8.2048     1.1528 </r>
       <r>   -16.8183     7.3716     1.6841 </r>
       <r>   -16.7462     4.1864     1.9858 </r>
       <r>   -16.6741     1.1676     2.0700 </r>
       <r>   -16.6021    -0.2442     2.0524 </r>
       <r>   -16.5300    -0.4179     2.0223 </r>
       <r>   -16.4579    -0.2188     2.0065 </r>
       <r>   -16.3858    -0.0711     2.0014 </r>
       <r>   -16.3138    -0.0161     2.0002 </r>
       <r>   -16.2417    -0.0026     2.0000 </r>
       <r>   -16.1696    -0.0003     2.0000 </r>
       <r>   -16.0975    -0.0000     2.0000 </r>
       <r>   -16.0255    -0.0000     2.0000 </r>
       <r>   -15.9534    -0.0000     2.0000 </r>
       <r>   -15.8813    -0.0000     2.0000 </r>
       <r>   -15.8092    -0.0000     2.0000 </r>
       <r>   -15.7371    -0.0000     2.0000 </r>
       <r>   -15.6651    -0.0000     2.0000 </r>
       <r>   -15.5930     0.0000     2.0000 </r>
       <r>   -15.5209     0.0000     2.0000 </r>
       <r>   -15.4488     0.0000     2.0000 </r>
       <r>   -15.3768     0.0000     2.0000 </r>
       <r>   -15.3047     0.0000     2.0000 </r>
       <r>   -15.2326     0.0000     2.0000 </r>
       <r>   -15.1605     0.0000     2.0000 </r>
       <r>   -15.0885     0.0000     2.0000 </r>
       <r>   -15.0164     0.0000     2.0000 </r>
       <r>   -14.9443     0.0000     2.0000 </r>
       <r>   -14.8722     0.0000     2.0000 </r>
       <r>   -14.8001     0.0000     2.0000 </r>
       <r>   -14.7281     0.0000     2.0000 </r>
       <r>   -14.6560     0.0000     2.0000 </r>
       <r>   -14.5839     0.0000     2.0000 </r>
       <r>   -14.5118     0.0000     2.0000 </r>
       <r>   -14.4398     0.0000     2.0000 </r>
       <r>   -14.3677     0.0000     2.0000 </r>
       <r>   -14.2956     0.0000     2.0000 </r>
       <r>   -14.2235     0.0000     2.0000 </r>
       <r>   -14.1515     0.0000     2.0000 </r>
       <r>   -14.0794     0.0000     2.0000 </r>
       <r>   -14.0073     0.0000     2.0000 </r>
       <r>   -13.9352     0.0000     2.0000 </r>
       <r>   -13.8631     0.0000     2.0000 </r>
       <r>   -13.7911     0.0000     2.0000 </r>
       <r>   -13.7190     0.0000     2.0000 </r>
       <r>   -13.6469     0.0000     2.0000 </r>
       <r>   -13.5748     0.0000     2.0000 </r>
       <r>   -13.5028     0.0000     2.0000 </r>
       <r>   -13.4307     0.0000     2.0000 </r>
       <r>   -13.3586     0.0000     2.0000 </r>
       <r>   -13.2865     0.0000     2.0000 </r>
       <r>   -13.2145     0.0000     2.0000 </r>
       <r>   -13.1424     0.0000     2.0000 </r>
       <r>   -13.0703     0.0000     2.0000 </r>
       <r>   -12.9982     0.0000     2.0000 </r>
       <r>   -12.9261     0.0000     2.0000 </r>
       <r>   -12.8541     0.0000     2.0000 </r>
       <r>   -12.7820     0.0000     2.0000 </r>
       <r>   -12.7099     0.0000     2.0000 </r>
       <r>   -12.6378     0.0000     2.0000 </r>
       <r>   -12.5658     0.0000     2.0000 </r>
       <r>   -12.4937     0.0000     2.0000 </r>
       <r>   -12.4216     0.0000     2.0000 </r>
       <r>   -12.3495     0.0000     2.0000 </r>
       <r>   -12.2775     0.0000     2.0000 </r>
       <r>   -12.2054     0.0000     2.0000 </r>
       <r>   -12.1333     0.0000     2.0000 </r>
       <r>   -12.0612     0.0000     2.0000 </r>
       <r>   -11.9891     0.0000     2.0000 </r>
       <r>   -11.9171     0.0000     2.0000 </r>
       <r>   -11.8450     0.0000     2.0000 </r>
       <r>   -11.7729     0.0000     2.0000 </r>
       <r>   -11.7008     0.0000     2.0000 </r>
       <r>   -11.6288     0.0000     2.0000 </r>
       <r>   -11.5567     0.0000     2.0000 </r>
       <r>   -11.4846     0.0000     2.0000 </r>
       <r>   -11.4125     0.0000     2.0000 </r>
       <r>   -11.3405     0.0000     2.0000 </r>
       <r>   -11.2684     0.0000     2.0000 </r>
       <r>   -11.1963     0.0000     2.0000 </r>
       <r>   -11.1242     0.0000     2.0000 </r>
       <r>   -11.0521     0.0000     2.0000 </r>
       <r>   -10.9801    -0.0000     2.0000 </r>
       <r>   -10.9080    -0.0000     2.0000 </r>
       <r>   -10.8359    -0.0000     2.0000 </r>
       <r>   -10.7638    -0.0000     2.0000 </r>
       <r>   -10.6918    -0.0000     2.0000 </r>
       <r>   -10.6197    -0.0000     2.0000 </r>
       <r>   -10.5476    -0.0000     2.0000 </r>
       <r>   -10.4755    -0.0000     2.0000 </r>
       <r>   -10.4035    -0.0000     2.0000 </r>
       <r>   -10.3314    -0.0000     2.0000 </r>
       <r>   -10.2593    -0.0000     2.0000 </r>
       <r>   -10.1872    -0.0000     2.0000 </r>
       <r>   -10.1151    -0.0000     2.0000 </r>
       <r>   -10.0431    -0.0003     2.0000 </r>
       <r>    -9.9710    -0.0024     1.9998 </r>
       <r>    -9.8989    -0.0158     1.9987 </r>
       <r>    -9.8268    -0.0777     1.9931 </r>
       <r>    -9.7548    -0.2760     1.9732 </r>
       <r>    -9.6827    -0.6696     1.9249 </r>
       <r>    -9.6106    -0.9073     1.8595 </r>
       <r>    -9.5385     0.2704     1.8790 </r>
       <r>    -9.4665     4.5525     2.2071 </r>
       <r>    -9.3944    11.9168     3.0661 </r>
       <r>    -9.3223    19.0203     4.4370 </r>
       <r>    -9.2502    21.2749     5.9704 </r>
       <r>    -9.1781    17.1632     7.2075 </r>
       <r>    -9.1061     9.6541     7.9033 </r>
       <r>    -9.0340     3.1573     8.1309 </r>
       <r>    -8.9619    -0.1348     8.1212 </r>
       <r>    -8.8898    -0.8456     8.0602 </r>
       <r>    -8.8178    -0.5496     8.0206 </r>
       <r>    -8.7457    -0.2144     8.0052 </r>
       <r>    -8.6736    -0.0582     8.0010 </r>
       <r>    -8.6015    -0.0115     8.0001 </r>
       <r>    -8.5295    -0.0017     8.0000 </r>
       <r>    -8.4574    -0.0002     8.0000 </r>
       <r>    -8.3853    -0.0000     8.0000 </r>
       <r>    -8.3132    -0.0000     8.0000 </r>
       <r>    -8.2411    -0.0000     8.0000 </r>
       <r>    -8.1691    -0.0000     8.0000 </r>
       <r>    -8.0970    -0.0000     8.0000 </r>
       <r>    -8.0249    -0.0000     8.0000 </r>
       <r>    -7.9528    -0.0000     8.0000 </r>
       <r>    -7.8808     0.0000     8.0000 </r>
       <r>    -7.8087     0.0000     8.0000 </r>
       <r>    -7.7366     0.0000     8.0000 </r>
       <r>    -7.6645     0.0000     8.0000 </r>
       <r>    -7.5925     0.0000     8.0000 </r>
       <r>    -7.5204     0.0000     8.0000 </r>
       <r>    -7.4483     0.0000     8.0000 </r>
       <r>    -7.3762     0.0000     8.0000 </r>
       <r>    -7.3041     0.0000     8.0000 </r>
       <r>    -7.2321     0.0000     8.0000 </r>
       <r>    -7.1600     0.0000     8.0000 </r>
       <r>    -7.0879     0.0000     8.0000 </r>
       <r>    -7.0158     0.0000     8.0000 </r>
       <r>    -6.9438     0.0000     8.0000 </r>
       <r>    -6.8717     0.0000     8.0000 </r>
       <r>    -6.7996     0.0000     8.0000 </r>
       <r>    -6.7275     0.0000     8.0000 </r>
       <r>    -6.6555     0.0000     8.0000 </r>
       <r>    -6.5834     0.0000     8.0000 </r>
       <r>    -6.5113     0.0000     8.0000 </r>
       <r>    -6.4392     0.0000     8.0000 </r>
       <r>    -6.3671     0.0000     8.0000 </r>
       <r>    -6.2951     0.0000     8.0000 </r>
       <r>    -6.2230     0.0000     8.0000 </r>
       <r>    -6.1509     0.0000     8.0000 </r>
       <r>    -6.0788     0.0000     8.0000 </r>
       <r>    -6.0068     0.0000     8.0000 </r>
       <r>    -5.9347     0.0000     8.0000 </r>
       <r>    -5.8626     0.0000     8.0000 </r>
       <r>    -5.7905     0.0000     8.0000 </r>
       <r>    -5.7185     0.0000     8.0000 </r>
       <r>    -5.6464     0.0000     8.0000 </r>
       <r>    -5.5743     0.0000     8.0000 </r>
       <r>    -5.5022     0.0000     8.0000 </r>
       <r>    -5.4301     0.0000     8.0000 </r>
       <r>    -5.3581     0.0000     8.0000 </r>
       <r>    -5.2860     0.0000     8.0000 </r>
       <r>    -5.2139     0.0000     8.0000 </r>
       <r>    -5.1418     0.0000     8.0000 </r>
       <r>    -5.0698     0.0000     8.0000 </r>
       <r>    -4.9977     0.0000     8.0000 </r>
       <r>    -4.9256     0.0000     8.0000 </r>
       <r>    -4.8535     0.0000     8.0000 </r>
       <r>    -4.7815     0.0000     8.0000 </r>
       <r>    -4.7094     0.0000     8.0000 </r>
       <r>    -4.6373     0.0000     8.0000 </r>
       <r>    -4.5652     0.0000     8.0000 </r>
       <r>    -4.4931     0.0000     8.0000 </r>
       <r>    -4.4211     0.0000     8.0000 </r>
       <r>    -4.3490     0.0000     8.0000 </r>
       <r>    -4.2769     0.0000     8.0000 </r>
       <r>    -4.2048     0.0000     8.0000 </r>
       <r>    -4.1328     0.0000     8.0000 </r>
       <r>    -4.0607     0.0000     8.0000 </r>
       <r>    -3.9886     0.0000     8.0000 </r>
       <r>    -3.9165     0.0000     8.0000 </r>
       <r>    -3.8445     0.0000     8.0000 </r>
       <r>    -3.7724     0.0000     8.0000 </r>
       <r>    -3.7003     0.0000     8.0000 </r>
       <r>    -3.6282     0.0000     8.0000 </r>
       <r>    -3.5561     0.0000     8.0000 </r>
       <r>    -3.4841     0.0000     8.0000 </r>
       <r>    -3.4120     0.0000     8.0000 </r>
       <r>    -3.3399     0.0000     8.0000 </r>
       <r>    -3.2678     0.0000     8.0000 </r>
       <r>    -3.1958     0.0000     8.0000 </r>
       <r>    -3.1237     0.0000     8.0000 </r>
       <r>    -3.0516     0.0000     8.0000 </r>
       <r>    -2.9795     0.0000     8.0000 </r>
       <r>    -2.9075     0.0000     8.0000 </r>
       <r>    -2.8354     0.0000     8.0000 </r>
       <r>    -2.7633     0.0000     8.0000 </r>
       <r>    -2.6912     0.0000     8.0000 </r>
       <r>    -2.6191     0.0000     8.0000 </r>
       <r>    -2.5471     0.0000     8.0000 </r>
       <r>    -2.4750     0.0000     8.0000 </r>
       <r>    -2.4029     0.0000     8.0000 </r>
       <r>    -2.3308     0.0000     8.0000 </r>
       <r>    -2.2588     0.0000     8.0000 </r>
       <r>    -2.1867     0.0000     8.0000 </r>
       <r>    -2.1146     0.0000     8.0000 </r>
       <r>    -2.0425     0.0000     8.0000 </r>
       <r>    -1.9705    -0.0000     8.0000 </r>
       <r>    -1.8984    -0.0000     8.0000 </r>
       <r>    -1.8263    -0.0000     8.0000 </r>
       <r>    -1.7542    -0.0000     8.0000 </r>
       <r>    -1.6821    -0.0000     8.0000 </r>
       <r>    -1.6101    -0.0000     8.0000 </r>
       <r>    -1.5380    -0.0000     8.0000 </r>
       <r>    -1.4659    -0.0000     8.0000 </r>
       <r>    -1.3938    -0.0000     8.0000 </r>
       <r>    -1.3218    -0.0000     8.0000 </r>
       <r>    -1.2497    -0.0000     8.0000 </r>
       <r>    -1.1776    -0.0000     8.0000 </r>
       <r>    -1.1055    -0.0000     8.0000 </r>
       <r>    -1.0335    -0.0000     8.0000 </r>
       <r>    -0.9614    -0.0005     8.0000 </r>
       <r>    -0.8893    -0.0038     7.9997 </r>
       <r>    -0.8172    -0.0217     7.9981 </r>
       <r>    -0.7451    -0.0900     7.9916 </r>
       <r>    -0.6731    -0.2568     7.9731 </r>
       <r>    -0.6010    -0.4351     7.9418 </r>
       <r>    -0.5289    -0.1036     7.9343 </r>
       <r>    -0.4568     1.6151     8.0507 </r>
       <r>    -0.3848     4.8302     8.3989 </r>
       <r>    -0.3127     7.7588     8.9581 </r>
       <r>    -0.2406     7.9885     9.5339 </r>
       <r>    -0.1685     5.3105     9.9166 </r>
       <r>    -0.0965     1.9873    10.0599 </r>
       <r>    -0.0244     0.0300    10.0620 </r>
       <r>     0.0477    -0.4546    10.0293 </r>
       <r>     0.1198    -0.3633    10.0031 </r>
       <r>     0.1919    -0.3693     9.9765 </r>
       <r>     0.2639    -0.6470     9.9298 </r>
       <r>     0.3360    -0.8366     9.8695 </r>
       <r>     0.4081     0.2079     9.8845 </r>
       <r>     0.4802     4.0818    10.1787 </r>
       <r>     0.5522    11.1274    10.9807 </r>
       <r>     0.6243    18.6386    12.3242 </r>
       <r>     0.6964    21.8514    13.8991 </r>
       <r>     0.7685    18.1771    15.2093 </r>
       <r>     0.8405    10.1778    15.9429 </r>
       <r>     0.9126     3.0334    16.1615 </r>
       <r>     0.9847    -0.4278    16.1307 </r>
       <r>     1.0568    -0.9901    16.0593 </r>
       <r>     1.1289    -0.5657    16.0185 </r>
       <r>     1.2009    -0.1986    16.0042 </r>
       <r>     1.2730    -0.0486    16.0007 </r>
       <r>     1.3451    -0.0087    16.0001 </r>
       <r>     1.4172    -0.0012    16.0000 </r>
       <r>     1.4892    -0.0001    16.0000 </r>
       <r>     1.5613    -0.0000    16.0000 </r>
       <r>     1.6334    -0.0000    16.0000 </r>
       <r>     1.7055    -0.0000    16.0000 </r>
       <r>     1.7775    -0.0000    16.0000 </r>
       <r>     1.8496    -0.0000    16.0000 </r>
       <r>     1.9217    -0.0000    16.0000 </r>
       <r>     1.9938    -0.0000    16.0000 </r>
       <r>     2.0659     0.0000    16.0000 </r>
       <r>     2.1379     0.0000    16.0000 </r>
       <r>     2.2100     0.0000    16.0000 </r>
       <r>     2.2821     0.0000    16.0000 </r>
       <r>     2.3542     0.0000    16.0000 </r>
       <r>     2.4262     0.0000    16.0000 </r>
       <r>     2.4983     0.0000    16.0000 </r>
       <r>     2.5704     0.0000    16.0000 </r>
       <r>     2.6425     0.0000    16.0000 </r>
       <r>     2.7145     0.0000    16.0000 </r>
      </set>
     </set>
    </array>
   </total>
  </dos>
  <time name="totalsc">   93.52   93.75</time>
 </calculation>
 <calculation>
  <scstep>
   <time name="dav">    2.12    2.12</time>
   <time name="total">    4.21    4.22</time>
   <energy>
    <i name="alphaZ">      0.24610552 </i>
    <i name="ewald">    125.70447516 </i>
    <i name="hartreedc">   -282.78092254 </i>
    <i name="XCdc">     24.69190638 </i>
    <i name="pawpsdc">    475.92541598 </i>
    <i name="pawaedc">   -476.71718763 </i>
    <i name="eentropy">      0.01407273 </i>
    <i name="bandstr">    -88.11843194 </i>
    <i name="atom">    197.04175453 </i>
    <i name="e_fr_energy">    -23.99281181 </i>
    <i name="e_wo_entrp">    -24.00688455 </i>
    <i name="e_0_energy">    -23.99750272 </i>
   </energy>
  </scstep>
  <scstep>
   <time name="diag">    0.47    0.47</time>
   <time name="diis">    1.64    1.64</time>
   <time name="orth">    0.01    0.01</time>
   <time name="total">    3.95    3.96</time>
   <energy>
    <i name="e_fr_energy">    -24.00936499 </i>
    <i name="e_wo_entrp">    -24.02260839 </i>
    <i name="e_0_energy">    -24.01377946 </i>
   </energy>
  </scstep>
  <scstep>
   <time name="diag">    0.49    0.49</time>
   <time name="diis">    1.70    1.70</time>
   <time name="orth">    0.01    0.01</time>
   <time name="total">    4.13    4.14</time>
   <energy>
    <i name="e_fr_energy">    -23.98735895 </i>
    <i name="e_wo_entrp">    -24.00014146 </i>
    <i name="e_0_energy">    -23.99161979 </i>
   </energy>
  </scstep>
  <scstep>
   <time name="diag">    0.49    0.49</time>
   <time name="diis">    1.66    1.66</time>
   <time name="orth">    0.01    0.01</time>
   <time name="total">    4.12    4.13</time>
   <energy>
    <i name="e_fr_energy">    -23.99089281 </i>
    <i name="e_wo_entrp">    -24.00330772 </i>
    <i name="e_0_energy">    -23.99503111 </i>
   </energy>
  </scstep>
  <scstep>
   <time name="diag">    0.49    0.50</time>
   <time name="diis">    1.65    1.66</time>
   <time name="orth">    0.01    0.01</time>
   <time name="total">    4.14    4.15</time>
   <energy>
    <i name="e_fr_energy">    -23.98780083 </i>
    <i name="e_wo_entrp">    -24.00006450 </i>
    <i name="e_0_energy">    -23.99188872 </i>
   </energy>
  </scstep>
  <scstep>
   <time name="diag">    0.47    0.47</time>
   <time name="diis">    1.67    1.68</time>
   <time name="orth">    0.01    0.01</time>
   <time name="total">    4.15    4.16</time>
   <energy>
    <i name="e_fr_energy">    -23.98772701 </i>
    <i name="e_wo_entrp">    -23.99992405 </i>
    <i name="e_0_energy">    -23.99179269 </i>
   </energy>
  </scstep>
  <scstep>
   <time name="diag">    0.49    0.49</time>
   <time name="diis">    1.69    1.70</time>
   <time name="orth">    0.01    0.01</time>
   <time name="total">    4.19    4.20</time>
   <energy>
    <i name="e_fr_energy">    -23.98769498 </i>
    <i name="e_wo_entrp">    -23.99984629 </i>
    <i name="e_0_energy">    -23.99174542 </i>
   </energy>
  </scstep>
  <scstep>
   <time name="diag">    0.50    0.50</time>
   <time name="diis">    1.64    1.64</time>
   <time name="orth">    0.01    0.01</time>
   <time name="total">    4.13    4.14</time>
   <energy>
    <i name="e_fr_energy">    -23.98776164 </i>
    <i name="e_wo_entrp">    -23.99990432 </i>
    <i name="e_0_energy">    -23.99180920 </i>
   </energy>
  </scstep>
  <scstep>
   <time name="diag">    0.50    0.51</time>
   <time name="diis">    1.60    1.61</time>
   <time name="orth">    0.01    0.01</time>
   <time name="total">    4.11    4.12</time>
   <energy>
    <i name="e_fr_energy">    -23.98780998 </i>
    <i name="e_wo_entrp">    -23.99996391 </i>
    <i name="e_0_energy">    -23.99186129 </i>
   </energy>
  </scstep>
  <scstep>
   <time name="diag">    0.48    0.49</time>
   <time name="diis">    1.65    1.65</time>
   <time name="orth">    0.01    0.01</time>
   <time name="total">    4.15    4.16</time>
   <energy>
    <i name="e_fr_energy">    -23.98783095 </i>
    <i name="e_wo_entrp">    -23.99999094 </i>
    <i name="e_0_energy">    -23.99188428 </i>
   </energy>
  </scstep>
  <scstep>
   <time name="diag">    0.50    0.50</time>
   <time name="diis">    1.60    1.60</time>
   <time name="orth">    0.01    0.01</time>
   <time name="total">    4.13    4.14</time>
   <energy>
    <i name="e_fr_energy">    -23.98785148 </i>
    <i name="e_wo_entrp">    -24.00001284 </i>
    <i name="e_0_energy">    -23.99190527 </i>
   </energy>
  </scstep>
  <scstep>
   <time name="diag">    0.49    0.49</time>
   <time name="diis">    1.58    1.58</time>
   <time name="orth">    0.01    0.01</time>
   <time name="total">    4.12    4.13</time>
   <energy>
    <i name="e_fr_energy">    -23.98785666 </i>
    <i name="e_wo_entrp">    -24.00001660 </i>
    <i name="e_0_energy">    -23.99190997 </i>
   </energy>
  </scstep>
  <scstep>
   <time name="diag">    0.48    0.48</time>
   <time name="diis">    1.51    1.51</time>
   <time name="orth">    0.01    0.01</time>
   <time name="total">    4.12    4.13</time>
   <energy>
    <i name="e_fr_energy">    -23.98786118 </i>
    <i name="e_wo_entrp">    -24.00001893 </i>
    <i name="e_0_energy">    -23.99191376 </i>
   </energy>
  </scstep>
  <scstep>
   <time name="diag">    0.48    0.48</time>
   <time name="diis">    1.23    1.24</time>
   <time name="orth">    0.01    0.01</time>
   <time name="total">    3.53    3.54</time>
   <energy>
    <i name="alphaZ">      0.24610552 </i>
    <i name="ewald">    125.70447516 </i>
    <i name="hartreedc">   -281.76113762 </i>
    <i name="XCdc">     24.63185721 </i>
    <i name="pawpsdc">    454.72902391 </i>
    <i name="pawaedc">   -455.50969031 </i>
    <i name="eentropy">      0.01215702 </i>
    <i name="bandstr">    -89.08240755 </i>
    <i name="atom">    197.04175453 </i>
    <i name="e_fr_energy">    -23.98786214 </i>
    <i name="e_wo_entrp">    -24.00001916 </i>
    <i name="e_0_energy">    -23.99191448 </i>
   </energy>
  </scstep>
  <structure>
   <crystal>
    <varray name="basis" >
     <v>       9.90445309       0.00000000       0.00000000 </v>
     <v>      -0.04075689       9.96652731       0.00000000 </v>
     <v>      -0.22258655      -0.25243012       9.97170672 </v>
    </varray>
    <i name="volume">    984.33710788 </i>
    <varray name="rec_basis" >
     <v>       0.10096469       0.00041288       0.00226417 </v>
     <v>      -0.00000000       0.10033585       0.00253997 </v>
     <v>       0.00000000      -0.00000000       0.10028374 </v>
    </varray>
   </crystal>
   <varray name="positions" >
    <v>       0.54019584       0.40474962       0.35791865 </v>
    <v>       0.39263639       0.48081043       0.44274637 </v>
    <v>       0.55305426       0.56609923       0.43990795 </v>
    <v>       0.52701090       0.41546431       0.53827821 </v>
    <v>       0.50270079       0.46742890       0.44610504 </v>
   </varray>
  </structure>
  <varray name="forces" >
   <v>      -0.79002400       0.51567433       0.70725011 </v>
   <v>      -0.34392579       0.20543948      -0.24161981 </v>
   <v>       0.27591060       0.33559661       0.67444688 </v>
   <v>       0.40328549       0.09626770       0.27241195 </v>
   <v>       0.08542744       0.40590547      -1.73970846 </v>
  </varray>
  <varray name="stress" >
   <v>      -1.02238796       0.68265271       1.21425659 </v>
   <v>       0.68265271      -0.44876518       0.23703062 </v>
   <v>       1.21425659       0.23703062      -1.00291167 </v>
  </varray>
  <energy>
   <i name="e_fr_energy">    -23.98786214 </i>
   <i name="e_wo_entrp">    -23.99191448 </i>
   <i name="e_0_energy">      0.01215702 </i>
   <i name="kinetic">      0.03900236 </i>
   <i name="lattice kinetic">      0.00000000 </i>
   <i name="nosepot">      0.00028446 </i>
   <i name="nosekinetic">      0.00015722 </i>
   <i name="total">    -23.94841810 </i>
  </energy>
  <dos>
   <i name="efermi">     -8.75974498 </i>
   <total>
    <array>
     <dimension dim="1">gridpoints</dimension>
     <dimension dim="2">spin</dimension>
     <field>energy</field>
     <field>total</field>
     <field>integrated</field>
     <set>
      <set comment="spin 1">
       <r>   -18.8111     0.0000     0.0000 </r>
       <r>   -18.7394     0.0000     0.0000 </r>
       <r>   -18.6676     0.0000     0.0000 </r>
       <r>   -18.5959     0.0000     0.0000 </r>
       <r>   -18.5241     0.0000     0.0000 </r>
       <r>   -18.4524    -0.0000    -0.0000 </r>
       <r>   -18.3806    -0.0000    -0.0000 </r>
       <r>   -18.3089    -0.0000    -0.0000 </r>
       <r>   -18.2371    -0.0000    -0.0000 </r>
       <r>   -18.1654    -0.0000    -0.0000 </r>
       <r>   -18.0936    -0.0000    -0.0000 </r>
       <r>   -18.0218    -0.0000    -0.0000 </r>
       <r>   -17.9501    -0.0000    -0.0000 </r>
       <r>   -17.8783    -0.0000    -0.0000 </r>
       <r>   -17.8066    -0.0000    -0.0000 </r>
       <r>   -17.7348    -0.0000    -0.0000 </r>
       <r>   -17.6631    -0.0000    -0.0000 </r>
       <r>   -17.5913    -0.0000    -0.0000 </r>
       <r>   -17.5196    -0.0001    -0.0000 </r>
       <r>   -17.4478    -0.0008    -0.0001 </r>
       <r>   -17.3761    -0.0058    -0.0005 </r>
       <r>   -17.3043    -0.0308    -0.0027 </r>
       <r>   -17.2325    -0.1177    -0.0111 </r>
       <r>   -17.1608    -0.3045    -0.0330 </r>
       <r>   -17.0890    -0.4363    -0.0643 </r>
       <r>   -17.0173     0.1146    -0.0561 </r>
       <r>   -16.9455     2.1828     0.1006 </r>
       <r>   -16.8738     5.5328     0.4976 </r>
       <r>   -16.8020     8.0749     1.0770 </r>
       <r>   -16.7303     7.6547     1.6262 </r>
       <r>   -16.6585     4.6513     1.9600 </r>
       <r>   -16.5868     1.4940     2.0672 </r>
       <r>   -16.5150    -0.1416     2.0570 </r>
       <r>   -16.4432    -0.4332     2.0259 </r>
       <r>   -16.3715    -0.2498     2.0080 </r>
       <r>   -16.2997    -0.0867     2.0018 </r>
       <r>   -16.2280    -0.0208     2.0003 </r>
       <r>   -16.1562    -0.0036     2.0000 </r>
       <r>   -16.0845    -0.0005     2.0000 </r>
       <r>   -16.0127    -0.0000     2.0000 </r>
       <r>   -15.9410    -0.0000     2.0000 </r>
       <r>   -15.8692    -0.0000     2.0000 </r>
       <r>   -15.7975    -0.0000     2.0000 </r>
       <r>   -15.7257    -0.0000     2.0000 </r>
       <r>   -15.6539    -0.0000     2.0000 </r>
       <r>   -15.5822    -0.0000     2.0000 </r>
       <r>   -15.5104     0.0000     2.0000 </r>
       <r>   -15.4387     0.0000     2.0000 </r>
       <r>   -15.3669     0.0000     2.0000 </r>
       <r>   -15.2952     0.0000     2.0000 </r>
       <r>   -15.2234     0.0000     2.0000 </r>
       <r>   -15.1517     0.0000     2.0000 </r>
       <r>   -15.0799     0.0000     2.0000 </r>
       <r>   -15.0082     0.0000     2.0000 </r>
       <r>   -14.9364     0.0000     2.0000 </r>
       <r>   -14.8646     0.0000     2.0000 </r>
       <r>   -14.7929     0.0000     2.0000 </r>
       <r>   -14.7211     0.0000     2.0000 </r>
       <r>   -14.6494     0.0000     2.0000 </r>
       <r>   -14.5776     0.0000     2.0000 </r>
       <r>   -14.5059     0.0000     2.0000 </r>
       <r>   -14.4341     0.0000     2.0000 </r>
       <r>   -14.3624     0.0000     2.0000 </r>
       <r>   -14.2906     0.0000     2.0000 </r>
       <r>   -14.2189     0.0000     2.0000 </r>
       <r>   -14.1471     0.0000     2.0000 </r>
       <r>   -14.0754     0.0000     2.0000 </r>
       <r>   -14.0036     0.0000     2.0000 </r>
       <r>   -13.9318     0.0000     2.0000 </r>
       <r>   -13.8601     0.0000     2.0000 </r>
       <r>   -13.7883     0.0000     2.0000 </r>
       <r>   -13.7166     0.0000     2.0000 </r>
       <r>   -13.6448     0.0000     2.0000 </r>
       <r>   -13.5731     0.0000     2.0000 </r>
       <r>   -13.5013     0.0000     2.0000 </r>
       <r>   -13.4296     0.0000     2.0000 </r>
       <r>   -13.3578     0.0000     2.0000 </r>
       <r>   -13.2861     0.0000     2.0000 </r>
       <r>   -13.2143     0.0000     2.0000 </r>
       <r>   -13.1425     0.0000     2.0000 </r>
       <r>   -13.0708     0.0000     2.0000 </r>
       <r>   -12.9990     0.0000     2.0000 </r>
       <r>   -12.9273     0.0000     2.0000 </r>
       <r>   -12.8555     0.0000     2.0000 </r>
       <r>   -12.7838     0.0000     2.0000 </r>
       <r>   -12.7120     0.0000     2.0000 </r>
       <r>   -12.6403     0.0000     2.0000 </r>
       <r>   -12.5685     0.0000     2.0000 </r>
       <r>   -12.4968     0.0000     2.0000 </r>
       <r>   -12.4250     0.0000     2.0000 </r>
       <r>   -12.3532     0.0000     2.0000 </r>
       <r>   -12.2815     0.0000     2.0000 </r>
       <r>   -12.2097     0.0000     2.0000 </r>
       <r>   -12.1380     0.0000     2.0000 </r>
       <r>   -12.0662     0.0000     2.0000 </r>
       <r>   -11.9945     0.0000     2.0000 </r>
       <r>   -11.9227     0.0000     2.0000 </r>
       <r>   -11.8510     0.0000     2.0000 </r>
       <r>   -11.7792     0.0000     2.0000 </r>
       <r>   -11.7075     0.0000     2.0000 </r>
       <r>   -11.6357     0.0000     2.0000 </r>
       <r>   -11.5639     0.0000     2.0000 </r>
       <r>   -11.4922     0.0000     2.0000 </r>
       <r>   -11.4204     0.0000     2.0000 </r>
       <r>   -11.3487     0.0000     2.0000 </r>
       <r>   -11.2769     0.0000     2.0000 </r>
       <r>   -11.2052     0.0000     2.0000 </r>
       <r>   -11.1334    -0.0000     2.0000 </r>
       <r>   -11.0617    -0.0000     2.0000 </r>
       <r>   -10.9899    -0.0000     2.0000 </r>
       <r>   -10.9182    -0.0000     2.0000 </r>
       <r>   -10.8464    -0.0000     2.0000 </r>
       <r>   -10.7747    -0.0000     2.0000 </r>
       <r>   -10.7029    -0.0000     2.0000 </r>
       <r>   -10.6311    -0.0000     2.0000 </r>
       <r>   -10.5594    -0.0000     2.0000 </r>
       <r>   -10.4876    -0.0000     2.0000 </r>
       <r>   -10.4159    -0.0000     2.0000 </r>
       <r>   -10.3441    -0.0000     2.0000 </r>
       <r>   -10.2724    -0.0000     2.0000 </r>
       <r>   -10.2006    -0.0002     2.0000 </r>
       <r>   -10.1289    -0.0019     1.9998 </r>
       <r>   -10.0571    -0.0120     1.9990 </r>
       <r>    -9.9854    -0.0558     1.9950 </r>
       <r>    -9.9136    -0.1841     1.9818 </r>
       <r>    -9.8418    -0.3947     1.9535 </r>
       <r>    -9.7701    -0.3791     1.9262 </r>
       <r>    -9.6983     0.6256     1.9711 </r>
       <r>    -9.6266     3.1677     2.1984 </r>
       <r>    -9.5548     6.3956     2.6573 </r>
       <r>    -9.4831     8.4854     3.2662 </r>
       <r>    -9.4113     8.9179     3.9061 </r>
       <r>    -9.3396     8.8139     4.5385 </r>
       <r>    -9.2678     8.4202     5.1427 </r>
       <r>    -9.1961     6.7463     5.6268 </r>
       <r>    -9.1243     4.3738     5.9407 </r>
       <r>    -9.0525     3.7658     6.2109 </r>
       <r>    -8.9808     5.7338     6.6223 </r>
       <r>    -8.9090     7.7725     7.1800 </r>
       <r>    -8.8373     7.1276     7.6914 </r>
       <r>    -8.7655     4.1140     7.9866 </r>
       <r>    -8.6938     1.1637     8.0701 </r>
       <r>    -8.6220    -0.2405     8.0529 </r>
       <r>    -8.5503    -0.4205     8.0227 </r>
       <r>    -8.4785    -0.2230     8.0067 </r>
       <r>    -8.4068    -0.0734     8.0014 </r>
       <r>    -8.3350    -0.0169     8.0002 </r>
       <r>    -8.2632    -0.0028     8.0000 </r>
       <r>    -8.1915    -0.0004     8.0000 </r>
       <r>    -8.1197    -0.0000     8.0000 </r>
       <r>    -8.0480    -0.0000     8.0000 </r>
       <r>    -7.9762    -0.0000     8.0000 </r>
       <r>    -7.9045    -0.0000     8.0000 </r>
       <r>    -7.8327    -0.0000     8.0000 </r>
       <r>    -7.7610    -0.0000     8.0000 </r>
       <r>    -7.6892    -0.0000     8.0000 </r>
       <r>    -7.6175     0.0000     8.0000 </r>
       <r>    -7.5457     0.0000     8.0000 </r>
       <r>    -7.4739     0.0000     8.0000 </r>
       <r>    -7.4022     0.0000     8.0000 </r>
       <r>    -7.3304     0.0000     8.0000 </r>
       <r>    -7.2587     0.0000     8.0000 </r>
       <r>    -7.1869     0.0000     8.0000 </r>
       <r>    -7.1152     0.0000     8.0000 </r>
       <r>    -7.0434     0.0000     8.0000 </r>
       <r>    -6.9717     0.0000     8.0000 </r>
       <r>    -6.8999     0.0000     8.0000 </r>
       <r>    -6.8282     0.0000     8.0000 </r>
       <r>    -6.7564     0.0000     8.0000 </r>
       <r>    -6.6847     0.0000     8.0000 </r>
       <r>    -6.6129     0.0000     8.0000 </r>
       <r>    -6.5411     0.0000     8.0000 </r>
       <r>    -6.4694     0.0000     8.0000 </r>
       <r>    -6.3976     0.0000     8.0000 </r>
       <r>    -6.3259     0.0000     8.0000 </r>
       <r>    -6.2541     0.0000     8.0000 </r>
       <r>    -6.1824     0.0000     8.0000 </r>
       <r>    -6.1106     0.0000     8.0000 </r>
       <r>    -6.0389     0.0000     8.0000 </r>
       <r>    -5.9671     0.0000     8.0000 </r>
       <r>    -5.8954     0.0000     8.0000 </r>
       <r>    -5.8236     0.0000     8.0000 </r>
       <r>    -5.7518     0.0000     8.0000 </r>
       <r>    -5.6801     0.0000     8.0000 </r>
       <r>    -5.6083     0.0000     8.0000 </r>
       <r>    -5.5366     0.0000     8.0000 </r>
       <r>    -5.4648     0.0000     8.0000 </r>
       <r>    -5.3931     0.0000     8.0000 </r>
       <r>    -5.3213     0.0000     8.0000 </r>
       <r>    -5.2496     0.0000     8.0000 </r>
       <r>    -5.1778     0.0000     8.0000 </r>
       <r>    -5.1061     0.0000     8.0000 </r>
       <r>    -5.0343     0.0000     8.0000 </r>
       <r>    -4.9625     0.0000     8.0000 </r>
       <r>    -4.8908     0.0000     8.0000 </r>
       <r>    -4.8190     0.0000     8.0000 </r>
       <r>    -4.7473     0.0000     8.0000 </r>
       <r>    -4.6755     0.0000     8.0000 </r>
       <r>    -4.6038     0.0000     8.0000 </r>
       <r>    -4.5320     0.0000     8.0000 </r>
       <r>    -4.4603     0.0000     8.0000 </r>
       <r>    -4.3885     0.0000     8.0000 </r>
       <r>    -4.3168     0.0000     8.0000 </r>
       <r>    -4.2450     0.0000     8.0000 </r>
       <r>    -4.1732     0.0000     8.0000 </r>
       <r>    -4.1015     0.0000     8.0000 </r>
       <r>    -4.0297     0.0000     8.0000 </r>
       <r>    -3.9580     0.0000     8.0000 </r>
       <r>    -3.8862     0.0000     8.0000 </r>
       <r>    -3.8145     0.0000     8.0000 </r>
       <r>    -3.7427     0.0000     8.0000 </r>
       <r>    -3.6710     0.0000     8.0000 </r>
       <r>    -3.5992     0.0000     8.0000 </r>
       <r>    -3.5275     0.0000     8.0000 </r>
       <r>    -3.4557     0.0000     8.0000 </r>
       <r>    -3.3840     0.0000     8.0000 </r>
       <r>    -3.3122     0.0000     8.0000 </r>
       <r>    -3.2404     0.0000     8.0000 </r>
       <r>    -3.1687     0.0000     8.0000 </r>
       <r>    -3.0969     0.0000     8.0000 </r>
       <r>    -3.0252     0.0000     8.0000 </r>
       <r>    -2.9534     0.0000     8.0000 </r>
       <r>    -2.8817     0.0000     8.0000 </r>
       <r>    -2.8099     0.0000     8.0000 </r>
       <r>    -2.7382     0.0000     8.0000 </r>
       <r>    -2.6664     0.0000     8.0000 </r>
       <r>    -2.5947     0.0000     8.0000 </r>
       <r>    -2.5229     0.0000     8.0000 </r>
       <r>    -2.4511     0.0000     8.0000 </r>
       <r>    -2.3794     0.0000     8.0000 </r>
       <r>    -2.3076     0.0000     8.0000 </r>
       <r>    -2.2359     0.0000     8.0000 </r>
       <r>    -2.1641     0.0000     8.0000 </r>
       <r>    -2.0924     0.0000     8.0000 </r>
       <r>    -2.0206     0.0000     8.0000 </r>
       <r>    -1.9489    -0.0000     8.0000 </r>
       <r>    -1.8771    -0.0000     8.0000 </r>
       <r>    -1.8054    -0.0000     8.0000 </r>
       <r>    -1.7336    -0.0000     8.0000 </r>
       <r>    -1.6618    -0.0000     8.0000 </r>
       <r>    -1.5901    -0.0000     8.0000 </r>
       <r>    -1.5183    -0.0000     8.0000 </r>
       <r>    -1.4466    -0.0000     8.0000 </r>
       <r>    -1.3748    -0.0000     8.0000 </r>
       <r>    -1.3031    -0.0000     8.0000 </r>
       <r>    -1.2313    -0.0000     8.0000 </r>
       <r>    -1.1596    -0.0000     8.0000 </r>
       <r>    -1.0878    -0.0000     8.0000 </r>
       <r>    -1.0161    -0.0002     8.0000 </r>
       <r>    -0.9443    -0.0015     7.9999 </r>
       <r>    -0.8725    -0.0097     7.9992 </r>
       <r>    -0.8008    -0.0470     7.9958 </r>
       <r>    -0.7290    -0.1618     7.9842 </r>
       <r>    -0.6573    -0.3649     7.9580 </r>
       <r>    -0.5855    -0.3872     7.9302 </r>
       <r>    -0.5138     0.5321     7.9684 </r>
       <r>    -0.4420     3.0765     8.1892 </r>
       <r>    -0.3703     6.4655     8.6531 </r>
       <r>    -0.2985     8.2970     9.2484 </r>
       <r>    -0.2268     6.9624     9.7480 </r>
       <r>    -0.1550     3.6506    10.0100 </r>
       <r>    -0.0832     0.8475    10.0708 </r>
       <r>    -0.0115    -0.3282    10.0472 </r>
       <r>     0.0603    -0.4247    10.0168 </r>
       <r>     0.1320    -0.3107     9.9945 </r>
       <r>     0.2038    -0.4166     9.9646 </r>
       <r>     0.2755    -0.7297     9.9122 </r>
       <r>     0.3473    -0.6787     9.8635 </r>
       <r>     0.4190     1.0469     9.9386 </r>
       <r>     0.4908     5.7889    10.3540 </r>
       <r>     0.5625    13.1206    11.2955 </r>
       <r>     0.6343    19.7347    12.7115 </r>
       <r>     0.7060    21.2777    14.2383 </r>
       <r>     0.7778    16.3802    15.4136 </r>
       <r>     0.8496     8.3787    16.0149 </r>
       <r>     0.9213     2.0490    16.1619 </r>
       <r>     0.9931    -0.6605    16.1145 </r>
       <r>     1.0648    -0.9164    16.0487 </r>
       <r>     1.1366    -0.4763    16.0146 </r>
       <r>     1.2083    -0.1583    16.0032 </r>
       <r>     1.2801    -0.0372    16.0005 </r>
       <r>     1.3518    -0.0064    16.0001 </r>
       <r>     1.4236    -0.0008    16.0000 </r>
       <r>     1.4953    -0.0001    16.0000 </r>
       <r>     1.5671    -0.0000    16.0000 </r>
       <r>     1.6389    -0.0000    16.0000 </r>
       <r>     1.7106    -0.0000    16.0000 </r>
       <r>     1.7824    -0.0000    16.0000 </r>
       <r>     1.8541    -0.0000    16.0000 </r>
       <r>     1.9259    -0.0000    16.0000 </r>
       <r>     1.9976    -0.0000    16.0000 </r>
       <r>     2.0694     0.0000    16.0000 </r>
       <r>     2.1411     0.0000    16.0000 </r>
       <r>     2.2129     0.0000    16.0000 </r>
       <r>     2.2846     0.0000    16.0000 </r>
       <r>     2.3564     0.0000    16.0000 </r>
       <r>     2.4282     0.0000    16.0000 </r>
       <r>     2.4999     0.0000    16.0000 </r>
       <r>     2.5717     0.0000    16.0000 </r>
       <r>     2.6434     0.0000    16.0000 </r>
       <r>     2.7152     0.0000    16.0000 </r>
      </set>
     </set>
    </array>
   </total>
  </dos>
  <time name="totalsc">   65.58   65.75</time>
 </calculation>
 <calculation>
  <scstep>
   <time name="dav">    2.16    2.17</time>
   <time name="total">    4.24    4.25</time>
   <energy>
    <i name="alphaZ">      0.24610552 </i>
    <i name="ewald">    122.52199859 </i>
    <i name="hartreedc">   -279.47625915 </i>
    <i name="XCdc">     24.51326085 </i>
    <i name="pawpsdc">    446.22658046 </i>
    <i name="pawaedc">   -447.00275576 </i>
    <i name="eentropy">      0.01202031 </i>
    <i name="bandstr">    -88.04546261 </i>
    <i name="atom">    197.04175453 </i>
    <i name="e_fr_energy">    -23.96275727 </i>
    <i name="e_wo_entrp">    -23.97477757 </i>
    <i name="e_0_energy">    -23.96676403 </i>
   </energy>
  </scstep>
  <scstep>
   <time name="diag">    0.46    0.46</time>
   <time name="diis">    1.63    1.63</time>
   <time name="orth">    0.01    0.01</time>
   <time name="total">    4.10    4.11</time>
   <energy>
    <i name="e_fr_energy">    -23.96262304 </i>
    <i name="e_wo_entrp">    -23.97500454 </i>
    <i name="e_0_energy">    -23.96675021 </i>
   </energy>
  </scstep>
  <scstep>
   <time name="diag">    0.47    0.47</time>
   <time name="diis">    1.62    1.62</time>
   <time name="orth">    0.01    0.01</time>
   <time name="total">    4.11    4.12</time>
   <energy>
    <i name="e_fr_energy">    -23.96133412 </i>
    <i name="e_wo_entrp">    -23.97370351 </i>
    <i name="e_0_energy">    -23.96545725 </i>
   </energy>
  </scstep>
  <scstep>
   <time name="diag">    0.49    0.49</time>
   <time name="diis">    1.61    1.61</time>
   <time name="orth">    0.01    0.01</time>
   <time name="total">    4.10    4.11</time>
   <energy>
    <i name="e_fr_energy">    -23.96184086 </i>
    <i name="e_wo_entrp">    -23.97410106 </i>
    <i name="e_0_energy">    -23.96592759 </i>
   </energy>
  </scstep>
  <scstep>
   <time name="diag">    0.48    0.48</time>
   <time name="diis">    1.59    1.60</time>
   <time name="orth">    0.01    0.01</time>
   <time name="total">    4.13    4.14</time>
   <energy>
    <i name="e_fr_energy">    -23.96159271 </i>
    <i name="e_wo_entrp">    -23.97385457 </i>
    <i name="e_0_energy">    -23.96567999 </i>
   </energy>
  </scstep>
  <scstep>
   <time name="diag">    0.48    0.49</time>
   <time name="diis">    1.65    1.65</time>
   <time name="orth">    0.01    0.01</time>
   <time name="total">    4.18    4.19</time>
   <energy>
    <i name="e_fr_energy">    -23.96163463 </i>
    <i name="e_wo_entrp">    -23.97389454 </i>
    <i name="e_0_energy">    -23.96572126 </i>
   </energy>
  </scstep>
  <scstep>
   <time name="diag">    0.47    0.47</time>
   <time name="diis">    1.66    1.67</time>
   <time name="orth">    0.01    0.01</time>
   <time name="total">    4.20    4.21</time>
   <energy>
    <i name="e_fr_energy">    -23.96163913 </i>
    <i name="e_wo_entrp">    -23.97389860 </i>
    <i name="e_0_energy">    -23.96572562 </i>
   </energy>
  </scstep>
  <scstep>
   <time name="diag">    0.49    0.49</time>
   <time name="diis">    1.61    1.62</time>
   <time name="orth">    0.01    0.01</time>
   <time name="total">    4.18    4.19</time>
   <energy>
    <i name="e_fr_energy">    -23.96165838 </i>
    <i name="e_wo_entrp">    -23.97391998 </i>
    <i name="e_0_energy">    -23.96574558 </i>
   </energy>
  </scstep>
  <scstep>
   <time name="diag">    0.48    0.48</time>
   <time name="diis">    1.49    1.49</time>
   <time name="orth">    0.01    0.01</time>
   <time name="total">    4.07    4.08</time>
   <energy>
    <i name="e_fr_energy">    -23.96166251 </i>
    <i name="e_wo_entrp">    -23.97392292 </i>
    <i name="e_0_energy">    -23.96574932 </i>
   </energy>
  </scstep>
  <scstep>
   <time name="diag">    0.48    0.48</time>
   <time name="diis">    1.26    1.26</time>
   <time name="orth">    0.01    0.01</time>
   <time name="total">    3.87    3.88</time>
   <energy>
    <i name="e_fr_energy">    -23.96166822 </i>
    <i name="e_wo_entrp">    -23.97392783 </i>
    <i name="e_0_energy">    -23.96575476 </i>
   </energy>
  </scstep>
  <scstep>
   <time name="diag">    0.47    0.47</time>
   <time name="diis">    1.26    1.27</time>
   <time name="orth">    0.01    0.01</time>
   <time name="total">    3.91    3.91</time>
   <energy>
    <i name="e_fr_energy">    -23.96167003 </i>
    <i name="e_wo_entrp">    -23.97393003 </i>
    <i name="e_0_energy">    -23.96575670 </i>
   </energy>
  </scstep>
  <scstep>
   <time name="diag">    0.48    0.48</time>
   <time name="diis">    1.29    1.30</time>
   <time name="orth">    0.01    0.01</time>
   <time name="total">    3.96    3.97</time>
   <energy>
    <i name="e_fr_energy">    -23.96167131 </i>
    <i name="e_wo_entrp">    -23.97393124 </i>
    <i name="e_0_energy">    -23.96575795 </i>
   </energy>
  </scstep>
  <scstep>
   <time name="diag">    0.48    0.48</time>
   <time name="diis">    1.28    1.28</time>
   <time name="orth">    0.01    0.01</time>
   <time name="total">    3.61    3.62</time>
   <energy>
    <i name="alphaZ">      0.24610552 </i>
    <i name="ewald">    122.52199859 </i>
    <i name="hartreedc">   -278.95492661 </i>
    <i name="XCdc">     24.48250639 </i>
    <i name="pawpsdc">    435.91578710 </i>
    <i name="pawaedc">   -436.68594409 </i>
    <i name="eentropy">      0.01225995 </i>
    <i name="bandstr">    -88.54121322 </i>
    <i name="atom">    197.04175453 </i>
    <i name="e_fr_energy">    -23.96167185 </i>
    <i name="e_wo_entrp">    -23.97393180 </i>
    <i name="e_0_energy">    -23.96575850 </i>
   </energy>
  </scstep>
  <structure>
   <crystal>
    <varray name="basis" >
     <v>       9.90445309       0.00000000       0.00000000 </v>
     <v>      -0.04075689       9.96652731       0.00000000 </v>
     <v>      -0.22258655      -0.25243012       9.97170672 </v>
    </varray>
    <i name="volume">    984.33710788 </i>
    <varray name="rec_basis" >
     <v>       0.10096469       0.00041288       0.00226417 </v>
     <v>      -0.00000000       0.10033585       0.00253997 </v>
     <v>       0.00000000      -0.00000000       0.10028374 </v>
    </varray>
   </crystal>
   <varray name="positions" >
    <v>       0.53946662       0.40453575       0.35788701 </v>
    <v>       0.38923064       0.48134784       0.44598289 </v>
    <v>       0.55460505       0.56696790       0.43987203 </v>
    <v>       0.52737857       0.41442273       0.53855717 </v>
    <v>       0.50288532       0.46741636       0.44581798 </v>
   </varray>
  </structure>
  <varray name="forces" >
   <v>      -0.71093495       0.52283280       0.62751393 </v>
   <v>       0.91640856      -0.20824734      -0.53781502 </v>
   <v>      -0.24082871      -0.74511025       0.43995448 </v>
   <v>       0.50664559       0.36549348       0.22610376 </v>
   <v>      -0.79001245       0.74113949      -1.29849117 </v>
  </varray>
  <varray name="stress" >
   <v>      -3.08503299       0.53741636       1.25803378 </v>
   <v>       0.53741636      -1.50627267       0.30789751 </v>
   <v>       1.25803377       0.30789750      -1.48446327 </v>
  </varray>
  <energy>
   <i name="e_fr_energy">    -23.96167185 </i>
   <i name="e_wo_entrp">    -23.96575850 </i>
   <i name="e_0_energy">      0.01225995 </i>
   <i name="kinetic">      0.02753821 </i>
   <i name="lattice kinetic">      0.00000000 </i>
   <i name="nosepot">      0.00089290 </i>
   <i name="nosekinetic">      0.00031062 </i>
   <i name="total">    -23.93293012 </i>
  </energy>
  <dos>
   <i name="efermi">     -8.68818786 </i>
   <total>
    <array>
     <dimension dim="1">gridpoints</dimension>
     <dimension dim="2">spin</dimension>
     <field>energy</field>
     <field>total</field>
     <field>integrated</field>
     <set>
      <set comment="spin 1">
       <r>   -18.7082     0.0000     0.0000 </r>
       <r>   -18.6368     0.0000     0.0000 </r>
       <r>   -18.5654     0.0000     0.0000 </r>
       <r>   -18.4939     0.0000     0.0000 </r>
       <r>   -18.4225     0.0000     0.0000 </r>
       <r>   -18.3511    -0.0000    -0.0000 </r>
       <r>   -18.2797    -0.0000    -0.0000 </r>
       <r>   -18.2083    -0.0000    -0.0000 </r>
       <r>   -18.1369    -0.0000    -0.0000 </r>
       <r>   -18.0655    -0.0000    -0.0000 </r>
       <r>   -17.9940    -0.0000    -0.0000 </r>
       <r>   -17.9226    -0.0000    -0.0000 </r>
       <r>   -17.8512    -0.0000    -0.0000 </r>
       <r>   -17.7798    -0.0000    -0.0000 </r>
       <r>   -17.7084    -0.0000    -0.0000 </r>
       <r>   -17.6370    -0.0000    -0.0000 </r>
       <r>   -17.5656    -0.0000    -0.0000 </r>
       <r>   -17.4942    -0.0000    -0.0000 </r>
       <r>   -17.4227    -0.0001    -0.0000 </r>
       <r>   -17.3513    -0.0007    -0.0001 </r>
       <r>   -17.2799    -0.0049    -0.0004 </r>
       <r>   -17.2085    -0.0266    -0.0023 </r>
       <r>   -17.1371    -0.1043    -0.0098 </r>
       <r>   -17.0657    -0.2812    -0.0298 </r>
       <r>   -16.9943    -0.4395    -0.0612 </r>
       <r>   -16.9228    -0.0155    -0.0623 </r>
       <r>   -16.8514     1.8408     0.0691 </r>
       <r>   -16.7800     5.0995     0.4333 </r>
       <r>   -16.7086     7.8843     0.9964 </r>
       <r>   -16.6372     7.9041     1.5608 </r>
       <r>   -16.5658     5.1412     1.9280 </r>
       <r>   -16.4944     1.8736     2.0618 </r>
       <r>   -16.4229    -0.0031     2.0616 </r>
       <r>   -16.3515    -0.4395     2.0302 </r>
       <r>   -16.2801    -0.2838     2.0099 </r>
       <r>   -16.2087    -0.1058     2.0023 </r>
       <r>   -16.1373    -0.0271     2.0004 </r>
       <r>   -16.0659    -0.0050     2.0001 </r>
       <r>   -15.9945    -0.0007     2.0000 </r>
       <r>   -15.9230    -0.0001     2.0000 </r>
       <r>   -15.8516    -0.0000     2.0000 </r>
       <r>   -15.7802    -0.0000     2.0000 </r>
       <r>   -15.7088    -0.0000     2.0000 </r>
       <r>   -15.6374    -0.0000     2.0000 </r>
       <r>   -15.5660    -0.0000     2.0000 </r>
       <r>   -15.4946    -0.0000     2.0000 </r>
       <r>   -15.4232    -0.0000     2.0000 </r>
       <r>   -15.3517     0.0000     2.0000 </r>
       <r>   -15.2803     0.0000     2.0000 </r>
       <r>   -15.2089     0.0000     2.0000 </r>
       <r>   -15.1375     0.0000     2.0000 </r>
       <r>   -15.0661     0.0000     2.0000 </r>
       <r>   -14.9947     0.0000     2.0000 </r>
       <r>   -14.9233     0.0000     2.0000 </r>
       <r>   -14.8518     0.0000     2.0000 </r>
       <r>   -14.7804     0.0000     2.0000 </r>
       <r>   -14.7090     0.0000     2.0000 </r>
       <r>   -14.6376     0.0000     2.0000 </r>
       <r>   -14.5662     0.0000     2.0000 </r>
       <r>   -14.4948     0.0000     2.0000 </r>
       <r>   -14.4234     0.0000     2.0000 </r>
       <r>   -14.3519     0.0000     2.0000 </r>
       <r>   -14.2805     0.0000     2.0000 </r>
       <r>   -14.2091     0.0000     2.0000 </r>
       <r>   -14.1377     0.0000     2.0000 </r>
       <r>   -14.0663     0.0000     2.0000 </r>
       <r>   -13.9949     0.0000     2.0000 </r>
       <r>   -13.9235     0.0000     2.0000 </r>
       <r>   -13.8520     0.0000     2.0000 </r>
       <r>   -13.7806     0.0000     2.0000 </r>
       <r>   -13.7092     0.0000     2.0000 </r>
       <r>   -13.6378     0.0000     2.0000 </r>
       <r>   -13.5664     0.0000     2.0000 </r>
       <r>   -13.4950     0.0000     2.0000 </r>
       <r>   -13.4236     0.0000     2.0000 </r>
       <r>   -13.3522     0.0000     2.0000 </r>
       <r>   -13.2807     0.0000     2.0000 </r>
       <r>   -13.2093     0.0000     2.0000 </r>
       <r>   -13.1379     0.0000     2.0000 </r>
       <r>   -13.0665     0.0000     2.0000 </r>
       <r>   -12.9951     0.0000     2.0000 </r>
       <r>   -12.9237     0.0000     2.0000 </r>
       <r>   -12.8523     0.0000     2.0000 </r>
       <r>   -12.7808     0.0000     2.0000 </r>
       <r>   -12.7094     0.0000     2.0000 </r>
       <r>   -12.6380     0.0000     2.0000 </r>
       <r>   -12.5666     0.0000     2.0000 </r>
       <r>   -12.4952     0.0000     2.0000 </r>
       <r>   -12.4238     0.0000     2.0000 </r>
       <r>   -12.3524     0.0000     2.0000 </r>
       <r>   -12.2809     0.0000     2.0000 </r>
       <r>   -12.2095     0.0000     2.0000 </r>
       <r>   -12.1381     0.0000     2.0000 </r>
       <r>   -12.0667     0.0000     2.0000 </r>
       <r>   -11.9953     0.0000     2.0000 </r>
       <r>   -11.9239     0.0000     2.0000 </r>
       <r>   -11.8525     0.0000     2.0000 </r>
       <r>   -11.7811     0.0000     2.0000 </r>
       <r>   -11.7096     0.0000     2.0000 </r>
       <r>   -11.6382     0.0000     2.0000 </r>
       <r>   -11.5668     0.0000     2.0000 </r>
       <r>   -11.4954     0.0000     2.0000 </r>
       <r>   -11.4240     0.0000     2.0000 </r>
       <r>   -11.3526     0.0000     2.0000 </r>
       <r>   -11.2812     0.0000     2.0000 </r>
       <r>   -11.2097     0.0000     2.0000 </r>
[...]
       <r>     0.2680    -0.6889     9.9207 </r>
       <r>     0.3399    -0.7513     9.8667 </r>
       <r>     0.4119     0.6515     9.9135 </r>
       <r>     0.4838     4.9677    10.2709 </r>
       <r>     0.5557    12.1245    11.1431 </r>
       <r>     0.6277    19.1306    12.5192 </r>
       <r>     0.6996    21.4903    14.0651 </r>
       <r>     0.7715    17.2475    15.3058 </r>
       <r>     0.8435     9.3000    15.9748 </r>
       <r>     0.9154     2.5776    16.1602 </r>
       <r>     0.9873    -0.5234    16.1226 </r>
       <r>     1.0593    -0.9490    16.0543 </r>
       <r>     1.1312    -0.5227    16.0167 </r>
       <r>     1.2032    -0.1801    16.0038 </r>
       <r>     1.2751    -0.0436    16.0006 </r>
       <r>     1.3470    -0.0077    16.0001 </r>
       <r>     1.4190    -0.0010    16.0000 </r>
       <r>     1.4909    -0.0001    16.0000 </r>
       <r>     1.5628    -0.0000    16.0000 </r>
       <r>     1.6348    -0.0000    16.0000 </r>
       <r>     1.7067    -0.0000    16.0000 </r>
       <r>     1.7786    -0.0000    16.0000 </r>
       <r>     1.8506    -0.0000    16.0000 </r>
       <r>     1.9225    -0.0000    16.0000 </r>
       <r>     1.9944    -0.0000    16.0000 </r>
       <r>     2.0664     0.0000    16.0000 </r>
       <r>     2.1383     0.0000    16.0000 </r>
       <r>     2.2102     0.0000    16.0000 </r>
       <r>     2.2822     0.0000    16.0000 </r>
       <r>     2.3541     0.0000    16.0000 </r>
       <r>     2.4260     0.0000    16.0000 </r>
       <r>     2.4980     0.0000    16.0000 </r>
       <r>     2.5699     0.0000    16.0000 </r>
       <r>     2.6419     0.0000    16.0000 </r>
       <r>     2.7138     0.0000    16.0000 </r>
      </set>
     </set>
    </array>
   </total>
  </dos>
  <time name="totalsc">   73.68   74.00</time>
  <eigenvalues>
   <array>
    <dimension dim="1">band</dimension>
    <dimension dim="2">kpoint</dimension>
    <dimension dim="3">spin</dimension>
    <field>eigene</field>
    <field>occ</field>
    <set>
     <set comment="spin 1">
      <set comment="kpoint 1">
       <r>  -17.1088    1.0000 </r>
       <r>   -9.5652    1.0026 </r>
       <r>   -9.4306    1.0212 </r>
       <r>   -9.2526    0.9761 </r>
       <r>   -0.2824    0.0000 </r>
       <r>    0.5768    0.0000 </r>
       <r>    0.6809    0.0000 </r>
       <r>    0.7037    0.0000 </r>
      </set>
      <set comment="kpoint 2">
       <r>  -17.1088    1.0000 </r>
       <r>   -9.5653    1.0026 </r>
       <r>   -9.4308    1.0212 </r>
       <r>   -9.2527    0.9763 </r>
       <r>   -0.2883    0.0000 </r>
       <r>    0.5858    0.0000 </r>
       <r>    0.6805    0.0000 </r>
       <r>    0.7323    0.0000 </r>
      </set>
      <set comment="kpoint 3">
       <r>  -17.1088    1.0000 </r>
       <r>   -9.5653    1.0026 </r>
       <r>   -9.4309    1.0212 </r>
       <r>   -9.2527    0.9763 </r>
       <r>   -0.2894    0.0000 </r>
       <r>    0.5889    0.0000 </r>
       <r>    0.6886    0.0000 </r>
       <r>    0.7288    0.0000 </r>
      </set>
      <set comment="kpoint 4">
       <r>  -17.1088    1.0000 </r>
       <r>   -9.5653    1.0026 </r>
       <r>   -9.4308    1.0212 </r>
       <r>   -9.2527    0.9763 </r>
       <r>   -0.2922    0.0000 </r>
       <r>    0.5933    0.0000 </r>
       <r>    0.7015    0.0000 </r>
       <r>    0.7338    0.0000 </r>
      </set>
     </set>
    </set>
   </array>
  </eigenvalues>
  <separator name="orbital magnetization" >
   <v name="MAGDIPOLOUT">      0.00000000      0.00000000      0.00000000</v>
  </separator>
  <dos>
   <i name="efermi">     -9.10261872 </i>
   <total>
    <array>
     <dimension dim="1">gridpoints</dimension>
     <dimension dim="2">spin</dimension>
     <field>energy</field>
     <field>total</field>
     <field>integrated</field>
     <set>
      <set comment="spin 1">
       <r>   -19.1088     0.0000     0.0000 </r>
       <r>   -19.0360     0.0000     0.0000 </r>
       <r>   -18.9632     0.0000     0.0000 </r>
       <r>   -18.8904     0.0000     0.0000 </r>
       <r>   -18.8176     0.0000     0.0000 </r>
       <r>   -18.7448    -0.0000    -0.0000 </r>
       <r>   -18.6720    -0.0000    -0.0000 </r>
       <r>   -18.5992    -0.0000    -0.0000 </r>
       <r>   -18.5264    -0.0000    -0.0000 </r>
       <r>   -18.4536    -0.0000    -0.0000 </r>
       <r>   -18.3808    -0.0000    -0.0000 </r>
       <r>   -18.3080    -0.0000    -0.0000 </r>
       <r>   -18.2351    -0.0000    -0.0000 </r>
       <r>   -18.1623    -0.0000    -0.0000 </r>
       <r>   -18.0895    -0.0000    -0.0000 </r>
       <r>   -18.0167    -0.0000    -0.0000 </r>
       <r>   -17.9439    -0.0000    -0.0000 </r>
       <r>   -17.8711    -0.0000    -0.0000 </r>
       <r>   -17.7983    -0.0002    -0.0000 </r>
       <r>   -17.7255    -0.0014    -0.0001 </r>
       <r>   -17.6527    -0.0097    -0.0008 </r>
       <r>   -17.5799    -0.0480    -0.0043 </r>
       <r>   -17.5071    -0.1667    -0.0165 </r>
       <r>   -17.4342    -0.3733    -0.0436 </r>
       <r>   -17.3614    -0.3688    -0.0705 </r>
       <r>   -17.2886     0.6597    -0.0225 </r>
       <r>   -17.2158     3.3658     0.2226 </r>
       <r>   -17.1430     6.7674     0.7153 </r>
       <r>   -17.0702     8.3076     1.3202 </r>
       <r>   -16.9974     6.5862     1.7997 </r>
       <r>   -16.9246     3.1600     2.0298 </r>
       <r>   -16.8518     0.5505     2.0699 </r>
       <r>   -16.7790    -0.3882     2.0416 </r>
       <r>   -16.7062    -0.3612     2.0153 </r>
       <r>   -16.6334    -0.1562     2.0039 </r>
       <r>   -16.5605    -0.0439     2.0007 </r>
       <r>   -16.4877    -0.0087     2.0001 </r>
       <r>   -16.4149    -0.0013     2.0000 </r>
       <r>   -16.3421    -0.0001     2.0000 </r>
       <r>   -16.2693    -0.0000     2.0000 </r>
       <r>   -16.1965    -0.0000     2.0000 </r>
       <r>   -16.1237    -0.0000     2.0000 </r>
       <r>   -16.0509    -0.0000     2.0000 </r>
       <r>   -15.9781    -0.0000     2.0000 </r>
       <r>   -15.9053    -0.0000     2.0000 </r>
       <r>   -15.8325    -0.0000     2.0000 </r>
       <r>   -15.7596     0.0000     2.0000 </r>
       <r>   -15.6868     0.0000     2.0000 </r>
       <r>   -15.6140     0.0000     2.0000 </r>
       <r>   -15.5412     0.0000     2.0000 </r>
       <r>   -15.4684     0.0000     2.0000 </r>
       <r>   -15.3956     0.0000     2.0000 </r>
       <r>   -15.3228     0.0000     2.0000 </r>
       <r>   -15.2500     0.0000     2.0000 </r>
       <r>   -15.1772     0.0000     2.0000 </r>
       <r>   -15.1044     0.0000     2.0000 </r>
       <r>   -15.0316     0.0000     2.0000 </r>
       <r>   -14.9588     0.0000     2.0000 </r>
       <r>   -14.8859     0.0000     2.0000 </r>
       <r>   -14.8131     0.0000     2.0000 </r>
       <r>   -14.7403     0.0000     2.0000 </r>
       <r>   -14.6675     0.0000     2.0000 </r>
       <r>   -14.5947     0.0000     2.0000 </r>
       <r>   -14.5219     0.0000     2.0000 </r>
       <r>   -14.4491     0.0000     2.0000 </r>
       <r>   -14.3763     0.0000     2.0000 </r>
       <r>   -14.3035     0.0000     2.0000 </r>
       <r>   -14.2307     0.0000     2.0000 </r>
       <r>   -14.1579     0.0000     2.0000 </r>
       <r>   -14.0850     0.0000     2.0000 </r>
       <r>   -14.0122     0.0000     2.0000 </r>
       <r>   -13.9394     0.0000     2.0000 </r>
       <r>   -13.8666     0.0000     2.0000 </r>
       <r>   -13.7938     0.0000     2.0000 </r>
       <r>   -13.7210     0.0000     2.0000 </r>
       <r>   -13.6482     0.0000     2.0000 </r>
       <r>   -13.5754     0.0000     2.0000 </r>
       <r>   -13.5026     0.0000     2.0000 </r>
       <r>   -13.4298     0.0000     2.0000 </r>
       <r>   -13.3570     0.0000     2.0000 </r>
       <r>   -13.2842     0.0000     2.0000 </r>
       <r>   -13.2113     0.0000     2.0000 </r>
       <r>   -13.1385     0.0000     2.0000 </r>
       <r>   -13.0657     0.0000     2.0000 </r>
       <r>   -12.9929     0.0000     2.0000 </r>
       <r>   -12.9201     0.0000     2.0000 </r>
       <r>   -12.8473     0.0000     2.0000 </r>
       <r>   -12.7745     0.0000     2.0000 </r>
       <r>   -12.7017     0.0000     2.0000 </r>
       <r>   -12.6289     0.0000     2.0000 </r>
       <r>   -12.5561     0.0000     2.0000 </r>
       <r>   -12.4833     0.0000     2.0000 </r>
       <r>   -12.4104     0.0000     2.0000 </r>
       <r>   -12.3376     0.0000     2.0000 </r>
       <r>   -12.2648     0.0000     2.0000 </r>
       <r>   -12.1920     0.0000     2.0000 </r>
       <r>   -12.1192     0.0000     2.0000 </r>
       <r>   -12.0464     0.0000     2.0000 </r>
       <r>   -11.9736     0.0000     2.0000 </r>
       <r>   -11.9008     0.0000     2.0000 </r>
       <r>   -11.8280     0.0000     2.0000 </r>
       <r>   -11.7552     0.0000     2.0000 </r>
       <r>   -11.6824     0.0000     2.0000 </r>
       <r>   -11.6095     0.0000     2.0000 </r>
       <r>   -11.5367     0.0000     2.0000 </r>
       <r>   -11.4639     0.0000     2.0000 </r>
       <r>   -11.3911     0.0000     2.0000 </r>
       <r>   -11.3183     0.0000     2.0000 </r>
       <r>   -11.2455     0.0000     2.0000 </r>
       <r>   -11.1727    -0.0000     2.0000 </r>
       <r>   -11.0999    -0.0000     2.0000 </r>
       <r>   -11.0271    -0.0000     2.0000 </r>
       <r>   -10.9543    -0.0000     2.0000 </r>
       <r>   -10.8815    -0.0000     2.0000 </r>
       <r>   -10.8087    -0.0000     2.0000 </r>
       <r>   -10.7358    -0.0000     2.0000 </r>
       <r>   -10.6630    -0.0000     2.0000 </r>
       <r>   -10.5902    -0.0000     2.0000 </r>
       <r>   -10.5174    -0.0000     2.0000 </r>
       <r>   -10.4446    -0.0000     2.0000 </r>
       <r>   -10.3718    -0.0000     2.0000 </r>
       <r>   -10.2990    -0.0000     2.0000 </r>
       <r>   -10.2262    -0.0004     2.0000 </r>
       <r>   -10.1534    -0.0032     1.9997 </r>
       <r>   -10.0806    -0.0194     1.9983 </r>
       <r>   -10.0078    -0.0860     1.9921 </r>
       <r>    -9.9349    -0.2673     1.9726 </r>
       <r>    -9.8621    -0.5322     1.9339 </r>
       <r>    -9.7893    -0.4301     1.9025 </r>
       <r>    -9.7165     1.0312     1.9776 </r>
       <r>    -9.6437     4.5600     2.3096 </r>
       <r>    -9.5709     9.2758     2.9850 </r>
       <r>    -9.4981    12.9495     3.9278 </r>
       <r>    -9.4253    14.1353     4.9570 </r>
       <r>    -9.3525    13.3861     5.9316 </r>
       <r>    -9.2797    11.8020     6.7909 </r>
       <r>    -9.2069     9.3721     7.4733 </r>
       <r>    -9.1341     5.8608     7.9000 </r>
       <r>    -9.0612     2.3028     8.0677 </r>
       <r>    -8.9884     0.1195     8.0764 </r>
       <r>    -8.9156    -0.4986     8.0401 </r>
       <r>    -8.8428    -0.3600     8.0139 </r>
       <r>    -8.7700    -0.1434     8.0034 </r>
       <r>    -8.6972    -0.0384     8.0006 </r>
       <r>    -8.6244    -0.0073     8.0001 </r>
       <r>    -8.5516    -0.0010     8.0000 </r>
       <r>    -8.4788    -0.0001     8.0000 </r>
       <r>    -8.4060    -0.0000     8.0000 </r>
       <r>    -8.3332    -0.0000     8.0000 </r>
       <r>    -8.2603    -0.0000     8.0000 </r>
       <r>    -8.1875    -0.0000     8.0000 </r>
       <r>    -8.1147    -0.0000     8.0000 </r>
       <r>    -8.0419    -0.0000     8.0000 </r>
       <r>    -7.9691    -0.0000     8.0000 </r>
       <r>    -7.8963     0.0000     8.0000 </r>
       <r>    -7.8235     0.0000     8.0000 </r>
       <r>    -7.7507     0.0000     8.0000 </r>
       <r>    -7.6779     0.0000     8.0000 </r>
       <r>    -7.6051     0.0000     8.0000 </r>
       <r>    -7.5323     0.0000     8.0000 </r>
       <r>    -7.4595     0.0000     8.0000 </r>
       <r>    -7.3866     0.0000     8.0000 </r>
       <r>    -7.3138     0.0000     8.0000 </r>
       <r>    -7.2410     0.0000     8.0000 </r>
       <r>    -7.1682     0.0000     8.0000 </r>
       <r>    -7.0954     0.0000     8.0000 </r>
       <r>    -7.0226     0.0000     8.0000 </r>
       <r>    -6.9498     0.0000     8.0000 </r>
       <r>    -6.8770     0.0000     8.0000 </r>
       <r>    -6.8042     0.0000     8.0000 </r>
       <r>    -6.7314     0.0000     8.0000 </r>
       <r>    -6.6586     0.0000     8.0000 </r>
       <r>    -6.5857     0.0000     8.0000 </r>
       <r>    -6.5129     0.0000     8.0000 </r>
       <r>    -6.4401     0.0000     8.0000 </r>
       <r>    -6.3673     0.0000     8.0000 </r>
       <r>    -6.2945     0.0000     8.0000 </r>
       <r>    -6.2217     0.0000     8.0000 </r>
       <r>    -6.1489     0.0000     8.0000 </r>
       <r>    -6.0761     0.0000     8.0000 </r>
       <r>    -6.0033     0.0000     8.0000 </r>
       <r>    -5.9305     0.0000     8.0000 </r>
       <r>    -5.8577     0.0000     8.0000 </r>
       <r>    -5.7849     0.0000     8.0000 </r>
       <r>    -5.7120     0.0000     8.0000 </r>
       <r>    -5.6392     0.0000     8.0000 </r>
       <r>    -5.5664     0.0000     8.0000 </r>
       <r>    -5.4936     0.0000     8.0000 </r>
       <r>    -5.4208     0.0000     8.0000 </r>
       <r>    -5.3480     0.0000     8.0000 </r>
       <r>    -5.2752     0.0000     8.0000 </r>
       <r>    -5.2024     0.0000     8.0000 </r>
       <r>    -5.1296     0.0000     8.0000 </r>
       <r>    -5.0568     0.0000     8.0000 </r>
       <r>    -4.9840     0.0000     8.0000 </r>
       <r>    -4.9111     0.0000     8.0000 </r>
       <r>    -4.8383     0.0000     8.0000 </r>
       <r>    -4.7655     0.0000     8.0000 </r>
       <r>    -4.6927     0.0000     8.0000 </r>
       <r>    -4.6199     0.0000     8.0000 </r>
       <r>    -4.5471     0.0000     8.0000 </r>
       <r>    -4.4743     0.0000     8.0000 </r>
       <r>    -4.4015     0.0000     8.0000 </r>
       <r>    -4.3287     0.0000     8.0000 </r>
       <r>    -4.2559     0.0000     8.0000 </r>
       <r>    -4.1831     0.0000     8.0000 </r>
       <r>    -4.1103     0.0000     8.0000 </r>
       <r>    -4.0374     0.0000     8.0000 </r>
       <r>    -3.9646     0.0000     8.0000 </r>
       <r>    -3.8918     0.0000     8.0000 </r>
       <r>    -3.8190     0.0000     8.0000 </r>
       <r>    -3.7462     0.0000     8.0000 </r>
       <r>    -3.6734     0.0000     8.0000 </r>
       <r>    -3.6006     0.0000     8.0000 </r>
       <r>    -3.5278     0.0000     8.0000 </r>
       <r>    -3.4550     0.0000     8.0000 </r>
       <r>    -3.3822     0.0000     8.0000 </r>
       <r>    -3.3094     0.0000     8.0000 </r>
       <r>    -3.2365     0.0000     8.0000 </r>
       <r>    -3.1637     0.0000     8.0000 </r>
       <r>    -3.0909     0.0000     8.0000 </r>
       <r>    -3.0181     0.0000     8.0000 </r>
       <r>    -2.9453     0.0000     8.0000 </r>
       <r>    -2.8725     0.0000     8.0000 </r>
       <r>    -2.7997     0.0000     8.0000 </r>
       <r>    -2.7269     0.0000     8.0000 </r>
       <r>    -2.6541     0.0000     8.0000 </r>
       <r>    -2.5813     0.0000     8.0000 </r>
       <r>    -2.5085     0.0000     8.0000 </r>
       <r>    -2.4357     0.0000     8.0000 </r>
       <r>    -2.3628     0.0000     8.0000 </r>
       <r>    -2.2900     0.0000     8.0000 </r>
       <r>    -2.2172     0.0000     8.0000 </r>
       <r>    -2.1444     0.0000     8.0000 </r>
       <r>    -2.0716     0.0000     8.0000 </r>
       <r>    -1.9988     0.0000     8.0000 </r>
       <r>    -1.9260    -0.0000     8.0000 </r>
       <r>    -1.8532    -0.0000     8.0000 </r>
       <r>    -1.7804    -0.0000     8.0000 </r>
       <r>    -1.7076    -0.0000     8.0000 </r>
       <r>    -1.6348    -0.0000     8.0000 </r>
       <r>    -1.5619    -0.0000     8.0000 </r>
       <r>    -1.4891    -0.0000     8.0000 </r>
       <r>    -1.4163    -0.0000     8.0000 </r>
       <r>    -1.3435    -0.0000     8.0000 </r>
       <r>    -1.2707    -0.0000     8.0000 </r>
       <r>    -1.1979    -0.0000     8.0000 </r>
       <r>    -1.1251    -0.0000     8.0000 </r>
       <r>    -1.0523    -0.0000     8.0000 </r>
       <r>    -0.9795    -0.0001     8.0000 </r>
       <r>    -0.9067    -0.0014     7.9999 </r>
       <r>    -0.8339    -0.0093     7.9992 </r>
       <r>    -0.7611    -0.0463     7.9958 </r>
       <r>    -0.6882    -0.1622     7.9840 </r>
       <r>    -0.6154    -0.3679     7.9572 </r>
       <r>    -0.5426    -0.3765     7.9298 </r>
       <r>    -0.4698     0.6135     7.9745 </r>
       <r>    -0.3970     3.2767     8.2131 </r>
       <r>    -0.3242     6.6869     8.6999 </r>
       <r>    -0.2514     8.3048     9.3046 </r>
       <r>    -0.1786     6.6638     9.7898 </r>
       <r>    -0.1058     3.2503    10.0264 </r>
       <r>    -0.0330     0.5981    10.0700 </r>
       <r>     0.0398    -0.3890    10.0417 </r>
       <r>     0.1127    -0.4186    10.0112 </r>
       <r>     0.1855    -0.3587     9.9851 </r>
       <r>     0.2583    -0.5684     9.9437 </r>
       <r>     0.3311    -0.8469     9.8820 </r>
       <r>     0.4039    -0.2149     9.8664 </r>
       <r>     0.4767     2.9624    10.0821 </r>
       <r>     0.5495     9.4822    10.7724 </r>
       <r>     0.6223    17.2532    12.0286 </r>
       <r>     0.6951    21.6054    13.6017 </r>
       <r>     0.7679    19.1919    14.9990 </r>
       <r>     0.8407    11.6512    15.8473 </r>
       <r>     0.9135     4.0725    16.1439 </r>
       <r>     0.9864    -0.0504    16.1402 </r>
       <r>     1.0592    -0.9821    16.0687 </r>
       <r>     1.1320    -0.6323    16.0226 </r>
       <r>     1.2048    -0.2369    16.0054 </r>
       <r>     1.2776    -0.0609    16.0009 </r>
       <r>     1.3504    -0.0113    16.0001 </r>
       <r>     1.4232    -0.0016    16.0000 </r>
       <r>     1.4960    -0.0002    16.0000 </r>
       <r>     1.5688    -0.0000    16.0000 </r>
       <r>     1.6416    -0.0000    16.0000 </r>
       <r>     1.7144    -0.0000    16.0000 </r>
       <r>     1.7873    -0.0000    16.0000 </r>
       <r>     1.8601    -0.0000    16.0000 </r>
       <r>     1.9329    -0.0000    16.0000 </r>
       <r>     2.0057    -0.0000    16.0000 </r>
       <r>     2.0785     0.0000    16.0000 </r>
       <r>     2.1513     0.0000    16.0000 </r>
       <r>     2.2241     0.0000    16.0000 </r>
       <r>     2.2969     0.0000    16.0000 </r>
       <r>     2.3697     0.0000    16.0000 </r>
       <r>     2.4425     0.0000    16.0000 </r>
       <r>     2.5153     0.0000    16.0000 </r>
       <r>     2.5881     0.0000    16.0000 </r>
       <r>     2.6610     0.0000    16.0000 </r>
       <r>     2.7338     0.0000    16.0000 </r>
      </set>
     </set>
    </array>
   </total>
  </dos>
 </calculation>
 <structure name="finalpos" >
  <crystal>
   <varray name="basis" >
    <v>       9.90445309       0.00000000       0.00000000 </v>
    <v>      -0.04075689       9.96652731       0.00000000 </v>
    <v>      -0.22258655      -0.25243012       9.97170672 </v>
   </varray>
   <i name="volume">    984.33710788 </i>
   <varray name="rec_basis" >
    <v>       0.10096469       0.00041288       0.00226417 </v>
    <v>      -0.00000000       0.10033585       0.00253997 </v>
    <v>       0.00000000      -0.00000000       0.10028374 </v>
   </varray>
  </crystal>
  <varray name="positions" >
   <v>       0.53060784       0.40505921       0.35888674 </v>
   <v>       0.39899437       0.48906987       0.43829926 </v>
   <v>       0.55634285       0.56449384       0.44752333 </v>
   <v>       0.52230696       0.41381238       0.53518921 </v>
   <v>       0.50308754       0.46698667       0.44601784 </v>
  </varray>
  <varray name="velocities" >
   <v>      -0.00040654       0.00152823       0.00384424 </v>
   <v>       0.00274779      -0.00015466      -0.00057255 </v>
   <v>       0.00165252       0.00014169      -0.00121469 </v>
   <v>      -0.00282459       0.00156252      -0.00178561 </v>
   <v>      -0.00009734      -0.00025625      -0.00002259 </v>
  </varray>
 </structure>
</modeling>
