unknown system                          
           1
     9.904453    0.000000    0.000000
    -0.040757    9.966527    0.000000
    -0.222587   -0.252430    9.971707
   H    C 
   4   1
Direct configuration=     1
   0.53800040  0.40666389  0.36077924
   0.39479837  0.48066691  0.43862191
   0.55272486  0.56621796  0.44264533
   0.52833428  0.41653952  0.53913518
   0.50262081  0.46718207  0.44591101
Direct configuration=     2
   0.54019584  0.40474962  0.35791865
   0.39263639  0.48081043  0.44274637
   0.55305426  0.56609923  0.43990795
   0.52701090  0.41546431  0.53827821
   0.50270079  0.46742890  0.44610504
Direct configuration=     3
   0.53946662  0.40453575  0.35788701
   0.38923064  0.48134784  0.44598289
   0.55460505  0.56696790  0.43987203
   0.52737857  0.41442273  0.53855717
   0.50288532  0.46741636  0.44581798
Direct configuration=     4
   0.53613489  0.40623874  0.36040017
   0.38944478  0.48086558  0.44724170
   0.55531012  0.56484182  0.44165943
   0.52980887  0.41466331  0.53983297
   0.50288385  0.46747171  0.44524890
Direct configuration=     5
   0.53370333  0.40486383  0.35777457
   0.39168080  0.48027480  0.44697743
   0.55731894  0.56320286  0.44573311
   0.53234819  0.41648303  0.54136190
   0.50252146  0.46762032  0.44502305
Direct configuration=     6
   0.53106077  0.40390098  0.35625235
   0.39396031  0.48151289  0.44339718
   0.55832158  0.56460080  0.44918638
   0.53361736  0.41939396  0.53898626
   0.50236254  0.46723866  0.44535814
Direct configuration=     7
   0.52919929  0.40568202  0.35923392
   0.39426116  0.48333566  0.44074772
   0.55786798  0.56571933  0.45029011
   0.53376733  0.41969337  0.53846001
   0.50251776  0.46682056  0.44528241
Direct configuration=     8
   0.52884254  0.40721504  0.35936116
   0.39113799  0.48569972  0.43872403
   0.55676516  0.56530925  0.45048378
   0.53209067  0.41580321  0.54102483
   0.50303889  0.46685413  0.44521064
Direct configuration=     9
   0.52955465  0.40446440  0.35634245
   0.39264270  0.48868165  0.43843098
   0.55482560  0.56462157  0.45016133
   0.52901961  0.41283425  0.53915041
   0.50327150  0.46713931  0.44566927
Direct configuration=    10
   0.53101438  0.40353098  0.35504250
   0.39624659  0.48922453  0.43887182
   0.55469033  0.56435215  0.44873802
   0.52513155  0.41224985  0.53697483
   0.50318489  0.46724291  0.44604043
