   5   5   0   0
  0.1884117E+03  0.9760901E-09  0.9707262E-09  0.9943383E-09  0.2000000E-14
   50.000000000000000     
  CAR 
 unknown system                          
      2.73809488    -19.03612471  301     -9.18171801      1.00000000
    -19.036  0.0000E+00  0.0000E+00
    -18.964  0.0000E+00  0.0000E+00
    -18.891  0.0000E+00  0.0000E+00
    -18.818  0.0000E+00  0.0000E+00
    -18.746  0.0000E+00  0.0000E+00
    -18.673 -0.5057E-27 -0.3670E-28
    -18.601 -0.1606E-24 -0.1170E-25
    -18.528 -0.3922E-22 -0.2858E-23
    -18.455 -0.7337E-20 -0.5354E-21
    -18.383 -0.1052E-17 -0.7686E-19
    -18.310 -0.1154E-15 -0.8455E-17
    -18.238 -0.9699E-14 -0.7124E-15
    -18.165 -0.6035E-12 -0.4451E-13
    -18.093 -0.2954E-10 -0.2189E-11
    -18.020 -0.1102E-08 -0.8218E-10
    -17.947 -0.3132E-07 -0.2355E-08
    -17.875 -0.6763E-06 -0.5144E-07
    -17.802 -0.1107E-04 -0.8546E-06
    -17.730 -0.1366E-03 -0.1077E-04
    -17.657 -0.1265E-02 -0.1026E-03
    -17.585 -0.8701E-02 -0.7342E-03
    -17.512 -0.4370E-01 -0.3906E-02
    -17.439 -0.1551E+00 -0.1516E-01
    -17.367 -0.3593E+00 -0.4124E-01
    -17.294 -0.3921E+00 -0.6970E-01
    -17.222  0.5226E+00 -0.3177E-01
    -17.149  0.3096E+01  0.1929E+00
    -17.076  0.6519E+01  0.6661E+00
    -17.004  0.8305E+01  0.1269E+01
    -16.931  0.6850E+01  0.1766E+01
    -16.859  0.3473E+01  0.2018E+01
    -16.786  0.7245E+00  0.2071E+01
    -16.714 -0.3551E+00  0.2045E+01
    -16.641 -0.3812E+00  0.2017E+01
    -16.568 -0.1745E+00  0.2005E+01
    -16.496 -0.5128E-01  0.2001E+01
    -16.423 -0.1059E-01  0.2000E+01
    -16.351 -0.1594E-02  0.2000E+01
    -16.278 -0.1778E-03  0.2000E+01
    -16.205 -0.1487E-04  0.2000E+01
    -16.133 -0.9375E-06  0.2000E+01
    -16.060 -0.4478E-07  0.2000E+01
    -15.988 -0.1625E-08  0.2000E+01
    -15.915 -0.4489E-10  0.2000E+01
    -15.843 -0.9438E-12  0.2000E+01
    -15.770 -0.1836E-13  0.2000E+01
    -15.697  0.0000E+00  0.2000E+01
    -15.625  0.0000E+00  0.2000E+01
    -15.552  0.0000E+00  0.2000E+01
    -15.480  0.0000E+00  0.2000E+01
    -15.407  0.0000E+00  0.2000E+01
    -15.335  0.0000E+00  0.2000E+01
    -15.262  0.0000E+00  0.2000E+01
    -15.189  0.0000E+00  0.2000E+01
    -15.117  0.0000E+00  0.2000E+01
    -15.044  0.0000E+00  0.2000E+01
    -14.972  0.0000E+00  0.2000E+01
    -14.899  0.0000E+00  0.2000E+01
    -14.826  0.0000E+00  0.2000E+01
    -14.754  0.0000E+00  0.2000E+01
    -14.681  0.0000E+00  0.2000E+01
    -14.609  0.0000E+00  0.2000E+01
    -14.536  0.0000E+00  0.2000E+01
    -14.464  0.0000E+00  0.2000E+01
    -14.391  0.0000E+00  0.2000E+01
    -14.318  0.0000E+00  0.2000E+01
    -14.246  0.0000E+00  0.2000E+01
    -14.173  0.0000E+00  0.2000E+01
    -14.101  0.0000E+00  0.2000E+01
    -14.028  0.0000E+00  0.2000E+01
    -13.955  0.0000E+00  0.2000E+01
    -13.883  0.0000E+00  0.2000E+01
    -13.810  0.0000E+00  0.2000E+01
    -13.738  0.0000E+00  0.2000E+01
    -13.665  0.0000E+00  0.2000E+01
    -13.593  0.0000E+00  0.2000E+01
    -13.520  0.0000E+00  0.2000E+01
    -13.447  0.0000E+00  0.2000E+01
    -13.375  0.0000E+00  0.2000E+01
    -13.302  0.0000E+00  0.2000E+01
    -13.230  0.0000E+00  0.2000E+01
    -13.157  0.0000E+00  0.2000E+01
    -13.085  0.0000E+00  0.2000E+01
    -13.012  0.0000E+00  0.2000E+01
    -12.939  0.0000E+00  0.2000E+01
    -12.867  0.0000E+00  0.2000E+01
    -12.794  0.0000E+00  0.2000E+01
    -12.722  0.0000E+00  0.2000E+01
    -12.649  0.0000E+00  0.2000E+01
    -12.576  0.0000E+00  0.2000E+01
    -12.504  0.0000E+00  0.2000E+01
    -12.431  0.0000E+00  0.2000E+01
    -12.359  0.0000E+00  0.2000E+01
    -12.286  0.0000E+00  0.2000E+01
    -12.214  0.0000E+00  0.2000E+01
    -12.141  0.0000E+00  0.2000E+01
    -12.068  0.0000E+00  0.2000E+01
    -11.996  0.0000E+00  0.2000E+01
    -11.923  0.0000E+00  0.2000E+01
    -11.851  0.0000E+00  0.2000E+01
    -11.778  0.0000E+00  0.2000E+01
    -11.705  0.0000E+00  0.2000E+01
    -11.633  0.0000E+00  0.2000E+01
    -11.560  0.0000E+00  0.2000E+01
    -11.488  0.0000E+00  0.2000E+01
    -11.415  0.0000E+00  0.2000E+01
    -11.343  0.0000E+00  0.2000E+01
    -11.270  0.0000E+00  0.2000E+01
    -11.197  0.0000E+00  0.2000E+01
    -11.125  0.0000E+00  0.2000E+01
    -11.052 -0.1057E-27  0.2000E+01
    -10.980 -0.3674E-25  0.2000E+01
    -10.907 -0.9663E-23  0.2000E+01
    -10.835 -0.1950E-20  0.2000E+01
    -10.762 -0.3019E-18  0.2000E+01
    -10.689 -0.3586E-16  0.2000E+01
    -10.617 -0.3267E-14  0.2000E+01
    -10.544 -0.2221E-12  0.2000E+01
    -10.472 -0.1181E-10  0.2000E+01
    -10.399 -0.4823E-09  0.2000E+01
    -10.326 -0.1507E-07  0.2000E+01
    -10.254 -0.3600E-06  0.2000E+01
    -10.181 -0.6562E-05  0.2000E+01
    -10.109 -0.9105E-04  0.2000E+01
    -10.036 -0.9582E-03  0.2000E+01
     -9.964 -0.7601E-02  0.1999E+01
     -9.891 -0.4497E-01  0.1996E+01
     -9.818 -0.1946E+00  0.1982E+01
     -9.746 -0.5914E+00  0.1939E+01
     -9.673 -0.1126E+01  0.1857E+01
     -9.601 -0.6802E+00  0.1808E+01
     -9.528  0.3091E+01  0.2032E+01
     -9.455  0.1141E+02  0.2861E+01
     -9.383  0.2074E+02  0.4366E+01
     -9.310  0.2408E+02  0.6114E+01
     -9.238  0.1846E+02  0.7454E+01
     -9.165  0.8704E+01  0.8086E+01
     -9.093  0.1506E+01  0.8195E+01
     -9.020 -0.1072E+01  0.8118E+01
     -8.947 -0.1011E+01  0.8044E+01
     -8.875 -0.4473E+00  0.8012E+01
     -8.802 -0.1295E+00  0.8002E+01
     -8.730 -0.2660E-01  0.8000E+01
     -8.657 -0.4002E-02  0.8000E+01
     -8.584 -0.4485E-03  0.8000E+01
     -8.512 -0.3779E-04  0.8000E+01
     -8.439 -0.2408E-05  0.8000E+01
     -8.367 -0.1164E-06  0.8000E+01
     -8.294 -0.4285E-08  0.8000E+01
     -8.222 -0.1202E-09  0.8000E+01
     -8.149 -0.2581E-11  0.8000E+01
     -8.076 -0.4283E-13  0.8000E+01
     -8.004  0.0000E+00  0.8000E+01
     -7.931  0.0000E+00  0.8000E+01
     -7.859  0.0000E+00  0.8000E+01
     -7.786  0.0000E+00  0.8000E+01
     -7.714  0.0000E+00  0.8000E+01
     -7.641  0.0000E+00  0.8000E+01
     -7.568  0.0000E+00  0.8000E+01
     -7.496  0.0000E+00  0.8000E+01
     -7.423  0.0000E+00  0.8000E+01
     -7.351  0.0000E+00  0.8000E+01
     -7.278  0.0000E+00  0.8000E+01
     -7.205  0.0000E+00  0.8000E+01
     -7.133  0.0000E+00  0.8000E+01
     -7.060  0.0000E+00  0.8000E+01
     -6.988  0.0000E+00  0.8000E+01
     -6.915  0.0000E+00  0.8000E+01
     -6.843  0.0000E+00  0.8000E+01
     -6.770  0.0000E+00  0.8000E+01
     -6.697  0.0000E+00  0.8000E+01
     -6.625  0.0000E+00  0.8000E+01
     -6.552  0.0000E+00  0.8000E+01
     -6.480  0.0000E+00  0.8000E+01
     -6.407  0.0000E+00  0.8000E+01
     -6.334  0.0000E+00  0.8000E+01
     -6.262  0.0000E+00  0.8000E+01
     -6.189  0.0000E+00  0.8000E+01
     -6.117  0.0000E+00  0.8000E+01
     -6.044  0.0000E+00  0.8000E+01
     -5.972  0.0000E+00  0.8000E+01
     -5.899  0.0000E+00  0.8000E+01
     -5.826  0.0000E+00  0.8000E+01
     -5.754  0.0000E+00  0.8000E+01
     -5.681  0.0000E+00  0.8000E+01
     -5.609  0.0000E+00  0.8000E+01
     -5.536  0.0000E+00  0.8000E+01
     -5.464  0.0000E+00  0.8000E+01
     -5.391  0.0000E+00  0.8000E+01
     -5.318  0.0000E+00  0.8000E+01
     -5.246  0.0000E+00  0.8000E+01
     -5.173  0.0000E+00  0.8000E+01
     -5.101  0.0000E+00  0.8000E+01
     -5.028  0.0000E+00  0.8000E+01
     -4.955  0.0000E+00  0.8000E+01
     -4.883  0.0000E+00  0.8000E+01
     -4.810  0.0000E+00  0.8000E+01
     -4.738  0.0000E+00  0.8000E+01
     -4.665  0.0000E+00  0.8000E+01
     -4.593  0.0000E+00  0.8000E+01
     -4.520  0.0000E+00  0.8000E+01
     -4.447  0.0000E+00  0.8000E+01
     -4.375  0.0000E+00  0.8000E+01
     -4.302  0.0000E+00  0.8000E+01
     -4.230  0.0000E+00  0.8000E+01
     -4.157  0.0000E+00  0.8000E+01
     -4.084  0.0000E+00  0.8000E+01
     -4.012  0.0000E+00  0.8000E+01
     -3.939  0.0000E+00  0.8000E+01
     -3.867  0.0000E+00  0.8000E+01
     -3.794  0.0000E+00  0.8000E+01
     -3.722  0.0000E+00  0.8000E+01
     -3.649  0.0000E+00  0.8000E+01
     -3.576  0.0000E+00  0.8000E+01
     -3.504  0.0000E+00  0.8000E+01
     -3.431  0.0000E+00  0.8000E+01
     -3.359  0.0000E+00  0.8000E+01
     -3.286  0.0000E+00  0.8000E+01
     -3.214  0.0000E+00  0.8000E+01
     -3.141  0.0000E+00  0.8000E+01
     -3.068  0.0000E+00  0.8000E+01
     -2.996  0.0000E+00  0.8000E+01
     -2.923  0.0000E+00  0.8000E+01
     -2.851  0.0000E+00  0.8000E+01
     -2.778  0.0000E+00  0.8000E+01
     -2.705  0.0000E+00  0.8000E+01
     -2.633  0.0000E+00  0.8000E+01
     -2.560  0.0000E+00  0.8000E+01
     -2.488  0.0000E+00  0.8000E+01
     -2.415  0.0000E+00  0.8000E+01
     -2.343  0.0000E+00  0.8000E+01
     -2.270  0.0000E+00  0.8000E+01
     -2.197  0.0000E+00  0.8000E+01
     -2.125  0.0000E+00  0.8000E+01
     -2.052  0.0000E+00  0.8000E+01
     -1.980  0.0000E+00  0.8000E+01
     -1.907 -0.1555E-26  0.8000E+01
     -1.834 -0.4693E-24  0.8000E+01
     -1.762 -0.1089E-21  0.8000E+01
     -1.689 -0.1935E-19  0.8000E+01
     -1.617 -0.2635E-17  0.8000E+01
     -1.544 -0.2748E-15  0.8000E+01
     -1.472 -0.2193E-13  0.8000E+01
     -1.399 -0.1295E-11  0.8000E+01
     -1.326 -0.6020E-10  0.8000E+01
     -1.254 -0.2132E-08  0.8000E+01
     -1.181 -0.5749E-07  0.8000E+01
     -1.109 -0.1178E-05  0.8000E+01
     -1.036 -0.1827E-04  0.8000E+01
     -0.964 -0.2136E-03  0.8000E+01
     -0.891 -0.1870E-02  0.8000E+01
     -0.818 -0.1213E-01  0.7999E+01
     -0.746 -0.5721E-01  0.7995E+01
     -0.673 -0.1888E+00  0.7981E+01
     -0.601 -0.3952E+00  0.7952E+01
     -0.528 -0.3213E+00  0.7929E+01
     -0.455  0.8796E+00  0.7993E+01
     -0.383  0.3743E+01  0.8265E+01
     -0.310  0.7066E+01  0.8778E+01
     -0.238  0.8278E+01  0.9378E+01
     -0.165  0.6274E+01  0.9834E+01
     -0.093  0.2840E+01  0.1004E+02
     -0.020  0.3940E+00  0.1007E+02
      0.053 -0.4193E+00  0.1004E+02
      0.125 -0.3890E+00  0.1001E+02
      0.198 -0.3234E+00  0.9986E+01
      0.270 -0.5400E+00  0.9947E+01
      0.343 -0.8757E+00  0.9884E+01
      0.416 -0.4131E+00  0.9854E+01
      0.488  0.2550E+01  0.1004E+02
      0.561  0.9070E+01  0.1070E+02
      0.633  0.1721E+02  0.1195E+02
      0.706  0.2203E+02  0.1354E+02
      0.778  0.1976E+02  0.1498E+02
      0.851  0.1201E+02  0.1585E+02
      0.924  0.4156E+01  0.1615E+02
      0.996 -0.9316E-01  0.1615E+02
      1.069 -0.1029E+01  0.1607E+02
      1.141 -0.6532E+00  0.1602E+02
      1.214 -0.2426E+00  0.1601E+02
      1.286 -0.6185E-01  0.1600E+02
      1.359 -0.1140E-01  0.1600E+02
      1.432 -0.1553E-02  0.1600E+02
      1.504 -0.1584E-03  0.1600E+02
      1.577 -0.1219E-04  0.1600E+02
      1.649 -0.7115E-06  0.1600E+02
      1.722 -0.3158E-07  0.1600E+02
      1.795 -0.1069E-08  0.1600E+02
      1.867 -0.2763E-10  0.1600E+02
      1.940 -0.5476E-12  0.1600E+02
      2.012 -0.7648E-14  0.1600E+02
      2.085  0.0000E+00  0.1600E+02
      2.157  0.0000E+00  0.1600E+02
      2.230  0.0000E+00  0.1600E+02
      2.303  0.0000E+00  0.1600E+02
      2.375  0.0000E+00  0.1600E+02
      2.448  0.0000E+00  0.1600E+02
      2.520  0.0000E+00  0.1600E+02
      2.593  0.0000E+00  0.1600E+02
      2.666  0.0000E+00  0.1600E+02
      2.738  0.0000E+00  0.1600E+02
      2.72744107    -18.85659952  301     -8.87220619      1.00000000
    -18.857  0.0000E+00  0.0000E+00
    -18.785  0.0000E+00  0.0000E+00
    -18.713  0.0000E+00  0.0000E+00
    -18.641  0.0000E+00  0.0000E+00
    -18.569  0.0000E+00  0.0000E+00
    -18.497 -0.3941E-27 -0.2836E-28
    -18.425 -0.1206E-24 -0.8702E-26
    -18.353 -0.2847E-22 -0.2057E-23
    -18.281 -0.5177E-20 -0.3746E-21
    -18.209 -0.7246E-18 -0.5251E-19
    -18.137 -0.7804E-16 -0.5667E-17
    -18.065 -0.6462E-14 -0.4706E-15
    -17.993 -0.3990E-12 -0.2918E-13
    -17.921 -0.1941E-10 -0.1425E-11
    -17.849 -0.7240E-09 -0.5351E-10
    -17.777 -0.2067E-07 -0.1541E-08
    -17.705 -0.4509E-06 -0.3398E-07
    -17.634 -0.7490E-05 -0.5729E-06
    -17.562 -0.9442E-04 -0.7366E-05
    -17.490 -0.8981E-03 -0.7198E-04
    -17.418 -0.6388E-02 -0.5316E-03
    -17.346 -0.3349E-01 -0.2941E-02
    -17.274 -0.1258E+00 -0.1199E-01
    -17.202 -0.3175E+00 -0.3483E-01
    -17.130 -0.4310E+00 -0.6584E-01
    -17.058  0.1974E+00 -0.5164E-01
    -16.986  0.2385E+01  0.1199E+00
    -16.914  0.5772E+01  0.5352E+00
    -16.842  0.8158E+01  0.1122E+01
    -16.770  0.7491E+01  0.1661E+01
    -16.698  0.4374E+01  0.1976E+01
    -16.626  0.1296E+01  0.2069E+01
    -16.554 -0.2058E+00  0.2054E+01
    -16.482 -0.4250E+00  0.2024E+01
    -16.410 -0.2312E+00  0.2007E+01
    -16.338 -0.7708E-01  0.2002E+01
    -16.267 -0.1786E-01  0.2000E+01
    -16.195 -0.3006E-02  0.2000E+01
    -16.123 -0.3755E-03  0.2000E+01
    -16.051 -0.3522E-04  0.2000E+01
    -15.979 -0.2499E-05  0.2000E+01
    -15.907 -0.1347E-06  0.2000E+01
    -15.835 -0.5542E-08  0.2000E+01
    -15.763 -0.1742E-09  0.2000E+01
    -15.691 -0.4194E-11  0.2000E+01
    -15.619 -0.8024E-13  0.2000E+01
    -15.547  0.0000E+00  0.2000E+01
    -15.475  0.0000E+00  0.2000E+01
    -15.403  0.0000E+00  0.2000E+01
    -15.331  0.0000E+00  0.2000E+01
    -15.259  0.0000E+00  0.2000E+01
    -15.187  0.0000E+00  0.2000E+01
    -15.115  0.0000E+00  0.2000E+01
    -15.043  0.0000E+00  0.2000E+01
    -14.971  0.0000E+00  0.2000E+01
    -14.900  0.0000E+00  0.2000E+01
    -14.828  0.0000E+00  0.2000E+01
    -14.756  0.0000E+00  0.2000E+01
    -14.684  0.0000E+00  0.2000E+01
    -14.612  0.0000E+00  0.2000E+01
    -14.540  0.0000E+00  0.2000E+01
    -14.468  0.0000E+00  0.2000E+01
    -14.396  0.0000E+00  0.2000E+01
    -14.324  0.0000E+00  0.2000E+01
    -14.252  0.0000E+00  0.2000E+01
    -14.180  0.0000E+00  0.2000E+01
    -14.108  0.0000E+00  0.2000E+01
    -14.036  0.0000E+00  0.2000E+01
    -13.964  0.0000E+00  0.2000E+01
    -13.892  0.0000E+00  0.2000E+01
    -13.820  0.0000E+00  0.2000E+01
    -13.748  0.0000E+00  0.2000E+01
    -13.676  0.0000E+00  0.2000E+01
    -13.604  0.0000E+00  0.2000E+01
    -13.533  0.0000E+00  0.2000E+01
    -13.461  0.0000E+00  0.2000E+01
    -13.389  0.0000E+00  0.2000E+01
    -13.317  0.0000E+00  0.2000E+01
    -13.245  0.0000E+00  0.2000E+01
    -13.173  0.0000E+00  0.2000E+01
    -13.101  0.0000E+00  0.2000E+01
    -13.029  0.0000E+00  0.2000E+01
    -12.957  0.0000E+00  0.2000E+01
    -12.885  0.0000E+00  0.2000E+01
    -12.813  0.0000E+00  0.2000E+01
    -12.741  0.0000E+00  0.2000E+01
    -12.669  0.0000E+00  0.2000E+01
    -12.597  0.0000E+00  0.2000E+01
    -12.525  0.0000E+00  0.2000E+01
    -12.453  0.0000E+00  0.2000E+01
    -12.381  0.0000E+00  0.2000E+01
    -12.309  0.0000E+00  0.2000E+01
    -12.237  0.0000E+00  0.2000E+01
    -12.166  0.0000E+00  0.2000E+01
    -12.094  0.0000E+00  0.2000E+01
    -12.022  0.0000E+00  0.2000E+01
    -11.950  0.0000E+00  0.2000E+01
    -11.878  0.0000E+00  0.2000E+01
    -11.806  0.0000E+00  0.2000E+01
    -11.734  0.0000E+00  0.2000E+01
    -11.662  0.0000E+00  0.2000E+01
    -11.590  0.0000E+00  0.2000E+01
    -11.518  0.0000E+00  0.2000E+01
    -11.446  0.0000E+00  0.2000E+01
    -11.374  0.0000E+00  0.2000E+01
    -11.302  0.0000E+00  0.2000E+01
    -11.230  0.0000E+00  0.2000E+01
    -11.158  0.0000E+00  0.2000E+01
    -11.086 -0.5469E-28  0.2000E+01
    -11.014 -0.1826E-25  0.2000E+01
    -10.942 -0.4709E-23  0.2000E+01
    -10.871 -0.9348E-21  0.2000E+01
    -10.799 -0.1429E-18  0.2000E+01
    -10.727 -0.1680E-16  0.2000E+01
    -10.655 -0.1520E-14  0.2000E+01
    -10.583 -0.1027E-12  0.2000E+01
    -10.511 -0.5469E-11  0.2000E+01
    -10.439 -0.2234E-09  0.2000E+01
    -10.367 -0.6997E-08  0.2000E+01
    -10.295 -0.1677E-06  0.2000E+01
    -10.223 -0.3069E-05  0.2000E+01
    -10.151 -0.4279E-04  0.2000E+01
    -10.079 -0.4529E-03  0.2000E+01
    -10.007 -0.3617E-02  0.2000E+01
     -9.935 -0.2161E-01  0.1998E+01
     -9.863 -0.9498E-01  0.1991E+01
     -9.791 -0.2972E+00  0.1970E+01
     -9.719 -0.6065E+00  0.1926E+01
     -9.647 -0.5363E+00  0.1888E+01
     -9.575  0.1087E+01  0.1966E+01
     -9.504  0.5236E+01  0.2343E+01
     -9.432  0.1082E+02  0.3121E+01
     -9.360  0.1443E+02  0.4159E+01
     -9.288  0.1350E+02  0.5130E+01
     -9.216  0.9592E+01  0.5820E+01
     -9.144  0.6854E+01  0.6313E+01
     -9.072  0.7001E+01  0.6817E+01
     -9.000  0.7644E+01  0.7367E+01
     -8.928  0.6155E+01  0.7810E+01
     -8.856  0.3064E+01  0.8030E+01
     -8.784  0.5699E+00  0.8071E+01
     -8.712 -0.3831E+00  0.8044E+01
     -8.640 -0.3765E+00  0.8017E+01
     -8.568 -0.1700E+00  0.8004E+01
     -8.496 -0.5002E-01  0.8001E+01
     -8.424 -0.1042E-01  0.8000E+01
     -8.352 -0.1591E-02  0.8000E+01
     -8.280 -0.1811E-03  0.8000E+01
     -8.208 -0.1552E-04  0.8000E+01
     -8.137 -0.1008E-05  0.8000E+01
     -8.065 -0.4981E-07  0.8000E+01
     -7.993 -0.1879E-08  0.8000E+01
     -7.921 -0.5421E-10  0.8000E+01
     -7.849 -0.1202E-11  0.8000E+01
     -7.777 -0.1852E-13  0.8000E+01
     -7.705  0.0000E+00  0.8000E+01
     -7.633  0.0000E+00  0.8000E+01
     -7.561  0.0000E+00  0.8000E+01
     -7.489  0.0000E+00  0.8000E+01
     -7.417  0.0000E+00  0.8000E+01
     -7.345  0.0000E+00  0.8000E+01
     -7.273  0.0000E+00  0.8000E+01
     -7.201  0.0000E+00  0.8000E+01
     -7.129  0.0000E+00  0.8000E+01
     -7.057  0.0000E+00  0.8000E+01
     -6.985  0.0000E+00  0.8000E+01
     -6.913  0.0000E+00  0.8000E+01
     -6.841  0.0000E+00  0.8000E+01
     -6.770  0.0000E+00  0.8000E+01
     -6.698  0.0000E+00  0.8000E+01
     -6.626  0.0000E+00  0.8000E+01
     -6.554  0.0000E+00  0.8000E+01
     -6.482  0.0000E+00  0.8000E+01
     -6.410  0.0000E+00  0.8000E+01
     -6.338  0.0000E+00  0.8000E+01
     -6.266  0.0000E+00  0.8000E+01
     -6.194  0.0000E+00  0.8000E+01
     -6.122  0.0000E+00  0.8000E+01
     -6.050  0.0000E+00  0.8000E+01
     -5.978  0.0000E+00  0.8000E+01
     -5.906  0.0000E+00  0.8000E+01
     -5.834  0.0000E+00  0.8000E+01
     -5.762  0.0000E+00  0.8000E+01
     -5.690  0.0000E+00  0.8000E+01
     -5.618  0.0000E+00  0.8000E+01
     -5.546  0.0000E+00  0.8000E+01
     -5.474  0.0000E+00  0.8000E+01
     -5.403  0.0000E+00  0.8000E+01
     -5.331  0.0000E+00  0.8000E+01
     -5.259  0.0000E+00  0.8000E+01
     -5.187  0.0000E+00  0.8000E+01
     -5.115  0.0000E+00  0.8000E+01
     -5.043  0.0000E+00  0.8000E+01
     -4.971  0.0000E+00  0.8000E+01
     -4.899  0.0000E+00  0.8000E+01
     -4.827  0.0000E+00  0.8000E+01
     -4.755  0.0000E+00  0.8000E+01
     -4.683  0.0000E+00  0.8000E+01
     -4.611  0.0000E+00  0.8000E+01
     -4.539  0.0000E+00  0.8000E+01
     -4.467  0.0000E+00  0.8000E+01
     -4.395  0.0000E+00  0.8000E+01
     -4.323  0.0000E+00  0.8000E+01
     -4.251  0.0000E+00  0.8000E+01
     -4.179  0.0000E+00  0.8000E+01
     -4.108  0.0000E+00  0.8000E+01
     -4.036  0.0000E+00  0.8000E+01
     -3.964  0.0000E+00  0.8000E+01
     -3.892  0.0000E+00  0.8000E+01
     -3.820  0.0000E+00  0.8000E+01
     -3.748  0.0000E+00  0.8000E+01
     -3.676  0.0000E+00  0.8000E+01
     -3.604  0.0000E+00  0.8000E+01
     -3.532  0.0000E+00  0.8000E+01
     -3.460  0.0000E+00  0.8000E+01
     -3.388  0.0000E+00  0.8000E+01
     -3.316  0.0000E+00  0.8000E+01
     -3.244  0.0000E+00  0.8000E+01
     -3.172  0.0000E+00  0.8000E+01
     -3.100  0.0000E+00  0.8000E+01
     -3.028  0.0000E+00  0.8000E+01
     -2.956  0.0000E+00  0.8000E+01
     -2.884  0.0000E+00  0.8000E+01
     -2.812  0.0000E+00  0.8000E+01
     -2.741  0.0000E+00  0.8000E+01
     -2.669  0.0000E+00  0.8000E+01
     -2.597  0.0000E+00  0.8000E+01
     -2.525  0.0000E+00  0.8000E+01
     -2.453  0.0000E+00  0.8000E+01
     -2.381  0.0000E+00  0.8000E+01
     -2.309  0.0000E+00  0.8000E+01
     -2.237  0.0000E+00  0.8000E+01
     -2.165  0.0000E+00  0.8000E+01
     -2.093  0.0000E+00  0.8000E+01
     -2.021  0.0000E+00  0.8000E+01
     -1.949 -0.8084E-27  0.8000E+01
     -1.877 -0.2393E-24  0.8000E+01
     -1.805 -0.5472E-22  0.8000E+01
     -1.733 -0.9633E-20  0.8000E+01
     -1.661 -0.1305E-17  0.8000E+01
     -1.589 -0.1361E-15  0.8000E+01
     -1.517 -0.1091E-13  0.8000E+01
     -1.445 -0.6508E-12  0.8000E+01
     -1.374 -0.3067E-10  0.8000E+01
     -1.302 -0.1107E-08  0.8000E+01
     -1.230 -0.3058E-07  0.8000E+01
     -1.158 -0.6451E-06  0.8000E+01
     -1.086 -0.1036E-04  0.8000E+01
     -1.014 -0.1262E-03  0.8000E+01
     -0.942 -0.1159E-02  0.8000E+01
     -0.870 -0.7951E-02  0.7999E+01
     -0.798 -0.4009E-01  0.7996E+01
     -0.726 -0.1441E+00  0.7986E+01
     -0.654 -0.3435E+00  0.7961E+01
     -0.582 -0.4126E+00  0.7932E+01
     -0.510  0.3703E+00  0.7958E+01
     -0.438  0.2762E+01  0.8157E+01
     -0.366  0.6170E+01  0.8601E+01
     -0.294  0.8257E+01  0.9195E+01
     -0.222  0.7199E+01  0.9713E+01
     -0.150  0.3949E+01  0.9997E+01
     -0.078  0.1021E+01  0.1007E+02
     -0.007 -0.2854E+00  0.1005E+02
      0.065 -0.4273E+00  0.1002E+02
      0.137 -0.2907E+00  0.9998E+01
      0.209 -0.3469E+00  0.9973E+01
      0.281 -0.6601E+00  0.9926E+01
      0.353 -0.8242E+00  0.9867E+01
      0.425  0.3449E+00  0.9891E+01
      0.497  0.4414E+01  0.1021E+02
      0.569  0.1157E+02  0.1104E+02
      0.641  0.1893E+02  0.1240E+02
      0.713  0.2178E+02  0.1397E+02
      0.785  0.1782E+02  0.1525E+02
      0.857  0.9807E+01  0.1596E+02
      0.929  0.2834E+01  0.1616E+02
      1.001 -0.4724E+00  0.1613E+02
      1.073 -0.9751E+00  0.1606E+02
      1.145 -0.5492E+00  0.1602E+02
      1.217 -0.1917E+00  0.1600E+02
      1.289 -0.4683E-01  0.1600E+02
      1.360 -0.8355E-02  0.1600E+02
      1.432 -0.1111E-02  0.1600E+02
      1.504 -0.1113E-03  0.1600E+02
      1.576 -0.8457E-05  0.1600E+02
      1.648 -0.4899E-06  0.1600E+02
      1.720 -0.2169E-07  0.1600E+02
      1.792 -0.7357E-09  0.1600E+02
      1.864 -0.1915E-10  0.1600E+02
      1.936 -0.3858E-12  0.1600E+02
      2.008 -0.6172E-14  0.1600E+02
      2.080  0.0000E+00  0.1600E+02
      2.152  0.0000E+00  0.1600E+02
      2.224  0.0000E+00  0.1600E+02
      2.296  0.0000E+00  0.1600E+02
      2.368  0.0000E+00  0.1600E+02
      2.440  0.0000E+00  0.1600E+02
      2.512  0.0000E+00  0.1600E+02
      2.584  0.0000E+00  0.1600E+02
      2.655  0.0000E+00  0.1600E+02
      2.727  0.0000E+00  0.1600E+02
      2.72552121    -18.79791705  301     -8.68396299      1.00000000
    -18.798  0.0000E+00  0.0000E+00
    -18.726  0.0000E+00  0.0000E+00
    -18.654  0.0000E+00  0.0000E+00
    -18.583  0.0000E+00  0.0000E+00
    -18.511  0.0000E+00  0.0000E+00
    -18.439 -0.3642E-27 -0.2613E-28
    -18.367 -0.1100E-24 -0.7922E-26
    -18.296 -0.2572E-22 -0.1853E-23
    -18.224 -0.4634E-20 -0.3343E-21
    -18.152 -0.6436E-18 -0.4651E-19
    -18.080 -0.6888E-16 -0.4988E-17
    -18.009 -0.5677E-14 -0.4123E-15
    -17.937 -0.3493E-12 -0.2548E-13
    -17.865 -0.1697E-10 -0.1243E-11
    -17.793 -0.6329E-09 -0.4665E-10
    -17.722 -0.1810E-07 -0.1345E-08
    -17.650 -0.3959E-06 -0.2975E-07
    -17.578 -0.6607E-05 -0.5038E-06
    -17.507 -0.8383E-04 -0.6518E-05
    -17.435 -0.8039E-03 -0.6420E-04
    -17.363 -0.5779E-02 -0.4788E-03
    -17.291 -0.3070E-01 -0.2681E-02
    -17.220 -0.1173E+00 -0.1110E-01
    -17.148 -0.3038E+00 -0.3289E-01
    -17.076 -0.4365E+00 -0.6421E-01
    -17.004  0.1105E+00 -0.5628E-01
    -16.933  0.2172E+01  0.9957E-01
    -16.861  0.5520E+01  0.4956E+00
    -16.789  0.8070E+01  0.1075E+01
    -16.717  0.7663E+01  0.1624E+01
    -16.646  0.4666E+01  0.1959E+01
    -16.574  0.1505E+01  0.2067E+01
    -16.502 -0.1380E+00  0.2057E+01
    -16.430 -0.4336E+00  0.2026E+01
    -16.359 -0.2507E+00  0.2008E+01
    -16.287 -0.8717E-01  0.2002E+01
    -16.215 -0.2096E-01  0.2000E+01
    -16.143 -0.3656E-02  0.2000E+01
    -16.072 -0.4733E-03  0.2000E+01
    -16.000 -0.4604E-04  0.2000E+01
    -15.928 -0.3391E-05  0.2000E+01
    -15.856 -0.1900E-06  0.2000E+01
    -15.785 -0.8131E-08  0.2000E+01
    -15.713 -0.2663E-09  0.2000E+01
    -15.641 -0.6691E-11  0.2000E+01
    -15.569 -0.1300E-12  0.2000E+01
    -15.498  0.0000E+00  0.2000E+01
    -15.426  0.0000E+00  0.2000E+01
    -15.354  0.0000E+00  0.2000E+01
    -15.282  0.0000E+00  0.2000E+01
    -15.211  0.0000E+00  0.2000E+01
    -15.139  0.0000E+00  0.2000E+01
    -15.067  0.0000E+00  0.2000E+01
    -14.995  0.0000E+00  0.2000E+01
    -14.924  0.0000E+00  0.2000E+01
    -14.852  0.0000E+00  0.2000E+01
    -14.780  0.0000E+00  0.2000E+01
    -14.708  0.0000E+00  0.2000E+01
    -14.637  0.0000E+00  0.2000E+01
    -14.565  0.0000E+00  0.2000E+01
    -14.493  0.0000E+00  0.2000E+01
    -14.421  0.0000E+00  0.2000E+01
    -14.350  0.0000E+00  0.2000E+01
    -14.278  0.0000E+00  0.2000E+01
    -14.206  0.0000E+00  0.2000E+01
    -14.135  0.0000E+00  0.2000E+01
    -14.063  0.0000E+00  0.2000E+01
    -13.991  0.0000E+00  0.2000E+01
    -13.919  0.0000E+00  0.2000E+01
    -13.848  0.0000E+00  0.2000E+01
    -13.776  0.0000E+00  0.2000E+01
    -13.704  0.0000E+00  0.2000E+01
    -13.632  0.0000E+00  0.2000E+01
    -13.561  0.0000E+00  0.2000E+01
    -13.489  0.0000E+00  0.2000E+01
    -13.417  0.0000E+00  0.2000E+01
    -13.345  0.0000E+00  0.2000E+01
    -13.274  0.0000E+00  0.2000E+01
    -13.202  0.0000E+00  0.2000E+01
    -13.130  0.0000E+00  0.2000E+01
    -13.058  0.0000E+00  0.2000E+01
    -12.987  0.0000E+00  0.2000E+01
    -12.915  0.0000E+00  0.2000E+01
    -12.843  0.0000E+00  0.2000E+01
    -12.771  0.0000E+00  0.2000E+01
    -12.700  0.0000E+00  0.2000E+01
    -12.628  0.0000E+00  0.2000E+01
    -12.556  0.0000E+00  0.2000E+01
    -12.484  0.0000E+00  0.2000E+01
    -12.413  0.0000E+00  0.2000E+01
    -12.341  0.0000E+00  0.2000E+01
    -12.269  0.0000E+00  0.2000E+01
    -12.197  0.0000E+00  0.2000E+01
    -12.126  0.0000E+00  0.2000E+01
    -12.054  0.0000E+00  0.2000E+01
    -11.982  0.0000E+00  0.2000E+01
    -11.910  0.0000E+00  0.2000E+01
    -11.839  0.0000E+00  0.2000E+01
    -11.767  0.0000E+00  0.2000E+01
    -11.695  0.0000E+00  0.2000E+01
    -11.623  0.0000E+00  0.2000E+01
    -11.552  0.0000E+00  0.2000E+01
    -11.480  0.0000E+00  0.2000E+01
    -11.408  0.0000E+00  0.2000E+01
    -11.336  0.0000E+00  0.2000E+01
    -11.265  0.0000E+00  0.2000E+01
    -11.193  0.0000E+00  0.2000E+01
    -11.121  0.0000E+00  0.2000E+01
    -11.049 -0.4419E-26  0.2000E+01
    -10.978 -0.1196E-23  0.2000E+01
    -10.906 -0.2505E-21  0.2000E+01
    -10.834 -0.4047E-19  0.2000E+01
    -10.763 -0.5043E-17  0.2000E+01
    -10.691 -0.4844E-15  0.2000E+01
    -10.619 -0.3432E-13  0.2000E+01
    -10.547 -0.1981E-11  0.2000E+01
    -10.476 -0.8663E-10  0.2000E+01
    -10.404 -0.2912E-08  0.2000E+01
    -10.332 -0.7518E-07  0.2000E+01
    -10.260 -0.1488E-05  0.2000E+01
    -10.189 -0.2252E-04  0.2000E+01
    -10.117 -0.2599E-03  0.2000E+01
    -10.045 -0.2275E-02  0.2000E+01
     -9.973 -0.1497E-01  0.1999E+01
     -9.902 -0.7306E-01  0.1994E+01
     -9.830 -0.2569E+00  0.1975E+01
     -9.758 -0.6081E+00  0.1931E+01
     -9.686 -0.7549E+00  0.1877E+01
     -9.615  0.5260E+00  0.1915E+01
     -9.543  0.4653E+01  0.2249E+01
     -9.471  0.1096E+02  0.3035E+01
     -9.399  0.1559E+02  0.4154E+01
     -9.328  0.1476E+02  0.5213E+01
     -9.256  0.9098E+01  0.5865E+01
     -9.184  0.2901E+01  0.6074E+01
     -9.112 -0.4458E+00  0.6042E+01
     -9.041 -0.3226E+00  0.6018E+01
     -8.969  0.2443E+01  0.6194E+01
     -8.897  0.6157E+01  0.6636E+01
     -8.825  0.8237E+01  0.7227E+01
     -8.754  0.7060E+01  0.7733E+01
     -8.682  0.3783E+01  0.8004E+01
     -8.610  0.9257E+00  0.8071E+01
     -8.538 -0.3054E+00  0.8049E+01
     -8.467 -0.4032E+00  0.8020E+01
     -8.395 -0.1998E+00  0.8006E+01
     -8.323 -0.6281E-01  0.8001E+01
     -8.251 -0.1388E-01  0.8000E+01
     -8.180 -0.2243E-02  0.8000E+01
     -8.108 -0.2698E-03  0.8000E+01
     -8.036 -0.2445E-04  0.8000E+01
     -7.964 -0.1680E-05  0.8000E+01
     -7.893 -0.8793E-07  0.8000E+01
     -7.821 -0.3516E-08  0.8000E+01
     -7.749 -0.1077E-09  0.8000E+01
     -7.677 -0.2525E-11  0.8000E+01
     -7.606 -0.4952E-13  0.8000E+01
     -7.534  0.0000E+00  0.8000E+01
     -7.462  0.0000E+00  0.8000E+01
     -7.390  0.0000E+00  0.8000E+01
     -7.319  0.0000E+00  0.8000E+01
     -7.247  0.0000E+00  0.8000E+01
     -7.175  0.0000E+00  0.8000E+01
     -7.104  0.0000E+00  0.8000E+01
     -7.032  0.0000E+00  0.8000E+01
     -6.960  0.0000E+00  0.8000E+01
     -6.888  0.0000E+00  0.8000E+01
     -6.817  0.0000E+00  0.8000E+01
     -6.745  0.0000E+00  0.8000E+01
     -6.673  0.0000E+00  0.8000E+01
     -6.601  0.0000E+00  0.8000E+01
     -6.530  0.0000E+00  0.8000E+01
     -6.458  0.0000E+00  0.8000E+01
     -6.386  0.0000E+00  0.8000E+01
     -6.314  0.0000E+00  0.8000E+01
     -6.243  0.0000E+00  0.8000E+01
     -6.171  0.0000E+00  0.8000E+01
     -6.099  0.0000E+00  0.8000E+01
     -6.027  0.0000E+00  0.8000E+01
     -5.956  0.0000E+00  0.8000E+01
     -5.884  0.0000E+00  0.8000E+01
     -5.812  0.0000E+00  0.8000E+01
     -5.740  0.0000E+00  0.8000E+01
     -5.669  0.0000E+00  0.8000E+01
     -5.597  0.0000E+00  0.8000E+01
     -5.525  0.0000E+00  0.8000E+01
     -5.453  0.0000E+00  0.8000E+01
     -5.382  0.0000E+00  0.8000E+01
     -5.310  0.0000E+00  0.8000E+01
     -5.238  0.0000E+00  0.8000E+01
     -5.166  0.0000E+00  0.8000E+01
     -5.095  0.0000E+00  0.8000E+01
     -5.023  0.0000E+00  0.8000E+01
     -4.951  0.0000E+00  0.8000E+01
     -4.879  0.0000E+00  0.8000E+01
     -4.808  0.0000E+00  0.8000E+01
     -4.736  0.0000E+00  0.8000E+01
     -4.664  0.0000E+00  0.8000E+01
     -4.592  0.0000E+00  0.8000E+01
     -4.521  0.0000E+00  0.8000E+01
     -4.449  0.0000E+00  0.8000E+01
     -4.377  0.0000E+00  0.8000E+01
     -4.305  0.0000E+00  0.8000E+01
     -4.234  0.0000E+00  0.8000E+01
     -4.162  0.0000E+00  0.8000E+01
     -4.090  0.0000E+00  0.8000E+01
     -4.018  0.0000E+00  0.8000E+01
     -3.947  0.0000E+00  0.8000E+01
     -3.875  0.0000E+00  0.8000E+01
     -3.803  0.0000E+00  0.8000E+01
     -3.732  0.0000E+00  0.8000E+01
     -3.660  0.0000E+00  0.8000E+01
     -3.588  0.0000E+00  0.8000E+01
     -3.516  0.0000E+00  0.8000E+01
     -3.445  0.0000E+00  0.8000E+01
     -3.373  0.0000E+00  0.8000E+01
     -3.301  0.0000E+00  0.8000E+01
     -3.229  0.0000E+00  0.8000E+01
     -3.158  0.0000E+00  0.8000E+01
     -3.086  0.0000E+00  0.8000E+01