    5    5    1    1
  0.1884117E+03  0.9760901E-09  0.9707261E-09  0.9943383E-09  0.2000000E-14
   50.000000000000000     
  CAR 
 unknown system                          
      8      4      8

  0.2500000E+00  0.2500000E+00  0.2500000E+00  0.2500000E+00
    1      -16.882042   1.000000
    2       -9.508114   1.000000
    3       -9.296739   1.000079
    4       -8.859294   0.999991
    5       -0.299048   0.000000
    6        0.596844   0.000000
    7        0.709308   0.000000
    8        0.736172   0.000000

 -0.2500000E+00  0.2500000E+00  0.2500000E+00  0.2500000E+00
    1      -16.881905   1.000000
    2       -9.508232   1.000000
    3       -9.296442   1.000080
    4       -8.859217   0.999906
    5       -0.297943   0.000000
    6        0.586791   0.000000
    7        0.699994   0.000000
    8        0.742631   0.000000

  0.2500000E+00 -0.2500000E+00  0.2500000E+00  0.2500000E+00
    1      -16.882049   1.000000
    2       -9.508132   1.000000
    3       -9.296842   1.000079
    4       -8.859265   0.999960
    5       -0.299372   0.000000
    6        0.599249   0.000000
    7        0.692824   0.000000
    8        0.744059   0.000000

 -0.2500000E+00 -0.2500000E+00  0.2500000E+00  0.2500000E+00
    1      -16.881953   1.000000
    2       -9.508158   1.000000
    3       -9.296784   1.000079
    4       -8.859144   0.999826
    5       -0.295858   0.000000
    6        0.605069   0.000000
    7        0.692305   0.000000
    8        0.717311   0.000000
