 vasp.5.4.4.18Apr17-6-g9f103f2a35 (build Jul 12 2018 13:43:46) complex           
 executed on             LinuxGNU date 2019.06.22  02:17:35
 running on    1 total cores
 distrk:  each k-point on    1 cores,    1 groups
 distr:  one band on NCORES_PER_BAND=   1 cores,    1 groups


--------------------------------------------------------------------------------------------------------


 INCAR:
 POTCAR:    PAW_PBE H 15Jun2001                   
 POTCAR:    PAW_PBE C 08Apr2002                   
 POTCAR:    PAW_PBE H 15Jun2001                   
   VRHFIN =H: ultrasoft test                                                    
   LEXCH  = PE                                                                  
   EATOM  =    12.4884 eV,    0.9179 Ry                                         
                                                                                
   TITEL  = PAW_PBE H 15Jun2001                                                 
   LULTRA =        F    use ultrasoft PP ?                                      
   IUNSCR =        0    unscreen: 0-lin 1-nonlin 2-no                           
   RPACOR =    0.000    partial core radius                                     
   POMASS =    1.000; ZVAL   =    1.000    mass and valenz                      
   RCORE  =    1.100    outmost cutoff radius                                   
   RWIGS  =    0.700; RWIGS  =    0.370    wigner-seitz radius (au A)           
   ENMAX  =  250.000; ENMIN  =  200.000 eV                                      
   RCLOC  =    0.701    cutoff for local pot                                    
   LCOR   =        T    correct aug charges                                     
   LPAW   =        T    paw PP                                                  
   EAUG   =  400.000                                                            
   RMAX   =    1.123    core radius for proj-oper                               
   RAUG   =    1.200    factor for augmentation sphere                          
   RDEP   =    1.112    radius for radial grids                                 
   RDEPT  =    0.926    core radius for aug-charge                              
                                                                                
   Atomic configuration                                                         
    2 entries                                                                   
     n  l   j            E        occ.                                          
     1  0  0.50        -6.4927   1.0000                                         
     2  1  0.50        -3.4015   0.0000                                         
   Description                                                                  
     l       E           TYP  RCUT    TYP  RCUT                                 
     0     -6.4927494     23  1.100                                             
     0      6.8029130     23  1.100                                             
     1     -4.0817478     23  1.100                                             
  local pseudopotential read in
  atomic valenz-charges read in
  non local Contribution for L=           0  read in
    real space projection operators read in
  non local Contribution for L=           0  read in
    real space projection operators read in
  non local Contribution for L=           1  read in
    real space projection operators read in
    PAW grid and wavefunctions read in

   number of l-projection  operators is LMAX  =           3
   number of lm-projection operators is LMMAX =           5

 POTCAR:    PAW_PBE C 08Apr2002                   
   VRHFIN =C: s2p2                                                              
   LEXCH  = PE                                                                  
   EATOM  =   147.1560 eV,   10.8157 Ry                                         
                                                                                
   TITEL  = PAW_PBE C 08Apr2002                                                 
   LULTRA =        F    use ultrasoft PP ?                                      
   IUNSCR =        1    unscreen: 0-lin 1-nonlin 2-no                           
   RPACOR =    1.200    partial core radius                                     
   POMASS =   12.011; ZVAL   =    4.000    mass and valenz                      
   RCORE  =    1.500    outmost cutoff radius                                   
   RWIGS  =    1.630; RWIGS  =    0.863    wigner-seitz radius (au A)           
   ENMAX  =  400.000; ENMIN  =  300.000 eV                                      
   ICORE  =        2    local potential                                         
   LCOR   =        T    correct aug charges                                     
   LPAW   =        T    paw PP                                                  
   EAUG   =  644.873                                                            
   DEXC   =    0.000                                                            
   RMAX   =    1.529    core radius for proj-oper                               
   RAUG   =    1.300    factor for augmentation sphere                          
   RDEP   =    1.501    radius for radial grids                                 
   RDEPT  =    1.300    core radius for aug-charge                              
                                                                                
   Atomic configuration                                                         
    4 entries                                                                   
     n  l   j            E        occ.                                          
     1  0  0.50      -273.3789   2.0000                                         
     2  0  0.50       -13.7508   2.0000                                         
     2  1  0.50        -5.2854   2.0000                                         
     3  2  1.50        -5.4423   0.0000                                         
   Description                                                                  
     l       E           TYP  RCUT    TYP  RCUT                                 
     0    -13.7508458     23  1.200                                             
     0     -8.2022199     23  1.200                                             
     1     -5.2854383     23  1.500                                             
     1     34.0145650     23  1.500                                             
     2     -5.4423304      7  1.500                                             
  local pseudopotential read in
  partial core-charges read in
  partial kinetic energy density read in
  atomic valenz-charges read in
  non local Contribution for L=           0  read in
    real space projection operators read in
  non local Contribution for L=           0  read in
    real space projection operators read in
  non local Contribution for L=           1  read in
    real space projection operators read in
  non local Contribution for L=           1  read in
    real space projection operators read in
    PAW grid and wavefunctions read in

   number of l-projection  operators is LMAX  =           4
   number of lm-projection operators is LMMAX =           8


 ----------------------------------------------------------------------------- 
|                                                                             |
|  ADVICE TO THIS USER RUNNING 'VASP/VAMP'   (HEAR YOUR MASTER'S VOICE ...):  |
|                                                                             |
|      You have a (more or less) 'small supercell' and for smaller cells      |
|      it is recommended  to use the reciprocal-space projection scheme!      |
|      The real space optimization is not  efficient for small cells and it   |
|      is also less accurate ...                                              |
|      Therefore set LREAL=.FALSE. in the  INCAR file                         |
|                                                                             |
 ----------------------------------------------------------------------------- 


 ----------------------------------------------------------------------------- 
|                                                                             |
|           W    W    AA    RRRRR   N    N  II  N    N   GGGG   !!!           |
|           W    W   A  A   R    R  NN   N  II  NN   N  G    G  !!!           |
|           W    W  A    A  R    R  N N  N  II  N N  N  G       !!!           |
|           W WW W  AAAAAA  RRRRR   N  N N  II  N  N N  G  GGG   !            |
|           WW  WW  A    A  R   R   N   NN  II  N   NN  G    G                |
|           W    W  A    A  R    R  N    N  II  N    N   GGGG   !!!           |
|                                                                             |
|     The real-space-projection scheme for the treatment of the nonlocal      |
|     pseudopotentials has been switched on -- but on file POTCAR I have      |
|     not found any entries signalling me that you have ever performed a      |
|     real-space optimization of all nonlocal projectors! BE WARNED that      |
|     a calculation using the real-space-projection scheme together with      |
|     nonlocal projectors which were not real-space-optimized (according      |
|     to the plane-wave-cutoff used in this calculation) might give more      |
|     or less inaccurate results                                              |
|     I hope you know what you are doing                                      |
|                                                                             |
 ----------------------------------------------------------------------------- 

  PAW_PBE H 15Jun2001                   :
 energy of atom  1       EATOM=  -12.4884
 kinetic energy error for atom=    0.0098 (will be added to EATOM!!)
  PAW_PBE C 08Apr2002                   :
 energy of atom  2       EATOM= -147.1560
 kinetic energy error for atom=    0.0288 (will be added to EATOM!!)


 POSCAR:  H  C                                   
  positions in cartesian coordinates
  No initial velocities read in
 exchange correlation table for  LEXCH =        8
   RHO(1)=    0.500       N(1)  =     2000
   RHO(2)=  100.500       N(2)  =     4000



--------------------------------------------------------------------------------------------------------


 ion  position               nearest neighbor table
   1  0.538  0.407  0.361-   5 1.08
   2  0.394  0.481  0.438-   5 1.08
   3  0.552  0.565  0.443-   5 1.06
   4  0.528  0.417  0.539-   5 1.08
   5  0.503  0.467  0.445-   3 1.06   2 1.08   1 1.08   4 1.08


IMPORTANT INFORMATION: All symmetrisations will be switched off!
NOSYMM: (Re-)initialisation of all symmetry stuff for point group C_1.




Automatic generation of k-mesh.
 generate k-points for:    2    2    2
Space group operators:
 irot       det(A)        alpha          n_x          n_y          n_z        tau_x        tau_y        tau_z
    1     1.000000     0.000001     1.000000     0.000000     0.000000     0.000000     0.000000     0.000000
 
 Subroutine IBZKPT returns following result:
 ===========================================
 
 Found      4 irreducible k-points:
 
 Following reciprocal coordinates:
            Coordinates               Weight
  0.250000  0.250000  0.250000      2.000000
 -0.250000  0.250000  0.250000      2.000000
  0.250000 -0.250000  0.250000      2.000000
 -0.250000 -0.250000  0.250000      2.000000
 
 Following cartesian coordinates:
            Coordinates               Weight
  0.025612  0.025935  0.024763      2.000000
 -0.025612  0.025574  0.025366      2.000000
  0.025612 -0.025574  0.024922      2.000000
 -0.025612 -0.025935  0.025525      2.000000
 


--------------------------------------------------------------------------------------------------------




 Dimension of arrays:
   k-points           NKPTS =      4   k-points in BZ     NKDIM =      4   number of bands    NBANDS=      8
   number of dos      NEDOS =    301   number of ions     NIONS =      5
   non local maximal  LDIM  =      4   non local SUM 2l+1 LMDIM =      8
   total plane-waves  NPLWV = 286720
   max r-space proj   IRMAX =    725   max aug-charges    IRDMAX=   3791
   dimension x,y,z NGX =    64 NGY =   64 NGZ =   70
   dimension x,y,z NGXF=   128 NGYF=  128 NGZF=  140
   support grid    NGXF=   128 NGYF=  128 NGZF=  140
   ions per type =               4   1
   NGX,Y,Z   is equivalent  to a cutoff of  10.90, 10.96, 11.70 a.u.
   NGXF,Y,Z  is equivalent  to a cutoff of  21.80, 21.92, 23.41 a.u.

 SYSTEM =  unknown system                          
 POSCAR =   H  C                                   

 Startparameter for this run:
   NWRITE =      2    write-flag & timer
   PREC   = a         normal or accurate (medium, high low for compatibility)
   ISTART =      0    job   : 0-new  1-cont  2-samecut
   ICHARG =      2    charge: 1-file 2-atom 10-const
   ISPIN  =      1    spin polarized calculation?
   LNONCOLLINEAR =      F non collinear calculations
   LSORBIT =      F    spin-orbit coupling
   INIWAV =      1    electr: 0-lowe 1-rand  2-diag
   LASPH  =      F    aspherical Exc in radial PAW
   METAGGA=      F    non-selfconsistent MetaGGA calc.

 Electronic Relaxation 1
   ENCUT  =  400.0 eV  29.40 Ry    5.42 a.u.  15.92 15.83 16.22*2*pi/ulx,y,z
   ENINI  =  400.0     initial cutoff
   ENAUG  =  644.9 eV  augmentation charge cutoff
   NELM   =     60;   NELMIN=  2; NELMDL= -5     # of ELM steps 
   EDIFF  = 0.1E-05   stopping-criterion for ELM
   LREAL  =      T    real-space projection
   NLSPLINE    = F    spline interpolate recip. space projectors
   LCOMPAT=      F    compatible to vasp.4.4
   GGA_COMPAT  = T    GGA compatible to vasp.4.4-vasp.4.6
   LMAXPAW     = -100 max onsite density
   LMAXMIX     =    2 max onsite mixed and CHGCAR
   VOSKOWN=      0    Vosko Wilk Nusair interpolation
   ROPT   =    0.00000   0.00000
 Ionic relaxation
   EDIFFG = 0.1E-04   stopping-criterion for IOM
   NSW    =     10    number of steps for IOM
   NBLOCK =      1;   KBLOCK =      1    inner block; outer block 
   IBRION =      0    ionic relax: 0-MD 1-quasi-New 2-CG
   NFREE  =      0    steps in history (QN), initial steepest desc. (CG)
   ISIF   =      2    stress and relaxation
   IWAVPR =     12    prediction:  0-non 1-charg 2-wave 3-comb
   ISYM   =      0    0-nonsym 1-usesym 2-fastsym
   LCORR  =      T    Harris-Foulkes like correction to forces

   POTIM  = 2.0000    time-step for ionic-motion
   TEIN   =   50.0    initial temperature
   TEBEG  =   50.0;   TEEND  =  50.0 temperature during run
   SMASS  =   0.00    Nose mass-parameter (am)
   estimated Nose-frequenzy (Omega)   =  0.79E+14 period in steps = 40.00 mass=   0.123E-29a.u.
   SCALEE = 1.0000    scale energy and forces
   NPACO  =    256;   APACO  = 16.0  distance and # of slots for P.C.
   PSTRESS=    0.0 pullay stress

  Mass of Ions in am
   POMASS =   1.00 12.01
  Ionic Valenz
   ZVAL   =   1.00  4.00
  Atomic Wigner-Seitz radii
   RWIGS  =  -1.00 -1.00
  virtual crystal weights 
   VCA    =   1.00  1.00
   NELECT =       8.0000    total number of electrons
   NUPDOWN=      -1.0000    fix difference up-down

 DOS related values:
   EMIN   =  10.00;   EMAX   =-10.00  energy-range for DOS
   EFERMI =   0.00
   ISMEAR =     1;   SIGMA  =   0.20  broadening in eV -4-tet -1-fermi 0-gaus

 Electronic relaxation 2 (details)
   IALGO  =     68    algorithm
   LDIAG  =      T    sub-space diagonalisation (order eigenvalues)
   LSUBROT=      F    optimize rotation matrix (better conditioning)
   TURBO    =      0    0=normal 1=particle mesh
   IRESTART =      0    0=no restart 2=restart with 2 vectors
   NREBOOT  =      0    no. of reboots
   NMIN     =      0    reboot dimension
   EREF     =   0.00    reference energy to select bands
   IMIX   =      4    mixing-type and parameters
     AMIX     =   0.40;   BMIX     =  1.00
     AMIX_MAG =   1.60;   BMIX_MAG =  1.00
     AMIN     =   0.10
     WC   =   100.;   INIMIX=   1;  MIXPRE=   1;  MAXMIX=  50

 Intra band minimization:
   WEIMIN = 0.0010     energy-eigenvalue tresh-hold
   EBREAK =  0.31E-07  absolut break condition
   DEPER  =   0.30     relativ break condition  

   TIME   =   0.40     timestep for ELM

  volume/ion in A,a.u.               =     188.41      1271.46
  Fermi-wavevector in a.u.,A,eV,Ry     =   0.333999  0.631167  1.517805  0.111556
  Thomas-Fermi vector in A             =   1.232329

 Write flags
   LWAVE        =      F    write WAVECAR
   LDOWNSAMPLE  =      F    k-point downsampling of WAVECAR
   LCHARG       =      F    write CHGCAR
   LVTOT        =      F    write LOCPOT, total local potential
   LVHAR        =      F    write LOCPOT, Hartree potential only
   LELF         =      F    write electronic localiz. function (ELF)
   LORBIT       =      0    0 simple, 1 ext, 2 COOP (PROOUT), +10 PAW based schemes


 Dipole corrections
   LMONO  =      F    monopole corrections only (constant potential shift)
   LDIPOL =      F    correct potential (dipole corrections)
   IDIPOL =      0    1-x, 2-y, 3-z, 4-all directions 
   EPSILON=  1.0000000 bulk dielectric constant

 Exchange correlation treatment:
   GGA     =    --    GGA type
   LEXCH   =     8    internal setting for exchange type
   VOSKOWN=      0    Vosko Wilk Nusair interpolation
   LHFCALC =     F    Hartree Fock is set to
   LHFONE  =     F    Hartree Fock one center treatment
   AEXX    =    0.0000 exact exchange contribution

 Linear response parameters
   LEPSILON=     F    determine dielectric tensor
   LRPA    =     F    only Hartree local field effects (RPA)
   LNABLA  =     F    use nabla operator in PAW spheres
   LVEL    =     F    velocity operator in full k-point grid
   LINTERFAST=   F  fast interpolation
   KINTER  =     0    interpolate to denser k-point grid
   CSHIFT  =0.1000    complex shift for real part using Kramers Kronig
   OMEGAMAX=  -1.0    maximum frequency
   DEG_THRESHOLD= 0.2000000E-02 threshold for treating states as degnerate
   RTIME   =   -0.100 relaxation time in fs
  (WPLASMAI=    0.000 imaginary part of plasma frequency in eV, 0.658/RTIME)
   DFIELD  = 0.0000000 0.0000000 0.0000000 field for delta impulse in time

 Orbital magnetization related:
   ORBITALMAG=     F  switch on orbital magnetization
   LCHIMAG   =     F  perturbation theory with respect to B field
   DQ        =  0.001000  dq finite difference perturbation B field
   LLRAUG    =     F  two centre corrections for induced B field



--------------------------------------------------------------------------------------------------------


 molecular dynamics for ions
   using nose mass (canonical ensemble)
 charge density and potential will be updated during run
 non-spin polarized calculation
 RMM-DIIS sequential band-by-band and
  variant of blocked Davidson during initial phase
 perform sub-space diagonalisation
    before iterative eigenvector-optimisation
 modified Broyden-mixing scheme, WC =      100.0
 initial mixing is a Kerker type mixing with AMIX =  0.4000 and BMIX =      1.0000
 Hartree-type preconditioning will be used
 using additional bands            4
 real space projection scheme for non local part
 use partial core corrections
 calculate Harris-corrections to forces   (improved forces if not selfconsistent)
 use gradient corrections 
 use of overlap-Matrix (Vanderbilt PP)
 Methfessel and Paxton  Order N= 1 SIGMA  =   0.20


--------------------------------------------------------------------------------------------------------


  energy-cutoff  :      400.00
  volume of cell :      942.06
      direct lattice vectors                 reciprocal lattice vectors
     9.760901056  0.000000000  0.000000000     0.102449558  0.000723728 -0.001206857
    -0.068572643  9.707019237  0.000000000     0.000000000  0.103018236 -0.000317805
     0.116907829  0.030672446  9.942648091     0.000000000 -0.000000000  0.100576827

  length of vectors
     9.760901056  9.707261441  9.943382689     0.102459222  0.103018726  0.100576827



 k-points in units of 2pi/SCALE and weight: read from INCAR                         
   0.02561239  0.02593549  0.02476304       0.250
  -0.02561239  0.02557363  0.02536647       0.250
   0.02561239 -0.02557363  0.02492194       0.250
  -0.02561239 -0.02593549  0.02552537       0.250

 k-points in reciprocal lattice and weights: read from INCAR                         
   0.25000000  0.25000000  0.25000000       0.250
  -0.25000000  0.25000000  0.25000000       0.250
   0.25000000 -0.25000000  0.25000000       0.250
  -0.25000000 -0.25000000  0.25000000       0.250

 position of ions in fractional coordinates (direct lattice) 
   0.53837254  0.40666918  0.36061641
   0.39406367  0.48073386  0.43820434
   0.55200065  0.56537167  0.44279530
   0.52808773  0.41658769  0.53908612
   0.50324357  0.46730510  0.44530670

 position of ions in cartesian coordinates  (Angst):
   5.26927361  3.95860656  3.58548208
   3.86468085  4.67993364  4.35691149
   5.40102089  5.50165527  4.40255787
   5.18906890  4.06035982  5.35994357
   4.93212621  4.54979821  4.42752780



--------------------------------------------------------------------------------------------------------


 k-point  1 :   0.2500 0.2500 0.2500  plane waves:   17117
 k-point  2 :  -0.2500 0.2500 0.2500  plane waves:   17096
 k-point  3 :   0.2500-0.2500 0.2500  plane waves:   17119
 k-point  4 :  -0.2500-0.2500 0.2500  plane waves:   17106

 maximum and minimum number of plane-waves per node :     17119    17096

 maximum number of plane-waves:     17119
 maximum index in each direction: 
   IXMAX=   16   IYMAX=   16   IZMAX=   15
   IXMIN=  -16   IYMIN=  -16   IZMIN=  -16


 serial   3D FFT for wavefunctions
 parallel 3D FFT for charge:
    minimum data exchange during FFTs selected (reduces bandwidth)


 total amount of memory used by VASP MPI-rank0   259402. kBytes
=======================================================================

   base      :      30000. kBytes
   nonlr-proj:        149. kBytes
   fftplans  :      79164. kBytes
   grid      :     141295. kBytes
   one-center:         15. kBytes
   wavefun   :       8779. kBytes

     INWAV:  cpu time    0.0000: real time    0.0000
 Broyden mixing: mesh for mixing (old mesh)
   NGX = 31   NGY = 31   NGZ = 33
  (NGX  =128   NGY  =128   NGZ  =140)
  gives a total of  31713 points

 initial charge density was supplied:
 charge density of overlapping atoms calculated
 number of electron       8.0000000 magnetization 
 keeping initial charge density in first step


--------------------------------------------------------------------------------------------------------


 Maximum index for non-local projection operator          660
 Maximum index for augmentation-charges         3495 (set IRDMAX)


--------------------------------------------------------------------------------------------------------


 First call to EWALD:  gamma=   0.181
 Maximum number of real-space cells 3x 3x 3
 Maximum number of reciprocal cells 3x 3x 3

    FEWALD:  cpu time    0.0007: real time    0.0007


--------------------------------------- Iteration      1(   1)  ---------------------------------------


    POTLOK:  cpu time    1.5669: real time    1.5708
    SETDIJ:  cpu time    0.0066: real time    0.0066
     EDDAV:  cpu time    2.7909: real time    2.7976
       DOS:  cpu time    0.0003: real time    0.0003
    --------------------------------------------
      LOOP:  cpu time    4.3647: real time    4.3752

 eigenvalue-minimisations  :   104
 total energy-change (2. order) : 0.8895822E+01  (-0.2097501E+03)
 number of electron       8.0000000 magnetization 
 augmentation part        8.0000000 magnetization 

 Free energy of the ion-electron system (eV)
  ---------------------------------------------------
  alpha Z        PSCENC =         0.25715048
  Ewald energy   TEWEN  =       131.05103995
  -Hartree energ DENC   =      -244.01770597
  -exchange      EXHF   =         0.00000000
  -V(xc)+E(xc)   XCENC  =        22.12515284
  PAW double counting   =       117.05815612     -117.66307307
  entropy T*S    EENTRO =         0.00289905
  eigenvalues    EBANDS =       -96.95955236
  atomic energy  EATOM  =       197.04175453
  Solvation  Ediel_sol  =         0.00000000
  ---------------------------------------------------
  free energy    TOTEN  =         8.89582157 eV

  energy without entropy =        8.89292252  energy(sigma->0) =        8.89485522


--------------------------------------------------------------------------------------------------------




--------------------------------------- Iteration      1(   2)  ---------------------------------------


     EDDAV:  cpu time    1.8895: real time    1.8941
       DOS:  cpu time    0.0002: real time    0.0002
    --------------------------------------------
      LOOP:  cpu time    1.8897: real time    1.8943

 eigenvalue-minimisations  :    64
 total energy-change (2. order) :-0.3294335E+02  (-0.3294438E+02)
 number of electron       8.0000000 magnetization 
 augmentation part        8.0000000 magnetization 

 Free energy of the ion-electron system (eV)
  ---------------------------------------------------
  alpha Z        PSCENC =         0.25715048
  Ewald energy   TEWEN  =       131.05103995
  -Hartree energ DENC   =      -244.01770597
  -exchange      EXHF   =         0.00000000
  -V(xc)+E(xc)   XCENC  =        22.12515284
  PAW double counting   =       117.05815612     -117.66307307
  entropy T*S    EENTRO =         0.00609806
  eigenvalues    EBANDS =      -129.90610241
  atomic energy  EATOM  =       197.04175453
  Solvation  Ediel_sol  =         0.00000000
  ---------------------------------------------------
  free energy    TOTEN  =       -24.04752947 eV

  energy without entropy =      -24.05362752  energy(sigma->0) =      -24.04956215


--------------------------------------------------------------------------------------------------------




--------------------------------------- Iteration      1(   3)  ---------------------------------------


     EDDAV:  cpu time    1.8809: real time    1.8854
       DOS:  cpu time    0.0002: real time    0.0002
    --------------------------------------------
      LOOP:  cpu time    1.8811: real time    1.8856

 eigenvalue-minimisations  :    64
 total energy-change (2. order) :-0.3628870E+01  (-0.3647008E+01)
 number of electron       8.0000000 magnetization 
 augmentation part        8.0000000 magnetization 

 Free energy of the ion-electron system (eV)
  ---------------------------------------------------
  alpha Z        PSCENC =         0.25715048
  Ewald energy   TEWEN  =       131.05103995
  -Hartree energ DENC   =      -244.01770597
  -exchange      EXHF   =         0.00000000
  -V(xc)+E(xc)   XCENC  =        22.12515284
  PAW double counting   =       117.05815612     -117.66307307
  entropy T*S    EENTRO =         0.03723356
  eigenvalues    EBANDS =      -133.56610815
  atomic energy  EATOM  =       197.04175453
  Solvation  Ediel_sol  =         0.00000000
  ---------------------------------------------------
  free energy    TOTEN  =       -27.67639971 eV

  energy without entropy =      -27.71363327  energy(sigma->0) =      -27.68881089


--------------------------------------------------------------------------------------------------------




--------------------------------------- Iteration      1(   4)  ---------------------------------------


     EDDAV:  cpu time    3.3717: real time    3.3797
       DOS:  cpu time    0.0002: real time    0.0002
    --------------------------------------------
      LOOP:  cpu time    3.3719: real time    3.3799

 eigenvalue-minimisations  :   128
 total energy-change (2. order) :-0.1402252E+00  (-0.1392049E+00)
 number of electron       8.0000000 magnetization 
 augmentation part        8.0000000 magnetization 

 Free energy of the ion-electron system (eV)
  ---------------------------------------------------
  alpha Z        PSCENC =         0.25715048
  Ewald energy   TEWEN  =       131.05103995
  -Hartree energ DENC   =      -244.01770597
  -exchange      EXHF   =         0.00000000
  -V(xc)+E(xc)   XCENC  =        22.12515284
  PAW double counting   =       117.05815612     -117.66307307
  entropy T*S    EENTRO =         0.03683808
  eigenvalues    EBANDS =      -133.70593791
  atomic energy  EATOM  =       197.04175453
  Solvation  Ediel_sol  =         0.00000000
  ---------------------------------------------------
  free energy    TOTEN  =       -27.81662495 eV

  energy without entropy =      -27.85346303  energy(sigma->0) =      -27.82890431


--------------------------------------------------------------------------------------------------------




--------------------------------------- Iteration      1(   5)  ---------------------------------------


     EDDAV:  cpu time    2.5969: real time    2.6031
       DOS:  cpu time    0.0002: real time    0.0002
    CHARGE:  cpu time    0.1575: real time    0.1578
    MIXING:  cpu time    0.0358: real time    0.0359
    --------------------------------------------
      LOOP:  cpu time    2.7904: real time    2.7970

 eigenvalue-minimisations  :    96
 total energy-change (2. order) :-0.4110706E-04  (-0.4110723E-04)
 number of electron       8.0000001 magnetization 
 augmentation part        0.2330533 magnetization 

 Broyden mixing:
  rms(total) = 0.91186E+00    rms(broyden)= 0.91158E+00
  rms(prec ) = 0.12983E+01
  weight for this iteration     100.00

 Free energy of the ion-electron system (eV)
  ---------------------------------------------------
  alpha Z        PSCENC =         0.25715048
  Ewald energy   TEWEN  =       131.05103995
  -Hartree energ DENC   =      -244.01770597
  -exchange      EXHF   =         0.00000000
  -V(xc)+E(xc)   XCENC  =        22.12515284
  PAW double counting   =       117.05815612     -117.66307307
  entropy T*S    EENTRO =         0.03683824
  eigenvalues    EBANDS =      -133.70597918
  atomic energy  EATOM  =       197.04175453
  Solvation  Ediel_sol  =         0.00000000
  ---------------------------------------------------
  free energy    TOTEN  =       -27.81666606 eV

  energy without entropy =      -27.85350430  energy(sigma->0) =      -27.82894547


--------------------------------------------------------------------------------------------------------




--------------------------------------- Iteration      1(   6)  ---------------------------------------


    POTLOK:  cpu time    1.5546: real time    1.5583
    SETDIJ:  cpu time    0.0068: real time    0.0068
    EDDIAG:  cpu time    0.3826: real time    0.3835
  RMM-DIIS:  cpu time    1.2572: real time    1.2602
    ORTHCH:  cpu time    0.0108: real time    0.0108
       DOS:  cpu time    0.0002: real time    0.0002
    CHARGE:  cpu time    0.1523: real time    0.1526
    MIXING:  cpu time    0.0367: real time    0.0368
    --------------------------------------------
      LOOP:  cpu time    3.4012: real time    3.4092

 eigenvalue-minimisations  :    64
 total energy-change (2. order) : 0.3151408E+01  (-0.5941203E+00)
 number of electron       8.0000000 magnetization 
 augmentation part        0.2053343 magnetization 

 Broyden mixing:
  rms(total) = 0.44667E+00    rms(broyden)= 0.44656E+00
  rms(prec ) = 0.58507E+00
  weight for this iteration     100.00

 eigenvalues of (default mixing * dielectric matrix)
  average eigenvalue GAMMA=   1.3071
  1.3071

 Free energy of the ion-electron system (eV)
  ---------------------------------------------------
  alpha Z        PSCENC =         0.25715048
  Ewald energy   TEWEN  =       131.05103995
  -Hartree energ DENC   =      -264.59847202
  -exchange      EXHF   =         0.00000000
  -V(xc)+E(xc)   XCENC  =        23.37491824
  PAW double counting   =       244.12034181     -244.91204381
  entropy T*S    EENTRO =         0.03766566
  eigenvalues    EBANDS =      -111.03761332
  atomic energy  EATOM  =       197.04175453
  Solvation  Ediel_sol  =         0.00000000
  ---------------------------------------------------
  free energy    TOTEN  =       -24.66525848 eV

  energy without entropy =      -24.70292414  energy(sigma->0) =      -24.67781370


--------------------------------------------------------------------------------------------------------




--------------------------------------- Iteration      1(   7)  ---------------------------------------


    POTLOK:  cpu time    1.5756: real time    1.5793
    SETDIJ:  cpu time    0.0064: real time    0.0065
    EDDIAG:  cpu time    0.3925: real time    0.3934
  RMM-DIIS:  cpu time    1.2508: real time    1.2537
    ORTHCH:  cpu time    0.0111: real time    0.0112
       DOS:  cpu time    0.0002: real time    0.0002
    CHARGE:  cpu time    0.1470: real time    0.1474
    MIXING:  cpu time    0.0374: real time    0.0375
    --------------------------------------------
      LOOP:  cpu time    3.4210: real time    3.4291

 eigenvalue-minimisations  :    64
 total energy-change (2. order) : 0.5330446E+00  (-0.1433104E+00)
 number of electron       8.0000001 magnetization 
 augmentation part        0.1940961 magnetization 

 Broyden mixing:
  rms(total) = 0.24402E+00    rms(broyden)= 0.24392E+00
  rms(prec ) = 0.29770E+00
  weight for this iteration     100.00

 eigenvalues of (default mixing * dielectric matrix)
  average eigenvalue GAMMA=   1.5040
  1.5040  1.5040

 Free energy of the ion-electron system (eV)
  ---------------------------------------------------
  alpha Z        PSCENC =         0.25715048
  Ewald energy   TEWEN  =       131.05103995
  -Hartree energ DENC   =      -276.99809708
  -exchange      EXHF   =         0.00000000
  -V(xc)+E(xc)   XCENC  =        24.27746230
  PAW double counting   =       380.21699020     -381.05444173
  entropy T*S    EENTRO =         0.04043746
  eigenvalues    EBANDS =       -98.96451001
  atomic energy  EATOM  =       197.04175453
  Solvation  Ediel_sol  =         0.00000000
  ---------------------------------------------------
  free energy    TOTEN  =       -24.13221390 eV

  energy without entropy =      -24.17265136  energy(sigma->0) =      -24.14569305


--------------------------------------------------------------------------------------------------------




--------------------------------------- Iteration      1(   8)  ---------------------------------------


    POTLOK:  cpu time    1.5968: real time    1.6006
    SETDIJ:  cpu time    0.0065: real time    0.0065
    EDDIAG:  cpu time    0.3849: real time    0.3858
  RMM-DIIS:  cpu time    1.2638: real time    1.2668
    ORTHCH:  cpu time    0.0107: real time    0.0107
       DOS:  cpu time    0.0002: real time    0.0002
    CHARGE:  cpu time    0.1446: real time    0.1449
    MIXING:  cpu time    0.0368: real time    0.0369
    --------------------------------------------
      LOOP:  cpu time    3.4442: real time    3.4524

 eigenvalue-minimisations  :    64
 total energy-change (2. order) : 0.1117720E+00  (-0.1063526E-01)
 number of electron       8.0000000 magnetization 
 augmentation part        0.1926020 magnetization 

 Broyden mixing:
  rms(total) = 0.12455E+00    rms(broyden)= 0.12445E+00
  rms(prec ) = 0.16604E+00
  weight for this iteration     100.00

 eigenvalues of (default mixing * dielectric matrix)
  average eigenvalue GAMMA=   1.4424
  2.2457  1.4853  0.5961

 Free energy of the ion-electron system (eV)
  ---------------------------------------------------
  alpha Z        PSCENC =         0.25715048
  Ewald energy   TEWEN  =       131.05103995
  -Hartree energ DENC   =      -280.77209100
  -exchange      EXHF   =         0.00000000
  -V(xc)+E(xc)   XCENC  =        24.64102585
  PAW double counting   =       456.66572708     -457.48282763
  entropy T*S    EENTRO =         0.03977932
  eigenvalues    EBANDS =       -95.46200050
  atomic energy  EATOM  =       197.04175453
  Solvation  Ediel_sol  =         0.00000000
  ---------------------------------------------------
  free energy    TOTEN  =       -24.02044192 eV

  energy without entropy =      -24.06022124  energy(sigma->0) =      -24.03370170


--------------------------------------------------------------------------------------------------------




--------------------------------------- Iteration      1(   9)  ---------------------------------------


    POTLOK:  cpu time    1.5843: real time    1.5881
    SETDIJ:  cpu time    0.0065: real time    0.0066
    EDDIAG:  cpu time    0.4076: real time    0.4086
  RMM-DIIS:  cpu time    1.2607: real time    1.2637
    ORTHCH:  cpu time    0.0107: real time    0.0107
       DOS:  cpu time    0.0002: real time    0.0002
    CHARGE:  cpu time    0.1491: real time    0.1494
    MIXING:  cpu time    0.0385: real time    0.0386
    --------------------------------------------
      LOOP:  cpu time    3.4576: real time    3.4658

 eigenvalue-minimisations  :    64
 total energy-change (2. order) : 0.4691055E-01  (-0.5221808E-02)
 number of electron       8.0000000 magnetization 
 augmentation part        0.1920822 magnetization 

 Broyden mixing:
  rms(total) = 0.51731E-01    rms(broyden)= 0.51721E-01
  rms(prec ) = 0.78013E-01
  weight for this iteration     100.00

 eigenvalues of (default mixing * dielectric matrix)
  average eigenvalue GAMMA=   1.2867
  2.1663  1.4335  0.7734  0.7734

 Free energy of the ion-electron system (eV)
  ---------------------------------------------------
  alpha Z        PSCENC =         0.25715048
  Ewald energy   TEWEN  =       131.05103995
  -Hartree energ DENC   =      -283.15904241
  -exchange      EXHF   =         0.00000000
  -V(xc)+E(xc)   XCENC  =        24.86218524
  PAW double counting   =       501.74430061     -502.54869321
  entropy T*S    EENTRO =         0.03751735
  eigenvalues    EBANDS =       -93.25974390
  atomic energy  EATOM  =       197.04175453
  Solvation  Ediel_sol  =         0.00000000
  ---------------------------------------------------
  free energy    TOTEN  =       -23.97353137 eV

  energy without entropy =      -24.01104872  energy(sigma->0) =      -23.98603715


--------------------------------------------------------------------------------------------------------




--------------------------------------- Iteration      1(  10)  ---------------------------------------


    POTLOK:  cpu time    1.5608: real time    1.5645
    SETDIJ:  cpu time    0.0067: real time    0.0067
    EDDIAG:  cpu time    0.3965: real time    0.3975
  RMM-DIIS:  cpu time    1.3256: real time    1.3288
    ORTHCH:  cpu time    0.0108: real time    0.0108
       DOS:  cpu time    0.0002: real time    0.0002
    CHARGE:  cpu time    0.1415: real time    0.1418
    MIXING:  cpu time    0.0389: real time    0.0390
    --------------------------------------------
      LOOP:  cpu time    3.4810: real time    3.4893

 eigenvalue-minimisations  :    64
 total energy-change (2. order) : 0.3122628E-02  (-0.1022890E-02)
 number of electron       8.0000000 magnetization 
 augmentation part        0.1916811 magnetization 

 Broyden mixing:
  rms(total) = 0.33330E-01    rms(broyden)= 0.33195E-01
  rms(prec ) = 0.53457E-01
  weight for this iteration     100.00

 eigenvalues of (default mixing * dielectric matrix)
  average eigenvalue GAMMA=   1.4159
  2.1057  2.1057  1.3313  0.7684  0.7684

 Free energy of the ion-electron system (eV)
  ---------------------------------------------------
  alpha Z        PSCENC =         0.25715048
  Ewald energy   TEWEN  =       131.05103995
  -Hartree energ DENC   =      -284.03076851
  -exchange      EXHF   =         0.00000000
  -V(xc)+E(xc)   XCENC  =        24.89681366
  PAW double counting   =       498.27414600     -499.08253662
  entropy T*S    EENTRO =         0.03733269
  eigenvalues    EBANDS =       -92.41534093
  atomic energy  EATOM  =       197.04175453
  Solvation  Ediel_sol  =         0.00000000
  ---------------------------------------------------
  free energy    TOTEN  =       -23.97040874 eV

  energy without entropy =      -24.00774143  energy(sigma->0) =      -23.98285297


--------------------------------------------------------------------------------------------------------




--------------------------------------- Iteration      1(  11)  ---------------------------------------


    POTLOK:  cpu time    1.5228: real time    1.5265
    SETDIJ:  cpu time    0.0065: real time    0.0065
    EDDIAG:  cpu time    0.3720: real time    0.3728
  RMM-DIIS:  cpu time    1.3610: real time    1.3642
    ORTHCH:  cpu time    0.0112: real time    0.0112
       DOS:  cpu time    0.0002: real time    0.0002
    CHARGE:  cpu time    0.1603: real time    0.1607
    MIXING:  cpu time    0.0395: real time    0.0396
    --------------------------------------------
      LOOP:  cpu time    3.4734: real time    3.4817

 eigenvalue-minimisations  :    64
 total energy-change (2. order) : 0.3145407E-02  (-0.9201809E-03)
 number of electron       8.0000000 magnetization 
 augmentation part        0.1910879 magnetization 

 Broyden mixing:
  rms(total) = 0.36167E-01    rms(broyden)= 0.36115E-01
  rms(prec ) = 0.50303E-01
  weight for this iteration     100.00

 eigenvalues of (default mixing * dielectric matrix)
  average eigenvalue GAMMA=   1.5233
  2.9638  2.5365  1.2648  1.0326  0.6711  0.6711

 Free energy of the ion-electron system (eV)
  ---------------------------------------------------
  alpha Z        PSCENC =         0.25715048
  Ewald energy   TEWEN  =       131.05103995
  -Hartree energ DENC   =      -285.59503736
  -exchange      EXHF   =         0.00000000
  -V(xc)+E(xc)   XCENC  =        24.96007385
  PAW double counting   =       492.77043721     -493.57877877
  entropy T*S    EENTRO =         0.03706585
  eigenvalues    EBANDS =       -90.91096908
  atomic energy  EATOM  =       197.04175453
  Solvation  Ediel_sol  =         0.00000000
  ---------------------------------------------------
  free energy    TOTEN  =       -23.96726334 eV

  energy without entropy =      -24.00432919  energy(sigma->0) =      -23.97961862


--------------------------------------------------------------------------------------------------------




--------------------------------------- Iteration      1(  12)  ---------------------------------------


    POTLOK:  cpu time    1.4655: real time    1.4690
    SETDIJ:  cpu time    0.0064: real time    0.0065
    EDDIAG:  cpu time    0.3685: real time    0.3694
  RMM-DIIS:  cpu time    1.3179: real time    1.3210
    ORTHCH:  cpu time    0.0114: real time    0.0114
       DOS:  cpu time    0.0002: real time    0.0002
    CHARGE:  cpu time    0.1665: real time    0.1669
    MIXING:  cpu time    0.0430: real time    0.0431
    --------------------------------------------
      LOOP:  cpu time    3.3794: real time    3.3874

 eigenvalue-minimisations  :    64
 total energy-change (2. order) : 0.2507788E-02  (-0.1135435E-03)
 number of electron       8.0000000 magnetization 
 augmentation part        0.1910735 magnetization 

 Broyden mixing:
  rms(total) = 0.78925E-02    rms(broyden)= 0.78160E-02
  rms(prec ) = 0.14098E-01
  weight for this iteration     100.00

 eigenvalues of (default mixing * dielectric matrix)
  average eigenvalue GAMMA=   1.6320
  3.2543  2.2008  2.2008  1.4323  0.9925  0.6717  0.6717

 Free energy of the ion-electron system (eV)
  ---------------------------------------------------
  alpha Z        PSCENC =         0.25715048
  Ewald energy   TEWEN  =       131.05103995
  -Hartree energ DENC   =      -285.98421427
  -exchange      EXHF   =         0.00000000
  -V(xc)+E(xc)   XCENC  =        24.97446984
  PAW double counting   =       490.90448850     -491.71046080
  entropy T*S    EENTRO =         0.03644704
  eigenvalues    EBANDS =       -90.53543082
  atomic energy  EATOM  =       197.04175453
  Solvation  Ediel_sol  =         0.00000000
  ---------------------------------------------------
  free energy    TOTEN  =       -23.96475555 eV

  energy without entropy =      -24.00120259  energy(sigma->0) =      -23.97690456


--------------------------------------------------------------------------------------------------------




--------------------------------------- Iteration      1(  13)  ---------------------------------------


    POTLOK:  cpu time    1.4523: real time    1.4557
    SETDIJ:  cpu time    0.0064: real time    0.0064
    EDDIAG:  cpu time    0.3570: real time    0.3579
  RMM-DIIS:  cpu time    1.2675: real time    1.2705
    ORTHCH:  cpu time    0.0108: real time    0.0108
       DOS:  cpu time    0.0002: real time    0.0002
    CHARGE:  cpu time    0.1604: real time    0.1608
    MIXING:  cpu time    0.0427: real time    0.0428
    --------------------------------------------
      LOOP:  cpu time    3.2973: real time    3.3051

 eigenvalue-minimisations  :    64
 total energy-change (2. order) :-0.7489363E-02  (-0.5050841E-03)
 number of electron       8.0000000 magnetization 
 augmentation part        0.1913495 magnetization 

 Broyden mixing:
  rms(total) = 0.13782E-01    rms(broyden)= 0.13780E-01
  rms(prec ) = 0.17519E-01
  weight for this iteration     100.00

 eigenvalues of (default mixing * dielectric matrix)
  average eigenvalue GAMMA=   1.7561
  4.4616  2.6384  2.3847  1.1275  1.1275  0.9738  0.6676  0.6676

 Free energy of the ion-electron system (eV)
  ---------------------------------------------------
  alpha Z        PSCENC =         0.25715048
  Ewald energy   TEWEN  =       131.05103995
  -Hartree energ DENC   =      -286.16264624
  -exchange      EXHF   =         0.00000000
  -V(xc)+E(xc)   XCENC  =        24.98026801
  PAW double counting   =       494.37390208     -495.17597204
  entropy T*S    EENTRO =         0.03633932
  eigenvalues    EBANDS =       -90.37408100
  atomic energy  EATOM  =       197.04175453
  Solvation  Ediel_sol  =         0.00000000
  ---------------------------------------------------
  free energy    TOTEN  =       -23.97224491 eV

  energy without entropy =      -24.00858423  energy(sigma->0) =      -23.98435802


--------------------------------------------------------------------------------------------------------




--------------------------------------- Iteration      1(  14)  ---------------------------------------


    POTLOK:  cpu time    1.4209: real time    1.4243
    SETDIJ:  cpu time    0.0065: real time    0.0065
    EDDIAG:  cpu time    0.3768: real time    0.3777
  RMM-DIIS:  cpu time    1.2772: real time    1.2803
    ORTHCH:  cpu time    0.0114: real time    0.0114
       DOS:  cpu time    0.0002: real time    0.0002
    CHARGE:  cpu time    0.1558: real time    0.1562
    MIXING:  cpu time    0.0425: real time    0.0426
    --------------------------------------------
      LOOP:  cpu time    3.2914: real time    3.2992

 eigenvalue-minimisations  :    64
 total energy-change (2. order) :-0.2098276E-02  (-0.1374283E-03)
 number of electron       8.0000000 magnetization 
 augmentation part        0.1911706 magnetization 

 Broyden mixing:
  rms(total) = 0.70599E-02    rms(broyden)= 0.70501E-02
  rms(prec ) = 0.98668E-02
  weight for this iteration     100.00

 eigenvalues of (default mixing * dielectric matrix)
  average eigenvalue GAMMA=   1.7611
  4.9309  2.8726  2.2816  0.6673  0.6673  1.0577  1.0577  1.1576  1.1576

 Free energy of the ion-electron system (eV)
  ---------------------------------------------------
  alpha Z        PSCENC =         0.25715048
  Ewald energy   TEWEN  =       131.05103995
  -Hartree energ DENC   =      -286.33793554
  -exchange      EXHF   =         0.00000000
  -V(xc)+E(xc)   XCENC  =        24.97690490
  PAW double counting   =       491.13874973     -491.94389748
  entropy T*S    EENTRO =         0.03646280
  eigenvalues    EBANDS =       -90.19457255
  atomic energy  EATOM  =       197.04175453
  Solvation  Ediel_sol  =         0.00000000
  ---------------------------------------------------
  free energy    TOTEN  =       -23.97434319 eV

  energy without entropy =      -24.01080598  energy(sigma->0) =      -23.98649745


--------------------------------------------------------------------------------------------------------




--------------------------------------- Iteration      1(  15)  ---------------------------------------


    POTLOK:  cpu time    1.4153: real time    1.4187
    SETDIJ:  cpu time    0.0064: real time    0.0064
    EDDIAG:  cpu time    0.3682: real time    0.3691
  RMM-DIIS:  cpu time    1.3091: real time    1.3122
    ORTHCH:  cpu time    0.0118: real time    0.0118
       DOS:  cpu time    0.0002: real time    0.0002
    CHARGE:  cpu time    0.1656: real time    0.1660
    MIXING:  cpu time    0.0443: real time    0.0444
    --------------------------------------------
      LOOP:  cpu time    3.3209: real time    3.3288

 eigenvalue-minimisations  :    64
 total energy-change (2. order) :-0.1815441E-02  (-0.6262153E-04)
 number of electron       8.0000000 magnetization 
 augmentation part        0.1910629 magnetization 

 Broyden mixing:
  rms(total) = 0.11520E-01    rms(broyden)= 0.11500E-01
  rms(prec ) = 0.15438E-01
  weight for this iteration     100.00

 eigenvalues of (default mixing * dielectric matrix)
  average eigenvalue GAMMA=   1.8480
  5.4391  3.2100  2.2052  2.2052  1.1701  1.1701  0.6708  0.6708  0.9747  0.7637

 Free energy of the ion-electron system (eV)
  ---------------------------------------------------
  alpha Z        PSCENC =         0.25715048
  Ewald energy   TEWEN  =       131.05103995
  -Hartree energ DENC   =      -286.33536118
  -exchange      EXHF   =         0.00000000
  -V(xc)+E(xc)   XCENC  =        24.97215071
  PAW double counting   =       490.71857107     -491.52423780
  entropy T*S    EENTRO =         0.03638089
  eigenvalues    EBANDS =       -90.19360729
  atomic energy  EATOM  =       197.04175453
  Solvation  Ediel_sol  =         0.00000000
  ---------------------------------------------------
  free energy    TOTEN  =       -23.97615863 eV

  energy without entropy =      -24.01253952  energy(sigma->0) =      -23.98828559


--------------------------------------------------------------------------------------------------------




--------------------------------------- Iteration      1(  16)  ---------------------------------------


    POTLOK:  cpu time    1.3921: real time    1.3954
    SETDIJ:  cpu time    0.0065: real time    0.0065
    EDDIAG:  cpu time    0.3664: real time    0.3673
  RMM-DIIS:  cpu time    1.3160: real time    1.3191
    ORTHCH:  cpu time    0.0116: real time    0.0116
       DOS:  cpu time    0.0002: real time    0.0002
    CHARGE:  cpu time    0.1659: real time    0.1663
    MIXING:  cpu time    0.0460: real time    0.0461
    --------------------------------------------
      LOOP:  cpu time    3.3046: real time    3.3124

 eigenvalue-minimisations  :    64
 total energy-change (2. order) :-0.1122515E-02  (-0.3171508E-04)
 number of electron       8.0000000 magnetization 
 augmentation part        0.1910354 magnetization 

 Broyden mixing:
  rms(total) = 0.59713E-02    rms(broyden)= 0.59448E-02
  rms(prec ) = 0.78047E-02
  weight for this iteration     100.00

 eigenvalues of (default mixing * dielectric matrix)
  average eigenvalue GAMMA=   1.9880
  6.4304  4.0968  2.5452  2.1496  1.2737  1.2737  1.0431  1.0431  0.6716  0.6716
  0.6698

 Free energy of the ion-electron system (eV)
  ---------------------------------------------------
  alpha Z        PSCENC =         0.25715048
  Ewald energy   TEWEN  =       131.05103995
  -Hartree energ DENC   =      -286.30494523
  -exchange      EXHF   =         0.00000000
  -V(xc)+E(xc)   XCENC  =        24.96740076
  PAW double counting   =       490.48071484     -491.28640590
  entropy T*S    EENTRO =         0.03646284
  eigenvalues    EBANDS =       -90.22045342
  atomic energy  EATOM  =       197.04175453
  Solvation  Ediel_sol  =         0.00000000
  ---------------------------------------------------
  free energy    TOTEN  =       -23.97728114 eV

  energy without entropy =      -24.01374399  energy(sigma->0) =      -23.98943543


--------------------------------------------------------------------------------------------------------




--------------------------------------- Iteration      1(  17)  ---------------------------------------


    POTLOK:  cpu time    1.3828: real time    1.3861
    SETDIJ:  cpu time    0.0066: real time    0.0066
    EDDIAG:  cpu time    0.3791: real time    0.3800
  RMM-DIIS:  cpu time    1.2737: real time    1.2767
    ORTHCH:  cpu time    0.0115: real time    0.0115
       DOS:  cpu time    0.0003: real time    0.0003
    CHARGE:  cpu time    0.1701: real time    0.1705
    MIXING:  cpu time    0.0459: real time    0.0460
    --------------------------------------------
      LOOP:  cpu time    3.2701: real time    3.2778

 eigenvalue-minimisations  :    64
 total energy-change (2. order) :-0.3115251E-03  (-0.1092129E-04)
 number of electron       8.0000000 magnetization 
 augmentation part        0.1910674 magnetization 

 Broyden mixing:
  rms(total) = 0.14574E-02    rms(broyden)= 0.14562E-02
  rms(prec ) = 0.19937E-02
  weight for this iteration     100.00

 eigenvalues of (default mixing * dielectric matrix)
  average eigenvalue GAMMA=   2.0387
  6.9822  4.3940  2.5013  2.5013  1.3227  1.3227  1.2089  1.2089  0.9772  0.6717
  0.6717  0.7015

 Free energy of the ion-electron system (eV)
  ---------------------------------------------------
  alpha Z        PSCENC =         0.25715048
  Ewald energy   TEWEN  =       131.05103995
  -Hartree energ DENC   =      -286.29162955
  -exchange      EXHF   =         0.00000000
  -V(xc)+E(xc)   XCENC  =        24.96812081
  PAW double counting   =       491.44257382     -492.24755517
  entropy T*S    EENTRO =         0.03639643
  eigenvalues    EBANDS =       -90.23544397
  atomic energy  EATOM  =       197.04175453
  Solvation  Ediel_sol  =         0.00000000
  ---------------------------------------------------
  free energy    TOTEN  =       -23.97759267 eV

  energy without entropy =      -24.01398910  energy(sigma->0) =      -23.98972481


--------------------------------------------------------------------------------------------------------




--------------------------------------- Iteration      1(  18)  ---------------------------------------


    POTLOK:  cpu time    1.4225: real time    1.4258
    SETDIJ:  cpu time    0.0064: real time    0.0065
    EDDIAG:  cpu time    0.3750: real time    0.3759
  RMM-DIIS:  cpu time    1.2523: real time    1.2553
    ORTHCH:  cpu time    0.0110: real time    0.0110
       DOS:  cpu time    0.0002: real time    0.0002
    CHARGE:  cpu time    0.1563: real time    0.1567
    MIXING:  cpu time    0.0474: real time    0.0476
    --------------------------------------------
      LOOP:  cpu time    3.2712: real time    3.2790

 eigenvalue-minimisations  :    64
 total energy-change (2. order) :-0.1453636E-03  (-0.1366654E-05)
 number of electron       8.0000000 magnetization 
 augmentation part        0.1910550 magnetization 

 Broyden mixing:
  rms(total) = 0.82021E-03    rms(broyden)= 0.81467E-03
  rms(prec ) = 0.10833E-02
  weight for this iteration     100.00

 eigenvalues of (default mixing * dielectric matrix)
  average eigenvalue GAMMA=   2.0822
  7.3879  4.6644  3.1773  2.3139  2.3139  1.2036  1.2036  0.6724  0.6724  0.9663
  0.9663  0.7629  0.7629

 Free energy of the ion-electron system (eV)
  ---------------------------------------------------
  alpha Z        PSCENC =         0.25715048
  Ewald energy   TEWEN  =       131.05103995
  -Hartree energ DENC   =      -286.30098044
  -exchange      EXHF   =         0.00000000
  -V(xc)+E(xc)   XCENC  =        24.96777168
  PAW double counting   =       491.09330147     -491.89851835
  entropy T*S    EENTRO =         0.03638036
  eigenvalues    EBANDS =       -90.22563770
  atomic energy  EATOM  =       197.04175453
  Solvation  Ediel_sol  =         0.00000000
  ---------------------------------------------------
  free energy    TOTEN  =       -23.97773803 eV

  energy without entropy =      -24.01411839  energy(sigma->0) =      -23.98986482


--------------------------------------------------------------------------------------------------------




--------------------------------------- Iteration      1(  19)  ---------------------------------------


    POTLOK:  cpu time    1.4420: real time    1.4454
    SETDIJ:  cpu time    0.0065: real time    0.0065
    EDDIAG:  cpu time    0.3933: real time    0.3942
  RMM-DIIS:  cpu time    1.1857: real time    1.1885
    ORTHCH:  cpu time    0.0107: real time    0.0108
       DOS:  cpu time    0.0002: real time    0.0002
    CHARGE:  cpu time    0.1502: real time    0.1506
    MIXING:  cpu time    0.0462: real time    0.0463
    --------------------------------------------
      LOOP:  cpu time    3.2349: real time    3.2425

 eigenvalue-minimisations  :    60
 total energy-change (2. order) :-0.6714122E-04  (-0.3972325E-06)
 number of electron       8.0000000 magnetization 
 augmentation part        0.1910486 magnetization 

 Broyden mixing:
  rms(total) = 0.15200E-02    rms(broyden)= 0.15190E-02
  rms(prec ) = 0.20300E-02
  weight for this iteration     100.00

 eigenvalues of (default mixing * dielectric matrix)
  average eigenvalue GAMMA=   2.0768
  7.8523  4.8692  3.5389  2.4480  2.2507  1.1984  1.1984  1.0791  1.0791  0.9613
  0.6718  0.6718  0.7099  0.5459

 Free energy of the ion-electron system (eV)
  ---------------------------------------------------
  alpha Z        PSCENC =         0.25715048
  Ewald energy   TEWEN  =       131.05103995
  -Hartree energ DENC   =      -286.31615921
  -exchange      EXHF   =         0.00000000
  -V(xc)+E(xc)   XCENC  =        24.96908418
  PAW double counting   =       491.26081163     -492.06595326
  entropy T*S    EENTRO =         0.03636792
  eigenvalues    EBANDS =       -90.21190140
  atomic energy  EATOM  =       197.04175453
  Solvation  Ediel_sol  =         0.00000000
  ---------------------------------------------------
  free energy    TOTEN  =       -23.97780517 eV

  energy without entropy =      -24.01417309  energy(sigma->0) =      -23.98992781


--------------------------------------------------------------------------------------------------------




--------------------------------------- Iteration      1(  20)  ---------------------------------------


    POTLOK:  cpu time    1.4517: real time    1.4551
    SETDIJ:  cpu time    0.0065: real time    0.0065
    EDDIAG:  cpu time    0.3971: real time    0.3981
  RMM-DIIS:  cpu time    1.0418: real time    1.0442
    ORTHCH:  cpu time    0.0108: real time    0.0108
       DOS:  cpu time    0.0002: real time    0.0002
    CHARGE:  cpu time    0.1459: real time    0.1462
    MIXING:  cpu time    0.0486: real time    0.0487
    --------------------------------------------
      LOOP:  cpu time    3.1026: real time    3.1099

 eigenvalue-minimisations  :    48
 total energy-change (2. order) :-0.1239967E-04  (-0.1717110E-06)
 number of electron       8.0000000 magnetization 
 augmentation part        0.1910502 magnetization 

 Broyden mixing:
  rms(total) = 0.21438E-03    rms(broyden)= 0.20639E-03
  rms(prec ) = 0.27595E-03
  weight for this iteration     100.00

 eigenvalues of (default mixing * dielectric matrix)
  average eigenvalue GAMMA=   2.1300
  8.1334  5.1966  3.3717  2.7618  2.2528  2.0128  1.2105  1.2105  0.6717  0.6717
  1.0759  1.0759  0.9371  0.7203  0.6476

 Free energy of the ion-electron system (eV)
  ---------------------------------------------------
  alpha Z        PSCENC =         0.25715048
  Ewald energy   TEWEN  =       131.05103995
  -Hartree energ DENC   =      -286.31145804
  -exchange      EXHF   =         0.00000000
  -V(xc)+E(xc)   XCENC  =        24.96864749
  PAW double counting   =       491.15285560     -491.95800236
  entropy T*S    EENTRO =         0.03638238
  eigenvalues    EBANDS =       -90.21618761
  atomic energy  EATOM  =       197.04175453
  Solvation  Ediel_sol  =         0.00000000
  ---------------------------------------------------
  free energy    TOTEN  =       -23.97781757 eV

  energy without entropy =      -24.01419996  energy(sigma->0) =      -23.98994503


--------------------------------------------------------------------------------------------------------




--------------------------------------- Iteration      1(  21)  ---------------------------------------


    POTLOK:  cpu time    1.4501: real time    1.4536
    SETDIJ:  cpu time    0.0065: real time    0.0065
    EDDIAG:  cpu time    0.3746: real time    0.3755
  RMM-DIIS:  cpu time    1.0784: real time    1.0810
    ORTHCH:  cpu time    0.0112: real time    0.0113
       DOS:  cpu time    0.0002: real time    0.0002
    CHARGE:  cpu time    0.1671: real time    0.1675
    MIXING:  cpu time    0.0520: real time    0.0522
    --------------------------------------------
      LOOP:  cpu time    3.1401: real time    3.1477

 eigenvalue-minimisations  :    48
 total energy-change (2. order) :-0.8119118E-05  (-0.1591940E-06)
 number of electron       8.0000000 magnetization 
 augmentation part        0.1910564 magnetization 

 Broyden mixing:
  rms(total) = 0.12889E-03    rms(broyden)= 0.12878E-03
  rms(prec ) = 0.16765E-03
  weight for this iteration     100.00

 eigenvalues of (default mixing * dielectric matrix)
  average eigenvalue GAMMA=   2.0931
  8.2044  5.3309  3.6430  2.8183  2.3596  2.1150  1.1821  1.1821  1.1119  1.1119
  0.9639  0.6717  0.6717  0.7241  0.7241  0.6743

 Free energy of the ion-electron system (eV)
  ---------------------------------------------------
  alpha Z        PSCENC =         0.25715048
  Ewald energy   TEWEN  =       131.05103995
  -Hartree energ DENC   =      -286.30557595
  -exchange      EXHF   =         0.00000000
  -V(xc)+E(xc)   XCENC  =        24.96840423
  PAW double counting   =       491.19140578     -491.99648598
  entropy T*S    EENTRO =         0.03638117
  eigenvalues    EBANDS =       -90.22189990
  atomic energy  EATOM  =       197.04175453
  Solvation  Ediel_sol  =         0.00000000
  ---------------------------------------------------
  free energy    TOTEN  =       -23.97782569 eV

  energy without entropy =      -24.01420686  energy(sigma->0) =      -23.98995275


--------------------------------------------------------------------------------------------------------




--------------------------------------- Iteration      1(  22)  ---------------------------------------


    POTLOK:  cpu time    1.4539: real time    1.4573
    SETDIJ:  cpu time    0.0064: real time    0.0064
    EDDIAG:  cpu time    0.3692: real time    0.3701
  RMM-DIIS:  cpu time    1.0826: real time    1.0851
    ORTHCH:  cpu time    0.0118: real time    0.0118
       DOS:  cpu time    0.0002: real time    0.0002
    CHARGE:  cpu time    0.1595: real time    0.1599
    MIXING:  cpu time    0.0512: real time    0.0513
    --------------------------------------------
      LOOP:  cpu time    3.1347: real time    3.1421

 eigenvalue-minimisations  :    48
 total energy-change (2. order) :-0.2525987E-05  (-0.1957567E-07)
 number of electron       8.0000000 magnetization 
 augmentation part        0.1910574 magnetization 

 Broyden mixing:
  rms(total) = 0.81841E-04    rms(broyden)= 0.81808E-04
  rms(prec ) = 0.10660E-03
  weight for this iteration     100.00

 eigenvalues of (default mixing * dielectric matrix)
  average eigenvalue GAMMA=   2.0861
  8.2688  5.2668  4.0914  2.6116  2.6116  1.9749  1.3858  1.3858  1.1749  1.1749
  0.6717  0.6717  1.0178  0.9146  0.8464  0.7456  0.6490

 Free energy of the ion-electron system (eV)
  ---------------------------------------------------
  alpha Z        PSCENC =         0.25715048
  Ewald energy   TEWEN  =       131.05103995
  -Hartree energ DENC   =      -286.30687507
  -exchange      EXHF   =         0.00000000
  -V(xc)+E(xc)   XCENC  =        24.96841775
  PAW double counting   =       491.17959642     -491.98469783
  entropy T*S    EENTRO =         0.03638189
  eigenvalues    EBANDS =       -90.22059634
  atomic energy  EATOM  =       197.04175453
  Solvation  Ediel_sol  =         0.00000000
  ---------------------------------------------------
  free energy    TOTEN  =       -23.97782822 eV

  energy without entropy =      -24.01421011  energy(sigma->0) =      -23.98995552


--------------------------------------------------------------------------------------------------------




--------------------------------------- Iteration      1(  23)  ---------------------------------------


    POTLOK:  cpu time    1.5180: real time    1.5216
    SETDIJ:  cpu time    0.0065: real time    0.0065
    EDDIAG:  cpu time    0.3632: real time    0.3641
  RMM-DIIS:  cpu time    1.0279: real time    1.0303
    ORTHCH:  cpu time    0.0110: real time    0.0110
       DOS:  cpu time    0.0002: real time    0.0002
    --------------------------------------------
      LOOP:  cpu time    2.9267: real time    2.9337

 eigenvalue-minimisations  :    48
 total energy-change (2. order) :-0.8661167E-06  (-0.1125535E-07)
 number of electron       8.0000000 magnetization 
 augmentation part        0.1910574 magnetization 

 Free energy of the ion-electron system (eV)
  ---------------------------------------------------
  alpha Z        PSCENC =         0.25715048
  Ewald energy   TEWEN  =       131.05103995
  -Hartree energ DENC   =      -286.30911863
  -exchange      EXHF   =         0.00000000
  -V(xc)+E(xc)   XCENC  =        24.96850519
  PAW double counting   =       491.17135780     -491.97648269
  entropy T*S    EENTRO =         0.03638195
  eigenvalues    EBANDS =       -90.21841767
  atomic energy  EATOM  =       197.04175453
  Solvation  Ediel_sol  =         0.00000000
  ---------------------------------------------------
  free energy    TOTEN  =       -23.97782909 eV

  energy without entropy =      -24.01421104  energy(sigma->0) =      -23.98995640


--------------------------------------------------------------------------------------------------------




 average (electrostatic) potential at core
  the test charge radii are     0.5201  0.6991
  (the norm of the test charge is              1.0000)
       1 -41.6019       2 -41.6262       3 -41.7000       4 -41.5496       5 -57.8279



 E-fermi :  -9.1817     XC(G=0):  -0.7305     alpha+bet : -0.2236


 k-point     1 :       0.2500    0.2500    0.2500
  band No.  band energies     occupation 
      1     -17.0361      2.00000
      2      -9.3960      2.06205
      3      -9.3416      1.97974
      4      -9.3339      1.95858
      5      -0.2847      0.00000
      6       0.6125      0.00000
      7       0.7073      0.00000
      8       0.7301      0.00000

 k-point     2 :      -0.2500    0.2500    0.2500
  band No.  band energies     occupation 
      1     -17.0361      2.00000
      2      -9.3959      2.06202
      3      -9.3416      1.97969
      4      -9.3336      1.95783
      5      -0.2834      0.00000
      6       0.6010      0.00000
      7       0.6983      0.00000
      8       0.7369      0.00000

 k-point     3 :       0.2500   -0.2500    0.2500
  band No.  band energies     occupation 
      1     -17.0361      2.00000
      2      -9.3960      2.06208
      3      -9.3415      1.97966
      4      -9.3338      1.95837
      5      -0.2853      0.00000
      6       0.6062      0.00000
      7       0.7056      0.00000
      8       0.7381      0.00000

 k-point     4 :      -0.2500   -0.2500    0.2500
  band No.  band energies     occupation 
      1     -17.0361      2.00000
      2      -9.3960      2.06207
      3      -9.3415      1.97962
      4      -9.3337      1.95828
      5      -0.2815      0.00000
      6       0.6031      0.00000
      7       0.6997      0.00000
      8       0.7247      0.00000


--------------------------------------------------------------------------------------------------------


 soft charge-density along one line, spin component           1
         0         1         2         3         4         5         6         7         8         9
 total charge-density along one line

 pseudopotential strength for first ion, spin component:           1
 -2.342  -4.036  -0.001  -0.001   0.001
 -4.036  -6.869  -0.003  -0.005   0.002
 -0.001  -0.003  -0.336   0.002  -0.001
 -0.001  -0.005   0.002  -0.334  -0.001
  0.001   0.002  -0.001  -0.001  -0.337
 total augmentation occupancy for first ion, spin component:           1
  3.801  -0.724   0.247   0.367  -0.137
 -0.724   0.152  -0.048  -0.071   0.027
  0.247  -0.048   0.022   0.020  -0.007
  0.367  -0.071   0.020   0.039  -0.011
 -0.137   0.027  -0.007  -0.011   0.014


------------------------ aborting loop because EDIFF is reached ----------------------------------------


    CHARGE:  cpu time    0.1501: real time    0.1504
    FORLOC:  cpu time    0.1050: real time    0.1053
    FORNL :  cpu time    0.5434: real time    0.5447
    STRESS:  cpu time    1.6814: real time    1.6854
    FORCOR:  cpu time    1.5498: real time    1.5535
    FORHAR:  cpu time    0.5033: real time    0.5045
    MIXING:  cpu time    0.0540: real time    0.0542
    OFIELD:  cpu time    0.0000: real time    0.0000

  FORCE on cell =-STRESS in cart. coord.  units (eV):
  Direction    XX          YY          ZZ          XY          YZ          ZX
  --------------------------------------------------------------------------------------
  Alpha Z     0.25715     0.25715     0.25715
  Ewald      44.06866    44.61207    42.37026     0.25354     0.48802     1.12521
  Hartree    95.87928    96.35324    94.07659    -0.05443     0.26134     0.67071
  E(xc)     -27.45787   -27.46175   -27.44868    -0.00097     0.00243     0.00595
  Local    -198.40733  -199.30566  -195.11465    -0.17317    -0.82432    -2.00318
  n-local   -16.64513   -17.03670   -15.98385    -0.22675    -0.32651    -0.06018
  augment     0.10550     0.10415     0.10912    -0.00072     0.00135     0.00258
  Kinetic   102.63732   102.79546   102.41282     0.49082     0.27517     0.53003
  Fock        0.00000     0.00000     0.00000     0.00000     0.00000     0.00000
  -------------------------------------------------------------------------------------
  Total       0.43759     0.31797     0.67875     0.28833    -0.12252     0.27113
  in kB       0.74421     0.54077     1.15436     0.49036    -0.20838     0.46111
  external pressure =        0.81 kB  Pullay stress =        0.00 kB

  kinetic pressure (ideal gas correction) =      0.03 kB
  total pressure  =      0.84 kB
  Total+kin.     0.753       0.571       1.203       0.483      -0.208       0.476

 VOLUME and BASIS-vectors are now :
 -----------------------------------------------------------------------------
  energy-cutoff  :      400.00
  volume of cell :      942.06
      direct lattice vectors                 reciprocal lattice vectors
     9.760901056  0.000000000  0.000000000     0.102449558  0.000723728 -0.001206857
    -0.068572643  9.707019237  0.000000000     0.000000000  0.103018236 -0.000317805
     0.116907829  0.030672446  9.942648091     0.000000000 -0.000000000  0.100576827

  length of vectors
     9.760901056  9.707261441  9.943382689     0.102459222  0.103018726  0.100576827


 FORCES acting on ions
    electron-ion (+dipol)            ewald-force                    non-local-force                 convergence-correction
 -----------------------------------------------------------------------------------------------
   -.169E+02 0.294E+02 0.418E+02   0.187E+02 -.328E+02 -.466E+02   -.161E+01 0.363E+01 0.422E+01   0.743E-06 -.175E-04 -.383E-04
   0.535E+02 -.656E+01 0.332E+01   -.599E+02 0.720E+01 -.388E+01   0.616E+01 -.115E+01 0.382E+00   -.279E-04 -.989E-05 -.177E-04
   -.242E+02 -.491E+02 0.144E+01   0.275E+02 0.556E+02 -.148E+01   -.221E+01 -.523E+01 0.160E-01   0.430E-05 0.111E-04 -.267E-04
   -.126E+02 0.244E+02 -.462E+02   0.141E+02 -.271E+02 0.514E+02   -.180E+01 0.221E+01 -.454E+01   -.794E-05 -.225E-04 0.539E-05
   0.330E+00 0.245E+01 -.369E+00   -.406E+00 -.287E+01 0.503E+00   -.537E+00 0.325E+00 -.717E+00   -.331E-04 -.112E-03 -.251E-03
 -----------------------------------------------------------------------------------------------
   0.101E+00 0.620E+00 -.456E-01   0.533E-14 0.000E+00 0.000E+00   -.692E-02 -.208E+00 -.646E+00   -.639E-04 -.151E-03 -.329E-03


 POSITION                                       TOTAL-FORCE (eV/Angst)
 -----------------------------------------------------------------------------------
      5.26927      3.95861      3.58548         0.169115      0.175071     -0.597094
      3.86468      4.67993      4.35691        -0.210068     -0.507504     -0.180009
      5.40102      5.50166      4.40256         1.074431      1.338431     -0.024494
      5.18907      4.06036      5.35994        -0.326856     -0.507025      0.692750
      4.93213      4.54980      4.42753        -0.612920     -0.086549     -0.582758
 -----------------------------------------------------------------------------------
    total drift:                                0.093702      0.412424     -0.691605


--------------------------------------------------------------------------------------------------------



  FREE ENERGIE OF THE ION-ELECTRON SYSTEM (eV)
  ---------------------------------------------------
  free  energy   TOTEN  =       -23.97782909 eV

  energy  without entropy=      -24.01421104  energy(sigma->0) =      -23.98995640



--------------------------------------------------------------------------------------------------------


    POTLOK:  cpu time    1.5539: real time    1.5575


--------------------------------------------------------------------------------------------------------


           RANDOM_SEED =         578495940                0                0
           RANDOM_SEED =         578495940               30                0
   IONSTEP:  cpu time    0.0017: real time    0.0018

  ENERGY OF THE ELECTRON-ION-THERMOSTAT SYSTEM (eV)
  ---------------------------------------------------
% ion-electron   TOTEN  =       -23.977829  see above
  kinetic energy EKIN   =         0.041770
  kin. lattice  EKIN_LAT=         0.000000  (temperature   80.79 K)
  nose potential ES     =         0.000000
  nose kinetic   EPS    =         0.000030
  ---------------------------------------------------
  total energy   ETOTAL =       -23.936029 eV

  maximum distance moved by ions :      0.61E-02


 mean value of Nose-termostat <S>:     1.008 mean value of <T> :    80.786
 mean temperature <T/S>/<1/S>  :    80.786

    WAVPRE:  cpu time    0.4076: real time    0.4131
    FEWALD:  cpu time    0.0004: real time    0.0004
    ORTHCH:  cpu time    0.1868: real time    0.1873
     LOOP+:  cpu time   80.3976: real time   80.5964


--------------------------------------- Iteration      2(   1)  ---------------------------------------


    POTLOK:  cpu time    1.4956: real time    1.4993
    SETDIJ:  cpu time    0.0064: real time    0.0065
     EDDAV:  cpu time    1.8154: real time    1.8197
       DOS:  cpu time    0.0002: real time    0.0002
    CHARGE:  cpu time    0.1444: real time    0.1448
    MIXING:  cpu time    0.0373: real time    0.0374
    --------------------------------------------
      LOOP:  cpu time    3.4995: real time    3.5079

 eigenvalue-minimisations  :    64
 total energy-change (2. order) :-0.8163246E-01  (-0.3296798E+00)
 number of electron       8.0000002 magnetization 
 augmentation part        0.1835804 magnetization 

 Broyden mixing:
  rms(total) = 0.92127E-01    rms(broyden)= 0.92049E-01
  rms(prec ) = 0.11308E+00
  weight for this iteration     100.00

 Free energy of the ion-electron system (eV)
  ---------------------------------------------------
  alpha Z        PSCENC =         0.25715048
  Ewald energy   TEWEN  =       125.17252164
  -Hartree energ DENC   =      -282.88578306
  -exchange      EXHF   =         0.00000000
  -V(xc)+E(xc)   XCENC  =        24.79533916
  PAW double counting   =       491.16440992     -491.96954291
  entropy T*S    EENTRO =         0.01206949
  eigenvalues    EBANDS =       -87.64737993
  atomic energy  EATOM  =       197.04175453
  Solvation  Ediel_sol  =         0.00000000
  ---------------------------------------------------
  free energy    TOTEN  =       -24.05946068 eV

  energy without entropy =      -24.07153017  energy(sigma->0) =      -24.06348384


--------------------------------------------------------------------------------------------------------




--------------------------------------- Iteration      2(   2)  ---------------------------------------


    POTLOK:  cpu time    1.3712: real time    1.3745
    SETDIJ:  cpu time    0.0065: real time    0.0066
    EDDIAG:  cpu time    0.3672: real time    0.3681
  RMM-DIIS:  cpu time    1.3101: real time    1.3132
    ORTHCH:  cpu time    0.0111: real time    0.0111
       DOS:  cpu time    0.0002: real time    0.0002
    CHARGE:  cpu time    0.1505: real time    0.1508
    MIXING:  cpu time    0.0555: real time    0.0556
    --------------------------------------------
      LOOP:  cpu time    3.2723: real time    3.2801

 eigenvalue-minimisations  :    64
 total energy-change (2. order) : 0.1365997E-01  (-0.2132268E-01)
 number of electron       8.0000002 magnetization 
 augmentation part        0.1866663 magnetization 

 Broyden mixing:
  rms(total) = 0.48542E-01    rms(broyden)= 0.48526E-01
  rms(prec ) = 0.64020E-01
  weight for this iteration     100.00

 eigenvalues of (default mixing * dielectric matrix)
  average eigenvalue GAMMA=   2.1458
  8.2838  5.3573  4.2909  2.9248  2.9248  2.2842  2.2263  2.1348  1.2001  1.2001
  1.2299  1.2299  0.6717  0.6717  0.9889  0.8806  0.8806  0.7427  0.6467

 Free energy of the ion-electron system (eV)
  ---------------------------------------------------
  alpha Z        PSCENC =         0.25715048
  Ewald energy   TEWEN  =       125.17252164
  -Hartree energ DENC   =      -279.35205612
  -exchange      EXHF   =         0.00000000
  -V(xc)+E(xc)   XCENC  =        24.58242501
  PAW double counting   =       452.47792309     -453.25708515
  entropy T*S    EENTRO =         0.01448212
  eigenvalues    EBANDS =       -90.98291632
  atomic energy  EATOM  =       197.04175453
  Solvation  Ediel_sol  =         0.00000000
  ---------------------------------------------------
  free energy    TOTEN  =       -24.04580071 eV

  energy without entropy =      -24.06028283  energy(sigma->0) =      -24.05062808


--------------------------------------------------------------------------------------------------------




--------------------------------------- Iteration      2(   3)  ---------------------------------------


    POTLOK:  cpu time    1.3325: real time    1.3357
    SETDIJ:  cpu time    0.0064: real time    0.0064
    EDDIAG:  cpu time    0.3697: real time    0.3706
  RMM-DIIS:  cpu time    1.2896: real time    1.2926
    ORTHCH:  cpu time    0.0107: real time    0.0107
       DOS:  cpu time    0.0002: real time    0.0002
    CHARGE:  cpu time    0.1407: real time    0.1411
    MIXING:  cpu time    0.0551: real time    0.0552
    --------------------------------------------
      LOOP:  cpu time    3.2049: real time    3.2125

 eigenvalue-minimisations  :    64
 total energy-change (2. order) :-0.9825523E-02  (-0.4304330E-02)
 number of electron       8.0000002 magnetization 
 augmentation part        0.1857968 magnetization 

 Broyden mixing:
  rms(total) = 0.57488E-01    rms(broyden)= 0.57484E-01
  rms(prec ) = 0.76298E-01
  weight for this iteration     100.00

 eigenvalues of (default mixing * dielectric matrix)
  average eigenvalue GAMMA=   2.1086
  8.2837  5.3574  4.2912  2.9302  2.9302  2.5332  2.2763  2.1896  1.2017  1.2017
  1.2515  1.2234  0.6717  0.6717  1.0125  0.9833  0.8861  0.8861  0.7430  0.6468

 Free energy of the ion-electron system (eV)
  ---------------------------------------------------
  alpha Z        PSCENC =         0.25715048
[...]
  rms(total) = 0.59424E-03    rms(broyden)= 0.59043E-03
  rms(prec ) = 0.76990E-03
  weight for this iteration     100.00

 eigenvalues of (default mixing * dielectric matrix)
  average eigenvalue GAMMA=   2.4206
  6.4173  5.9787  4.7893  0.3299  0.4489  4.2753  0.8566  0.8566  1.0165  1.0165
  0.9891  0.9891  1.0028  1.6838  1.6838  1.5245  1.5245  1.6069  2.0446  2.0446
  3.4717  3.4717  3.3418  3.3418  1.8951  1.8951  3.2482  2.0807  2.4832  2.4832
  2.2890  2.2890  3.0679  2.8591  2.8591  2.9626  2.2284  2.8016  2.6487  2.6487
  2.7019  2.7019  2.3942  2.4905  2.4905  2.4667  2.5677  2.7089  2.6386

 Free energy of the ion-electron system (eV)
  ---------------------------------------------------
  alpha Z        PSCENC =         0.25715048
  Ewald energy   TEWEN  =       129.92407376
  -Hartree energ DENC   =      -285.27553923
  -exchange      EXHF   =         0.00000000
  -V(xc)+E(xc)   XCENC  =        24.91315999
  PAW double counting   =       474.94326530     -475.74476505
  entropy T*S    EENTRO =         0.02389576
  eigenvalues    EBANDS =       -90.05191886
  atomic energy  EATOM  =       197.04175453
  Solvation  Ediel_sol  =         0.00000000
  ---------------------------------------------------
  free energy    TOTEN  =       -23.96892332 eV

  energy without entropy =      -23.99281908  energy(sigma->0) =      -23.97688858


--------------------------------------------------------------------------------------------------------




--------------------------------------- Iteration     10(  13)  ---------------------------------------


    POTLOK:  cpu time    1.8135: real time    1.8180
    SETDIJ:  cpu time    0.0123: real time    0.0123
    EDDIAG:  cpu time    0.4766: real time    0.4779
  RMM-DIIS:  cpu time    1.7510: real time    1.7578
    ORTHCH:  cpu time    0.0108: real time    0.0108
       DOS:  cpu time    0.0002: real time    0.0002
    CHARGE:  cpu time    0.1741: real time    0.1745
    MIXING:  cpu time    0.1773: real time    0.1778
    --------------------------------------------
      LOOP:  cpu time    4.4157: real time    4.4293

 eigenvalue-minimisations  :    64
 total energy-change (2. order) :-0.1315635E-04  (-0.5251383E-06)
 number of electron       7.9999996 magnetization 
 augmentation part        0.1898169 magnetization 

 Broyden mixing:
  rms(total) = 0.21941E-03    rms(broyden)= 0.21740E-03
  rms(prec ) = 0.29747E-03
  weight for this iteration     100.00

 eigenvalues of (default mixing * dielectric matrix)
  average eigenvalue GAMMA=   2.4902
  6.0998  5.7211  4.6937  4.6937  0.3611  0.4367  0.9824  0.9824  1.1422  1.1422
  1.1668  3.5765  1.4975  1.4975  1.4747  3.3073  3.3073  3.2690  2.0111  2.0111
  1.8419  1.8419  2.3124  2.3124  2.0073  2.8074  2.8074  2.0798  2.9049  2.9049
  2.9461  2.9461  2.2007  2.2856  2.5200  2.5200  2.7762  2.7762  2.4060  2.5709
  2.5709  2.5972  2.5972  2.6380  2.5127

 Free energy of the ion-electron system (eV)
  ---------------------------------------------------
  alpha Z        PSCENC =         0.25715048
  Ewald energy   TEWEN  =       129.92407376
  -Hartree energ DENC   =      -285.28782209
  -exchange      EXHF   =         0.00000000
  -V(xc)+E(xc)   XCENC  =        24.91363133
  PAW double counting   =       474.85792261     -475.65955643
  entropy T*S    EENTRO =         0.02390527
  eigenvalues    EBANDS =       -90.03999593
  atomic energy  EATOM  =       197.04175453
  Solvation  Ediel_sol  =         0.00000000
  ---------------------------------------------------
  free energy    TOTEN  =       -23.96893648 eV

  energy without entropy =      -23.99284175  energy(sigma->0) =      -23.97690490


--------------------------------------------------------------------------------------------------------




--------------------------------------- Iteration     10(  14)  ---------------------------------------


    POTLOK:  cpu time    1.7824: real time    1.7867
    SETDIJ:  cpu time    0.0119: real time    0.0119
    EDDIAG:  cpu time    0.5505: real time    0.5522
  RMM-DIIS:  cpu time    1.3855: real time    1.3890
    ORTHCH:  cpu time    0.0209: real time    0.0210
       DOS:  cpu time    0.0004: real time    0.0004
    CHARGE:  cpu time    0.1860: real time    0.1865
    MIXING:  cpu time    0.1886: real time    0.1890
    --------------------------------------------
      LOOP:  cpu time    4.1261: real time    4.1368

 eigenvalue-minimisations  :    48
 total energy-change (2. order) :-0.6160222E-05  (-0.5009528E-07)
 number of electron       7.9999996 magnetization 
 augmentation part        0.1898165 magnetization 

 Broyden mixing:
  rms(total) = 0.14518E-03    rms(broyden)= 0.14487E-03
  rms(prec ) = 0.18853E-03
  weight for this iteration     100.00

 eigenvalues of (default mixing * dielectric matrix)
  average eigenvalue GAMMA=   2.4915
  6.1293  5.8376  5.2863  4.6200  0.3888  0.5225  0.7828  0.7828  1.2210  1.2210
  1.1486  1.1486  1.3892  1.3892  3.5506  3.3669  3.3669  3.4230  2.1221  2.1221
  1.7971  1.9969  1.9969  1.8640  2.0450  2.0450  3.0844  2.1433  2.3561  2.3561
  2.7365  2.7365  2.9245  2.9245  2.8953  2.8953  2.5789  2.5789  2.7625  2.6630
  2.6630  2.6614  2.6614  2.4270  2.4798  2.5175

 Free energy of the ion-electron system (eV)
  ---------------------------------------------------
  alpha Z        PSCENC =         0.25715048
  Ewald energy   TEWEN  =       129.92407376
  -Hartree energ DENC   =      -285.28553037
  -exchange      EXHF   =         0.00000000
  -V(xc)+E(xc)   XCENC  =        24.91352111
  PAW double counting   =       474.88544920     -475.68706344
  entropy T*S    EENTRO =         0.02389917
  eigenvalues    EBANDS =       -90.04219709
  atomic energy  EATOM  =       197.04175453
  Solvation  Ediel_sol  =         0.00000000
  ---------------------------------------------------
  free energy    TOTEN  =       -23.96894264 eV

  energy without entropy =      -23.99284181  energy(sigma->0) =      -23.97690903


--------------------------------------------------------------------------------------------------------




--------------------------------------- Iteration     10(  15)  ---------------------------------------


    POTLOK:  cpu time    1.8626: real time    1.8742
    SETDIJ:  cpu time    0.0115: real time    0.0157
    EDDIAG:  cpu time    0.5032: real time    0.5044
  RMM-DIIS:  cpu time    1.2959: real time    1.2990
    ORTHCH:  cpu time    0.0207: real time    0.0207
       DOS:  cpu time    0.0003: real time    0.0003
    CHARGE:  cpu time    0.2015: real time    0.2020
    MIXING:  cpu time    0.1895: real time    0.1899
    --------------------------------------------
      LOOP:  cpu time    4.0851: real time    4.1063

 eigenvalue-minimisations  :    48
 total energy-change (2. order) :-0.1795134E-05  (-0.1795109E-07)
 number of electron       7.9999996 magnetization 
 augmentation part        0.1898166 magnetization 

 Broyden mixing:
  rms(total) = 0.57358E-04    rms(broyden)= 0.57221E-04
  rms(prec ) = 0.77629E-04
  weight for this iteration     100.00

 eigenvalues of (default mixing * dielectric matrix)
  average eigenvalue GAMMA=   2.5010
  6.1593  6.1593  5.9454  4.6869  0.3968  0.3968  0.8204  1.0042  1.0042  0.9568
  1.3103  1.3103  1.2422  1.2422  3.5428  3.3758  3.3758  3.4084  1.4435  3.1225
  3.1225  2.7413  2.7413  2.0895  2.0895  1.8335  1.8335  2.0586  2.0586  2.1203
  2.1437  2.1437  2.9201  2.9201  2.5496  2.5496  2.6228  2.6228  2.4473  2.4473
  2.8036  2.8036  2.6927  2.6927  2.4844  2.5546  2.5546

 Free energy of the ion-electron system (eV)
  ---------------------------------------------------
  alpha Z        PSCENC =         0.25715048
  Ewald energy   TEWEN  =       129.92407376
  -Hartree energ DENC   =      -285.28471029
  -exchange      EXHF   =         0.00000000
  -V(xc)+E(xc)   XCENC  =        24.91348596
  PAW double counting   =       474.87812166     -475.67972726
  entropy T*S    EENTRO =         0.02390423
  eigenvalues    EBANDS =       -90.04299749
  atomic energy  EATOM  =       197.04175453
  Solvation  Ediel_sol  =         0.00000000
  ---------------------------------------------------
  free energy    TOTEN  =       -23.96894443 eV

  energy without entropy =      -23.99284867  energy(sigma->0) =      -23.97691251


--------------------------------------------------------------------------------------------------------




--------------------------------------- Iteration     10(  16)  ---------------------------------------


    POTLOK:  cpu time    1.9104: real time    1.9185
    SETDIJ:  cpu time    0.0064: real time    0.0064
    EDDIAG:  cpu time    0.4611: real time    0.4622
  RMM-DIIS:  cpu time    1.2060: real time    1.2089
    ORTHCH:  cpu time    0.0208: real time    0.0208
       DOS:  cpu time    0.0004: real time    0.0004
    --------------------------------------------
      LOOP:  cpu time    3.6050: real time    3.6171

 eigenvalue-minimisations  :    40
 total energy-change (2. order) :-0.4304531E-06  (-0.4530685E-08)
 number of electron       7.9999996 magnetization 
 augmentation part        0.1898166 magnetization 

 Free energy of the ion-electron system (eV)
  ---------------------------------------------------
  alpha Z        PSCENC =         0.25715048
  Ewald energy   TEWEN  =       129.92407376
  -Hartree energ DENC   =      -285.28482567
  -exchange      EXHF   =         0.00000000
  -V(xc)+E(xc)   XCENC  =        24.91349941
  PAW double counting   =       474.88360688     -475.68521135
  entropy T*S    EENTRO =         0.02390215
  eigenvalues    EBANDS =       -90.04289504
  atomic energy  EATOM  =       197.04175453
  Solvation  Ediel_sol  =         0.00000000
  ---------------------------------------------------
  free energy    TOTEN  =       -23.96894487 eV

  energy without entropy =      -23.99284702  energy(sigma->0) =      -23.97691225


--------------------------------------------------------------------------------------------------------




 average (electrostatic) potential at core
  the test charge radii are     0.5201  0.6991
  (the norm of the test charge is              1.0000)
       1 -41.8451       2 -41.4237       3 -41.6820       4 -41.4306       5 -57.8628



 E-fermi :  -9.0181     XC(G=0):  -0.7326     alpha+bet : -0.2236


 k-point     1 :       0.2500    0.2500    0.2500
  band No.  band energies     occupation 
      1     -17.0108      2.00000
      2      -9.6311      2.00013
      3      -9.2074      2.03722
      4      -9.1717      1.96269
      5      -0.2920      0.00000
      6       0.6096      0.00000
      7       0.6985      0.00000
      8       0.7336      0.00000

 k-point     2 :      -0.2500    0.2500    0.2500
  band No.  band energies     occupation 
      1     -17.0107      2.00000
      2      -9.6308      2.00013
      3      -9.2073      2.03714
      4      -9.1716      1.96259
      5      -0.2913      0.00000
      6       0.5988      0.00000
      7       0.6963      0.00000
      8       0.7386      0.00000

 k-point     3 :       0.2500   -0.2500    0.2500
  band No.  band energies     occupation 
      1     -17.0108      2.00000
      2      -9.6310      2.00013
      3      -9.2074      2.03734
      4      -9.1717      1.96274
      5      -0.2919      0.00000
      6       0.5991      0.00000
      7       0.7076      0.00000
      8       0.7331      0.00000

 k-point     4 :      -0.2500   -0.2500    0.2500
  band No.  band energies     occupation 
      1     -17.0107      2.00000
      2      -9.6310      2.00013
      3      -9.2074      2.03724
      4      -9.1716      1.96252
      5      -0.2885      0.00000
      6       0.5991      0.00000
      7       0.7026      0.00000
      8       0.7186      0.00000


--------------------------------------------------------------------------------------------------------


 soft charge-density along one line, spin component           1
         0         1         2         3         4         5         6         7         8         9
 total charge-density along one line

 pseudopotential strength for first ion, spin component:           1
 -2.344  -4.041  -0.001  -0.001   0.001
 -4.041  -6.878  -0.003  -0.005   0.003
 -0.001  -0.003  -0.336   0.002  -0.001
 -0.001  -0.005   0.002  -0.334  -0.002
  0.001   0.003  -0.001  -0.002  -0.336
 total augmentation occupancy for first ion, spin component:           1
  3.972  -0.767   0.185   0.350  -0.172
 -0.767   0.164  -0.037  -0.069   0.034
  0.185  -0.037   0.017   0.013  -0.005
  0.350  -0.069   0.013   0.035  -0.012
 -0.172   0.034  -0.005  -0.012   0.015


------------------------ aborting loop because EDIFF is reached ----------------------------------------


    CHARGE:  cpu time    0.1553: real time    0.1557
    FORLOC:  cpu time    0.1038: real time    0.1041
    FORNL :  cpu time    0.7335: real time    0.7352
    STRESS:  cpu time    2.2046: real time    2.2099
    FORCOR:  cpu time    1.9674: real time    1.9750
    FORHAR:  cpu time    0.6580: real time    0.6595
    MIXING:  cpu time    0.1582: real time    0.1586
    OFIELD:  cpu time    0.0000: real time    0.0000

  FORCE on cell =-STRESS in cart. coord.  units (eV):
  Direction    XX          YY          ZZ          XY          YZ          ZX
  --------------------------------------------------------------------------------------
  Alpha Z     0.25715     0.25715     0.25715
  Ewald      45.79305    43.05144    41.07955    -3.26752     2.87676    -2.75741
  Hartree    96.47072    95.54811    93.26611    -0.96243     0.38050    -0.15716
  E(xc)     -27.38356   -27.40887   -27.39685    -0.01748     0.00449    -0.00816
  Local    -200.85126  -197.04388  -192.96804     3.63691    -2.53793     1.94317
  n-local   -17.06974   -16.13402   -16.64985     0.19425    -0.11261     0.22685
  augment     0.11216     0.10881     0.11210     0.00384    -0.00650     0.00853
  Kinetic   102.04351   102.61931   102.13829     1.06006     0.20024     0.76028
  Fock        0.00000     0.00000     0.00000     0.00000     0.00000     0.00000
  -------------------------------------------------------------------------------------
  Total      -0.62798     0.99805    -0.16154     0.64763     0.80496     0.01610
  in kB      -1.06801     1.69741    -0.27473     1.10143     1.36900     0.02738
  external pressure =        0.12 kB  Pullay stress =        0.00 kB

  kinetic pressure (ideal gas correction) =      0.14 kB
  total pressure  =      0.25 kB
  Total+kin.    -1.007       1.777      -0.007       1.097       1.342       0.034

 VOLUME and BASIS-vectors are now :
 -----------------------------------------------------------------------------
  energy-cutoff  :      400.00
  volume of cell :      942.06
      direct lattice vectors                 reciprocal lattice vectors
     9.760901056  0.000000000  0.000000000     0.102449558  0.000723728 -0.001206857
    -0.068572643  9.707019237  0.000000000     0.000000000  0.103018236 -0.000317805
     0.116907829  0.030672446  9.942648091     0.000000000 -0.000000000  0.100576827

  length of vectors
     9.760901056  9.707261441  9.943382689     0.102459222  0.103018726  0.100576827


 FORCES acting on ions
    electron-ion (+dipol)            ewald-force                    non-local-force                 convergence-correction
 -----------------------------------------------------------------------------------------------
   -.246E+02 0.260E+02 0.414E+02   0.278E+02 -.296E+02 -.472E+02   -.239E+01 0.211E+01 0.425E+01   -.368E-04 -.233E-04 -.316E-04
   0.529E+02 -.487E+01 0.535E+01   -.586E+02 0.515E+01 -.610E+01   0.664E+01 -.948E+00 0.308E+00   -.347E-04 -.387E-04 -.331E-04
   -.203E+02 -.502E+02 -.460E+01   0.230E+02 0.567E+02 0.527E+01   -.278E+01 -.513E+01 -.318E+00   -.145E-05 0.374E-05 0.281E-04
   -.104E+02 0.246E+02 -.452E+02   0.114E+02 -.269E+02 0.494E+02   -.939E+00 0.245E+01 -.479E+01   -.863E-05 -.149E-05 0.188E-04
   0.281E+01 0.481E+01 0.168E+01   -.363E+01 -.523E+01 -.143E+01   -.396E+00 0.127E+01 0.142E+01   -.481E-03 0.348E-04 -.217E-03
 -----------------------------------------------------------------------------------------------
   0.426E+00 0.334E+00 -.133E+01   0.000E+00 0.355E-14 -.711E-14   0.136E+00 -.243E+00 0.877E+00   -.563E-03 -.250E-04 -.235E-03


 POSITION                                       TOTAL-FORCE (eV/Angst)
 -----------------------------------------------------------------------------------
      5.41068      4.04473      3.61968         0.812988     -1.534037     -1.478503
      3.85047      4.64906      4.31357         0.976506     -0.661719     -0.443817
      5.32993      5.53112      4.51588        -0.079487      1.290157      0.346714
      5.15362      4.03274      5.37743         0.072912      0.141128     -0.553942
      4.93041      4.54504      4.41740        -1.221307      0.854972      1.678931
 -----------------------------------------------------------------------------------
    total drift:                                0.561612      0.090501     -0.450615


--------------------------------------------------------------------------------------------------------



  FREE ENERGIE OF THE ION-ELECTRON SYSTEM (eV)
  ---------------------------------------------------
  free  energy   TOTEN  =       -23.96894487 eV

  energy  without entropy=      -23.99284702  energy(sigma->0) =      -23.97691225

 d Force = 0.2944191E-01[-0.168E+00, 0.227E+00]  d Energy = 0.9106013E-03 0.285E-01
 d Force =-0.2362575E+01[-0.271E+01,-0.201E+01]  d Ewald  =-0.2364256E+01 0.168E-02


--------------------------------------------------------------------------------------------------------


    POTLOK:  cpu time    1.8867: real time    1.8914


--------------------------------------------------------------------------------------------------------


           RANDOM_SEED =         578495940               30                0
   IONSTEP:  cpu time    0.0001: real time    0.0001

  ENERGY OF THE ELECTRON-ION-THERMOSTAT SYSTEM (eV)
  ---------------------------------------------------
% ion-electron   TOTEN  =       -23.968945  see above
  kinetic energy EKIN   =         0.067864
  kin. lattice  EKIN_LAT=         0.000000  (temperature  131.25 K)
  nose potential ES     =         0.042724
  nose kinetic   EPS    =         0.072386
  ---------------------------------------------------
  total energy   ETOTAL =       -23.785971 eV

  maximum distance moved by ions :      0.55E-02


 mean value of Nose-termostat <S>:     2.772 mean value of <T> :   131.254
 mean temperature <T/S>/<1/S>  :   131.254

    WAVPRE:  cpu time    0.5444: real time    0.6308
    FEWALD:  cpu time    0.0007: real time    0.0007
    ORTHCH:  cpu time    0.2176: real time    0.2181
 Prediction of Wavefunctions ALPHA= 0.203 BETA=-0.258
    POTLOK:  cpu time    1.8477: real time    1.8520
    EDDIAG:  cpu time    0.5451: real time    0.5482
     LOOP+:  cpu time   79.9767: real time   80.8674
    4ORBIT:  cpu time    0.0000: real time    0.0000

 total amount of memory used by VASP MPI-rank0   276960. kBytes
=======================================================================

   base      :      30000. kBytes
   nonlr-proj:        149. kBytes
   fftplans  :      79164. kBytes
   grid      :     141295. kBytes
   one-center:         15. kBytes
   wavefun   :      26337. kBytes

  
  
 General timing and accounting informations for this job:
 ========================================================
  
                  Total CPU time used (sec):      636.193
                            User time (sec):      623.680
                          System time (sec):       12.512
                         Elapsed time (sec):      639.039
  
                   Maximum memory used (kb):      430560.
                   Average memory used (kb):           0.
  
                          Minor page faults:      2109562
                          Major page faults:            0
                 Voluntary context switches:          407
