 running on    1 total cores
 distrk:  each k-point on    1 cores,    1 groups
 distr:  one band on    1 cores,    1 groups
 using from now: INCAR     
 vasp.5.4.4.18Apr17-6-g9f103f2a35 (build Jul 12 2018 13:43:46) complex           
 POSCAR found type information on POSCAR  H  C 
 POSCAR found :  2 types and       5 ions
 scaLAPACK will be used

 ----------------------------------------------------------------------------- 
|                                                                             |
|  ADVICE TO THIS USER RUNNING 'VASP/VAMP'   (HEAR YOUR MASTER'S VOICE ...):  |
|                                                                             |
|      You have a (more or less) 'small supercell' and for smaller cells      |
|      it is recommended  to use the reciprocal-space projection scheme!      |
|      The real space optimization is not  efficient for small cells and it   |
|      is also less accurate ...                                              |
|      Therefore set LREAL=.FALSE. in the  INCAR file                         |
|                                                                             |
 ----------------------------------------------------------------------------- 


 ----------------------------------------------------------------------------- 
|                                                                             |
|           W    W    AA    RRRRR   N    N  II  N    N   GGGG   !!!           |
|           W    W   A  A   R    R  NN   N  II  NN   N  G    G  !!!           |
|           W    W  A    A  R    R  N N  N  II  N N  N  G       !!!           |
|           W WW W  AAAAAA  RRRRR   N  N N  II  N  N N  G  GGG   !            |
|           WW  WW  A    A  R   R   N   NN  II  N   NN  G    G                |
|           W    W  A    A  R    R  N    N  II  N    N   GGGG   !!!           |
|                                                                             |
|     The real-space-projection scheme for the treatment of the nonlocal      |
|     pseudopotentials has been switched on -- but on file POTCAR I have      |
|     not found any entries signalling me that you have ever performed a      |
|     real-space optimization of all nonlocal projectors! BE WARNED that      |
|     a calculation using the real-space-projection scheme together with      |
|     nonlocal projectors which were not real-space-optimized (according      |
|     to the plane-wave-cutoff used in this calculation) might give more      |
|     or less inaccurate results                                              |
|     I hope you know what you are doing                                      |
|                                                                             |
 ----------------------------------------------------------------------------- 

 LDA part: xc-table for Pade appr. of Perdew
 generate k-points for:    2    2    2
 POSCAR, INCAR and KPOINTS ok, starting setup
 FFT: planning ...
 WAVECAR not read
 prediction of wavefunctions initialized - no I/O
 entering main loop
       N       E                     dE             d eps       ncg     rms          rms(c)
DAV:   1     0.889582157351E+01    0.88958E+01   -0.20975E+03   104   0.421E+02
DAV:   2    -0.240475294673E+02   -0.32943E+02   -0.32944E+02    64   0.110E+02
DAV:   3    -0.276763997063E+02   -0.36289E+01   -0.36470E+01    64   0.414E+01
DAV:   4    -0.278166249527E+02   -0.14023E+00   -0.13920E+00   128   0.859E+00
DAV:   5    -0.278166660598E+02   -0.41107E-04   -0.41107E-04    96   0.164E-01    0.912E+00
RMM:   6    -0.246652584810E+02    0.31514E+01   -0.59412E+00    64   0.150E+01    0.447E+00
RMM:   7    -0.241322139010E+02    0.53304E+00   -0.14331E+00    64   0.697E+00    0.244E+00
RMM:   8    -0.240204419247E+02    0.11177E+00   -0.10635E-01    64   0.214E+00    0.125E+00
RMM:   9    -0.239735313712E+02    0.46911E-01   -0.52218E-02    64   0.172E+00    0.517E-01
RMM:  10    -0.239704087428E+02    0.31226E-02   -0.10229E-02    64   0.592E-01    0.333E-01
RMM:  11    -0.239672633361E+02    0.31454E-02   -0.92018E-03    64   0.543E-01    0.362E-01
RMM:  12    -0.239647555483E+02    0.25078E-02   -0.11354E-03    64   0.233E-01    0.789E-02
RMM:  13    -0.239722449117E+02   -0.74894E-02   -0.50508E-03    64   0.459E-01    0.138E-01
RMM:  14    -0.239743431877E+02   -0.20983E-02   -0.13743E-03    64   0.227E-01    0.706E-02
RMM:  15    -0.239761586291E+02   -0.18154E-02   -0.62622E-04    64   0.162E-01    0.115E-01
RMM:  16    -0.239772811445E+02   -0.11225E-02   -0.31715E-04    64   0.110E-01    0.597E-02
RMM:  17    -0.239775926696E+02   -0.31153E-03   -0.10921E-04    64   0.651E-02    0.146E-02
RMM:  18    -0.239777380332E+02   -0.14536E-03   -0.13667E-05    64   0.241E-02    0.820E-03
RMM:  19    -0.239778051744E+02   -0.67141E-04   -0.39723E-06    60   0.135E-02    0.152E-02
RMM:  20    -0.239778175740E+02   -0.12400E-04   -0.17171E-06    48   0.823E-03    0.214E-03
RMM:  21    -0.239778256932E+02   -0.81191E-05   -0.15919E-06    48   0.838E-03    0.129E-03
RMM:  22    -0.239778282192E+02   -0.25260E-05   -0.19576E-07    48   0.358E-03    0.818E-04
RMM:  23    -0.239778290853E+02   -0.86612E-06   -0.11255E-07    48   0.215E-03
    1 T=    81. E= -.23936029E+02 F= -.23977829E+02 E0= -.23989956E+02  EK= 0.41770E-01 SP= 0.00E+00 SK= 0.30E-04
 bond charge predicted
       N       E                     dE             d eps       ncg     rms          rms(c)
DAV:   1    -0.240594606803E+02   -0.81632E-01   -0.32968E+00    64   0.168E+01    0.921E-01
RMM:   2    -0.240458007118E+02    0.13660E-01   -0.21323E-01    64   0.291E+00    0.485E-01
RMM:   3    -0.240556262346E+02   -0.98255E-02   -0.43043E-02    64   0.139E+00    0.575E-01
RMM:   4    -0.240499133673E+02    0.57129E-02   -0.77119E-03    64   0.566E-01    0.410E-01
RMM:   5    -0.240466394152E+02    0.32740E-02   -0.37577E-03    64   0.374E-01    0.241E-01
RMM:   6    -0.240461998490E+02    0.43957E-03   -0.39230E-04    64   0.137E-01    0.200E-01
RMM:   7    -0.240457116501E+02    0.48820E-03   -0.35745E-04    64   0.125E-01    0.156E-01
RMM:   8    -0.240452796787E+02    0.43197E-03   -0.38039E-04    64   0.123E-01    0.115E-01
RMM:   9    -0.240449401239E+02    0.33955E-03   -0.39743E-04    64   0.128E-01    0.744E-02
RMM:  10    -0.240448529671E+02    0.87157E-04   -0.10328E-04    64   0.672E-02    0.566E-02
RMM:  11    -0.240447974658E+02    0.55501E-04   -0.89659E-05    64   0.601E-02    0.395E-02
RMM:  12    -0.240447601785E+02    0.37287E-04   -0.92944E-05    64   0.616E-02    0.202E-02
RMM:  13    -0.240447540670E+02    0.61115E-05   -0.29564E-05    64   0.354E-02    0.110E-02
RMM:  14    -0.240447572014E+02   -0.31344E-05   -0.19555E-05    64   0.288E-02    0.276E-03
RMM:  15    -0.240447633388E+02   -0.61374E-05   -0.14805E-06    48   0.936E-03    0.300E-03
RMM:  16    -0.240447638964E+02   -0.55767E-06   -0.16601E-06    48   0.934E-03
    2 T=   152. E= -.23964691E+02 F= -.24044764E+02 E0= -.24049428E+02  EK= 0.78809E-01 SP= 0.39E-03 SK= 0.87E-03
 bond charge predicted
 prediction of wavefunctions
       N       E                     dE             d eps       ncg     rms          rms(c)
DAV:   1    -0.240122452174E+02    0.32518E-01   -0.13843E+00    64   0.117E+01    0.504E-01
RMM:   2    -0.240146238255E+02   -0.23786E-02   -0.47473E-02    64   0.175E+00    0.403E-01
RMM:   3    -0.240174358504E+02   -0.28120E-02   -0.58475E-02    64   0.148E+00    0.402E-01
RMM:   4    -0.240200764107E+02   -0.26406E-02   -0.15134E-02    64   0.759E-01    0.448E-01
RMM:   5    -0.240137540349E+02    0.63224E-02   -0.64876E-03    64   0.509E-01    0.226E-01
RMM:   6    -0.240132205030E+02    0.53353E-03   -0.88322E-04    64   0.194E-01    0.183E-01
RMM:   7    -0.240122851645E+02    0.93534E-03   -0.15064E-03    64   0.248E-01    0.862E-02
RMM:   8    -0.240122554450E+02    0.29719E-04   -0.11485E-04    64   0.749E-02    0.736E-02
RMM:   9    -0.240121599244E+02    0.95521E-04   -0.14837E-04    64   0.782E-02    0.471E-02
RMM:  10    -0.240121106940E+02    0.49230E-04   -0.12451E-04    64   0.716E-02    0.217E-02
RMM:  11    -0.240121049658E+02    0.57282E-05   -0.26544E-05    64   0.344E-02    0.120E-02
RMM:  12    -0.240121061440E+02   -0.11782E-05   -0.12941E-05    64   0.238E-02    0.425E-03
RMM:  13    -0.240121077003E+02   -0.15563E-05   -0.67189E-07    48   0.720E-03    0.371E-03
RMM:  14    -0.240121085629E+02   -0.86265E-06   -0.10674E-06    48   0.775E-03
    3 T=   127. E= -.23940296E+02 F= -.24012109E+02 E0= -.24015976E+02  EK= 0.65920E-01 SP= 0.21E-02 SK= 0.38E-02
 bond charge predicted
 prediction of wavefunctions
       N       E                     dE             d eps       ncg     rms          rms(c)
DAV:   1    -0.239846010367E+02    0.27507E-01   -0.60405E-01    64   0.859E+00    0.687E-01
RMM:   2    -0.241924329747E+02   -0.20783E+00   -0.67871E-01    64   0.515E+00    0.222E+00
RMM:   3    -0.240007344708E+02    0.19170E+00   -0.51247E-01    64   0.431E+00    0.633E-01
RMM:   4    -0.239861818357E+02    0.14553E-01   -0.35522E-02    64   0.121E+00    0.223E-01
RMM:   5    -0.239854118831E+02    0.76995E-03   -0.48233E-03    64   0.471E-01    0.125E-01
RMM:   6    -0.239858838741E+02   -0.47199E-03   -0.98358E-04    64   0.221E-01    0.750E-02
RMM:   7    -0.239860643026E+02   -0.18043E-03   -0.42455E-04    64   0.133E-01    0.853E-02
RMM:   8    -0.239859871280E+02    0.77175E-04   -0.15843E-03    64   0.250E-01    0.265E-02
RMM:   9    -0.239860098963E+02   -0.22768E-04   -0.39593E-05    64   0.546E-02    0.132E-02
RMM:  10    -0.239860368452E+02   -0.26949E-04   -0.16856E-05    64   0.253E-02    0.987E-03
RMM:  11    -0.239860520466E+02   -0.15201E-04   -0.75560E-06    64   0.179E-02    0.472E-03
RMM:  12    -0.239860589192E+02   -0.68725E-05   -0.17813E-06    48   0.843E-03    0.445E-03
RMM:  13    -0.239860618093E+02   -0.28901E-05   -0.24513E-06    56   0.108E-02    0.932E-04
RMM:  14    -0.239860625343E+02   -0.72501E-06   -0.23439E-07    48   0.395E-03
    4 T=   135. E= -.23903253E+02 F= -.23986063E+02 E0= -.23989928E+02  EK= 0.69764E-01 SP= 0.48E-02 SK= 0.83E-02
 bond charge predicted
 prediction of wavefunctions
       N       E                     dE             d eps       ncg     rms          rms(c)
DAV:   1    -0.239765273380E+02    0.95345E-02   -0.38060E+00    64   0.193E+01    0.849E-01
RMM:   2    -0.245976909294E+02   -0.62116E+00   -0.21615E+00    64   0.953E+00    0.373E+00
RMM:   3    -0.240022082393E+02    0.59548E+00   -0.10621E+00    64   0.654E+00    0.912E-01
RMM:   4    -0.239758246197E+02    0.26384E-01   -0.17038E-01    64   0.252E+00    0.255E-01
RMM:   5    -0.239753746875E+02    0.44993E-03   -0.92598E-03    64   0.721E-01    0.135E-01
RMM:   6    -0.239764172780E+02   -0.10426E-02   -0.19131E-03    64   0.329E-01    0.783E-02
RMM:   7    -0.239765849835E+02   -0.16771E-03   -0.11160E-03    64   0.216E-01    0.292E-02
RMM:   8    -0.239768664549E+02   -0.28147E-03   -0.15294E-04    64   0.832E-02    0.202E-02
RMM:   9    -0.239770548678E+02   -0.18841E-03   -0.52283E-05    64   0.452E-02    0.825E-03
RMM:  10    -0.239771418686E+02   -0.87001E-04   -0.57654E-05    64   0.453E-02    0.110E-02
RMM:  11    -0.239771659498E+02   -0.24081E-04   -0.40900E-06    60   0.137E-02    0.739E-03
RMM:  12    -0.239771695276E+02   -0.35779E-05   -0.14707E-05    64   0.219E-02    0.196E-03
RMM:  13    -0.239771737291E+02   -0.42015E-05   -0.36108E-07    48   0.457E-03    0.120E-03
RMM:  14    -0.239771782185E+02   -0.44894E-05   -0.22484E-07    48   0.304E-03    0.924E-04
RMM:  15    -0.239771795773E+02   -0.13587E-05   -0.10907E-07    44   0.212E-03    0.465E-04
RMM:  16    -0.239771799805E+02   -0.40324E-06   -0.95653E-08    48   0.212E-03
    5 T=   140. E= -.23881262E+02 F= -.23977180E+02 E0= -.23981144E+02  EK= 0.72353E-01 SP= 0.85E-02 SK= 0.15E-01
 bond charge predicted
 prediction of wavefunctions
       N       E                     dE             d eps       ncg     rms          rms(c)
DAV:   1    -0.239431903569E+02    0.33989E-01   -0.20732E+00    64   0.138E+01    0.713E-01
RMM:   2    -0.239832597941E+02   -0.40069E-01   -0.39942E-01    64   0.389E+00    0.115E+00
RMM:   3    -0.239446713597E+02    0.38588E-01   -0.61368E-02    64   0.152E+00    0.731E-01
RMM:   4    -0.239365276211E+02    0.81437E-02   -0.11383E-01    64   0.197E+00    0.371E-01
RMM:   5    -0.239382347699E+02   -0.17071E-02   -0.11126E-02    64   0.713E-01    0.399E-01
RMM:   6    -0.239350351522E+02    0.31996E-02   -0.46425E-03    64   0.415E-01    0.933E-02
RMM:   7    -0.239353360095E+02   -0.30086E-03   -0.38220E-04    64   0.136E-01    0.512E-02
RMM:   8    -0.239355618314E+02   -0.22582E-03   -0.85431E-05    64   0.618E-02    0.126E-02
RMM:   9    -0.239356643234E+02   -0.10249E-03   -0.98199E-05    64   0.595E-02    0.345E-02
RMM:  10    -0.239356716417E+02   -0.73183E-05   -0.59300E-05    64   0.444E-02    0.618E-03
RMM:  11    -0.239356902962E+02   -0.18655E-04   -0.40388E-06    60   0.145E-02    0.403E-03
RMM:  12    -0.239356997951E+02   -0.94989E-05   -0.11939E-06    48   0.701E-03    0.500E-03
RMM:  13    -0.239357026009E+02   -0.28058E-05   -0.72304E-07    48   0.541E-03    0.108E-03
RMM:  14    -0.239357058633E+02   -0.32624E-05   -0.43980E-07    48   0.456E-03    0.864E-04
RMM:  15    -0.239357074588E+02   -0.15955E-05   -0.20097E-07    48   0.322E-03    0.770E-04
RMM:  16    -0.239357080431E+02   -0.58432E-06   -0.36182E-08    40   0.167E-03
    6 T=   119. E= -.23837712E+02 F= -.23935708E+02 E0= -.23944365E+02  EK= 0.61716E-01 SP= 0.13E-01 SK= 0.23E-01
 bond charge predicted
 prediction of wavefunctions
       N       E                     dE             d eps       ncg     rms          rms(c)
DAV:   1    -0.239652198708E+02   -0.29512E-01   -0.16371E+00    64   0.125E+01    0.553E-01
RMM:   2    -0.239703725825E+02   -0.51527E-02   -0.65893E-02    64   0.205E+00    0.527E-01
RMM:   3    -0.239744584624E+02   -0.40859E-02   -0.48434E-02    64   0.138E+00    0.604E-01
RMM:   4    -0.239679092084E+02    0.65493E-02   -0.21583E-02    64   0.920E-01    0.339E-01
RMM:   5    -0.239674777004E+02    0.43151E-03   -0.60688E-03    64   0.474E-01    0.239E-01
RMM:   6    -0.239667326519E+02    0.74505E-03   -0.65010E-04    64   0.170E-01    0.169E-01
RMM:   7    -0.239665761663E+02    0.15649E-03   -0.33493E-04    64   0.118E-01    0.141E-01
RMM:   8    -0.239663432592E+02    0.23291E-03   -0.29337E-04    64   0.111E-01    0.869E-02
RMM:   9    -0.239662874897E+02    0.55769E-04   -0.11075E-04    64   0.684E-02    0.624E-02
RMM:  10    -0.239662791464E+02    0.83433E-05   -0.16891E-04    64   0.833E-02    0.284E-02
RMM:  11    -0.239662898040E+02   -0.10658E-04   -0.49576E-05    64   0.454E-02    0.126E-02
RMM:  12    -0.239663022475E+02   -0.12444E-04   -0.11243E-05    64   0.226E-02    0.849E-03
RMM:  13    -0.239663066046E+02   -0.43571E-05   -0.88452E-06    64   0.179E-02    0.469E-03
RMM:  14    -0.239663109593E+02   -0.43547E-05   -0.14897E-06    48   0.878E-03    0.108E-03
RMM:  15    -0.239663124382E+02   -0.14788E-05   -0.43943E-07    48   0.527E-03    0.845E-04
RMM:  16    -0.239663128425E+02   -0.40429E-06   -0.17685E-07    48   0.336E-03
    7 T=   116. E= -.23856292E+02 F= -.23966313E+02 E0= -.23975271E+02  EK= 0.59922E-01 SP= 0.19E-01 SK= 0.31E-01
 bond charge predicted
 prediction of wavefunctions
       N       E                     dE             d eps       ncg     rms          rms(c)
DAV:   1    -0.240158393176E+02   -0.49527E-01   -0.18450E+00    64   0.133E+01    0.506E-01
RMM:   2    -0.240170405947E+02   -0.12013E-02   -0.71464E-02    64   0.207E+00    0.484E-01
RMM:   3    -0.240178861153E+02   -0.84552E-03   -0.21590E-02    64   0.103E+00    0.326E-01
RMM:   4    -0.240182067380E+02   -0.32062E-03   -0.67348E-03    64   0.507E-01    0.231E-01
RMM:   5    -0.240185862418E+02   -0.37950E-03   -0.10323E-02    64   0.618E-01    0.183E-01
RMM:   6    -0.240178601157E+02    0.72613E-03   -0.36817E-03    64   0.355E-01    0.104E-01
RMM:   7    -0.240177984788E+02    0.61637E-04   -0.39997E-04    64   0.135E-01    0.777E-02
RMM:   8    -0.240176992935E+02    0.99185E-04   -0.96411E-04    64   0.182E-01    0.430E-02
RMM:   9    -0.240177256313E+02   -0.26338E-04   -0.21042E-04    64   0.880E-02    0.283E-02
RMM:  10    -0.240177522855E+02   -0.26654E-04   -0.62790E-05    64   0.512E-02    0.180E-02
RMM:  11    -0.240177717228E+02   -0.19437E-04   -0.95031E-05    64   0.568E-02    0.133E-02
RMM:  12    -0.240177781010E+02   -0.63782E-05   -0.95402E-06    64   0.218E-02    0.707E-03
RMM:  13    -0.240177789956E+02   -0.89462E-06   -0.68912E-06    64   0.154E-02
    8 T=   153. E= -.23869773E+02 F= -.24017779E+02 E0= -.24021729E+02  EK= 0.79068E-01 SP= 0.26E-01 SK= 0.43E-01
 bond charge predicted
 prediction of wavefunctions
       N       E                     dE             d eps       ncg     rms          rms(c)
DAV:   1    -0.239684313178E+02    0.49347E-01   -0.11497E+00    64   0.109E+01    0.460E-01
RMM:   2    -0.239825608387E+02   -0.14130E-01   -0.12894E-01    64   0.252E+00    0.738E-01
RMM:   3    -0.239754286611E+02    0.71322E-02   -0.15285E-02    64   0.855E-01    0.498E-01
RMM:   4    -0.239669971574E+02    0.84315E-02   -0.31638E-02    64   0.114E+00    0.622E-02
RMM:   5    -0.239672731190E+02   -0.27596E-03   -0.12249E-03    64   0.256E-01    0.555E-02
RMM:   6    -0.239675538316E+02   -0.28071E-03   -0.42548E-04    64   0.137E-01    0.441E-02
RMM:   7    -0.239678682577E+02   -0.31443E-03   -0.59683E-04    64   0.156E-01    0.386E-02
RMM:   8    -0.239679148912E+02   -0.46634E-04   -0.15736E-04    64   0.760E-02    0.137E-02
RMM:   9    -0.239679801043E+02   -0.65213E-04   -0.23386E-05    64   0.332E-02    0.529E-03
RMM:  10    -0.239680167885E+02   -0.36684E-04   -0.71156E-06    64   0.162E-02    0.572E-03
RMM:  11    -0.239680291399E+02   -0.12351E-04   -0.60475E-06    64   0.143E-02    0.165E-03
RMM:  12    -0.239680332909E+02   -0.41511E-05   -0.93534E-07    48   0.691E-03    0.129E-03
RMM:  13    -0.239680342641E+02   -0.97323E-06   -0.19310E-07    48   0.345E-03
    9 T=   124. E= -.23812442E+02 F= -.23968034E+02 E0= -.23972112E+02  EK= 0.64364E-01 SP= 0.34E-01 SK= 0.57E-01
 bond charge predicted
 prediction of wavefunctions
       N       E                     dE             d eps       ncg     rms          rms(c)
DAV:   1    -0.239757364100E+02   -0.77031E-02   -0.17466E+00    64   0.137E+01    0.857E-01
RMM:   2    -0.239826987025E+02   -0.69623E-02   -0.13063E-01    64   0.276E+00    0.104E+00
RMM:   3    -0.239803611060E+02    0.23376E-02   -0.10538E-01    64   0.203E+00    0.586E-01
RMM:   4    -0.239703868272E+02    0.99743E-02   -0.11759E-02    64   0.724E-01    0.449E-01
RMM:   5    -0.239702511053E+02    0.13572E-03   -0.31026E-02    64   0.109E+00    0.548E-01
RMM:   6    -0.239698834698E+02    0.36764E-03   -0.14469E-02    64   0.781E-01    0.317E-01
RMM:   7    -0.239686478969E+02    0.12356E-02   -0.10010E-03    64   0.229E-01    0.159E-01
RMM:   8    -0.239686973717E+02   -0.49475E-04   -0.10261E-03    64   0.196E-01    0.106E-01
RMM:   9    -0.239687753286E+02   -0.77957E-04   -0.45107E-04    64   0.132E-01    0.430E-02
RMM:  10    -0.239688786856E+02   -0.10336E-03   -0.39630E-05    64   0.461E-02    0.335E-02
RMM:  11    -0.239688873773E+02   -0.86918E-05   -0.12083E-05    64   0.229E-02    0.185E-02
RMM:  12    -0.239689233233E+02   -0.35946E-04   -0.93408E-06    64   0.189E-02    0.594E-03
RMM:  13    -0.239689364796E+02   -0.13156E-04   -0.52514E-06    64   0.137E-02    0.219E-03
RMM:  14    -0.239689426398E+02   -0.61602E-05   -0.50095E-07    48   0.480E-03    0.145E-03
RMM:  15    -0.239689444350E+02   -0.17951E-05   -0.17951E-07    48   0.261E-03    0.574E-04
RMM:  16    -0.239689448654E+02   -0.43045E-06   -0.45307E-08    40   0.152E-03
   10 T=   131. E= -.23785971E+02 F= -.23968945E+02 E0= -.23976912E+02  EK= 0.67864E-01 SP= 0.43E-01 SK= 0.72E-01
 bond charge predicted
 prediction of wavefunctions
 wavefunctions rotated
