<?xml version="1.0" encoding="ISO-8859-1"?>
<modeling>
 <generator>
  <i name="program" type="string">vasp </i>
  <i name="version" type="string">5.4.4.18Apr17-6-g9f103f2a35  </i>
  <i name="subversion" type="string">(build Jul 12 2018 13:43:46) complex            parallel </i>
  <i name="platform" type="string">LinuxGNU </i>
  <i name="date" type="string">2019 06 22 </i>
  <i name="time" type="string">02:17:35 </i>
 </generator>
 <incar>
  <i type="int" name="ISTART">     0</i>
  <i type="string" name="PREC">a</i>
  <i type="string" name="ALGO">fast</i>
  <i type="int" name="MAXMIX">    50</i>
  <i type="int" name="ICHARG">     2</i>
  <i type="int" name="IBRION">     0</i>
  <i name="EDIFF">      0.00000100</i>
  <i type="int" name="NSW">    10</i>
  <i type="int" name="ISIF">     2</i>
  <i type="int" name="ISYM">     0</i>
  <i type="int" name="NBLOCK">     1</i>
  <i type="int" name="KBLOCK">   100</i>
  <i name="ENCUT">    400.00000000</i>
  <i name="POTIM">      2.00000000</i>
  <i name="TEBEG">     50.00000000</i>
  <i name="TEEND">     50.00000000</i>
  <i name="SMASS">      0.00000000</i>
  <i type="logical" name="LREAL"> T  </i>
  <i type="int" name="ISMEAR">     1</i>
  <i name="SIGMA">      0.20000000</i>
  <i name="KSPACING">      0.50000000</i>
  <i type="logical" name="KGAMMA"> F  </i>
  <i name="PSTRESS">      0.00000000</i>
  <i type="logical" name="LWAVE"> F  </i>
  <i type="logical" name="LCHARG"> F  </i>
  <v type="int" name="KPOINT_BSE">    -1     0     0     0</v>
 </incar>
 <structure name="primitive_cell" >
  <crystal>
   <varray name="basis" >
    <v>       9.76090106       0.00000000       0.00000000 </v>
    <v>      -0.06857264       9.70701924       0.00000000 </v>
    <v>       0.11690783       0.03067245       9.94264809 </v>
   </varray>
   <i name="volume">    942.05849262 </i>
   <varray name="rec_basis" >
    <v>       0.10244956       0.00072373      -0.00120686 </v>
    <v>       0.00000000       0.10301824      -0.00031780 </v>
    <v>       0.00000000      -0.00000000       0.10057683 </v>
   </varray>
  </crystal>
  <varray name="positions" >
   <v>      -0.46162746       0.40666918       0.36061641 </v>
   <v>      -0.49675643       0.46730510       0.44530670 </v>
   <v>      -0.44799935      -0.43462833       0.44279530 </v>
   <v>       0.39406367       0.48073386       0.43820434 </v>
   <v>      -0.47191227       0.41658769      -0.46091388 </v>
  </varray>
 </structure>
 <varray name="primitive_index" >
  <v type="int" >        1 </v>
  <v type="int" >        5 </v>
  <v type="int" >        3 </v>
  <v type="int" >        2 </v>
  <v type="int" >        4 </v>
 </varray>
 <kpoints>
  <generation param="Monkhorst-Pack">
   <v type="int" name="divisions">       2        2        2 </v>
   <v name="usershift">      0.00000000       0.00000000       0.00000000 </v>
   <v name="genvec1">      0.50000000      -0.00000000       0.00000000 </v>
   <v name="genvec2">      0.00000000       0.50000000       0.00000000 </v>
   <v name="genvec3">      0.00000000       0.00000000       0.50000000 </v>
   <v name="shift">      0.50000000       0.50000000       0.50000000 </v>
  </generation>
  <varray name="kpointlist" >
   <v>       0.25000000       0.25000000       0.25000000 </v>
   <v>      -0.25000000       0.25000000       0.25000000 </v>
   <v>       0.25000000      -0.25000000       0.25000000 </v>
   <v>      -0.25000000      -0.25000000       0.25000000 </v>
  </varray>
  <varray name="weights" >
   <v>       0.25000000 </v>
   <v>       0.25000000 </v>
   <v>       0.25000000 </v>
   <v>       0.25000000 </v>
  </varray>
 </kpoints>
 <parameters>
  <separator name="general" >
   <i type="string" name="SYSTEM">unknown system</i>
   <i type="logical" name="LCOMPAT"> F  </i>
  </separator>
  <separator name="electronic" >
   <i type="string" name="PREC">a</i>
   <i name="ENMAX">    400.00000000</i>
   <i name="ENAUG">    644.87300000</i>
   <i name="EDIFF">      0.00000100</i>
   <i type="int" name="IALGO">    68</i>
   <i type="int" name="IWAVPR">    12</i>
   <i type="int" name="NBANDS">     8</i>
   <i name="NELECT">      8.00000000</i>
   <i type="int" name="TURBO">     0</i>
   <i type="int" name="IRESTART">     0</i>
   <i type="int" name="NREBOOT">     0</i>
   <i type="int" name="NMIN">     0</i>
   <i name="EREF">      0.00000000</i>
   <separator name="electronic smearing" >
    <i type="int" name="ISMEAR">     1</i>
    <i name="SIGMA">      0.20000000</i>
    <i name="KSPACING">      0.50000000</i>
    <i type="logical" name="KGAMMA"> F  </i>
   </separator>
   <separator name="electronic projectors" >
    <i type="logical" name="LREAL"> T  </i>
    <v name="ROPT">      0.00000000      0.00000000</v>
    <i type="int" name="LMAXPAW">  -100</i>
    <i type="int" name="LMAXMIX">     2</i>
    <i type="logical" name="NLSPLINE"> F  </i>
   </separator>
   <separator name="electronic startup" >
    <i type="int" name="ISTART">     0</i>
    <i type="int" name="ICHARG">     2</i>
    <i type="int" name="INIWAV">     1</i>
   </separator>
   <separator name="electronic spin" >
    <i type="int" name="ISPIN">     1</i>
    <i type="logical" name="LNONCOLLINEAR"> F  </i>
    <v name="MAGMOM">      1.00000000      1.00000000      1.00000000      1.00000000      1.00000000</v>
    <i name="NUPDOWN">     -1.00000000</i>
    <i type="logical" name="LSORBIT"> F  </i>
    <v name="SAXIS">      0.00000000      0.00000000      1.00000000</v>
    <i type="logical" name="LSPIRAL"> F  </i>
    <v name="QSPIRAL">      0.00000000      0.00000000      0.00000000</v>
    <i type="logical" name="LZEROZ"> F  </i>
   </separator>
   <separator name="electronic exchange-correlation" >
    <i type="logical" name="LASPH"> F  </i>
    <i type="logical" name="LMETAGGA"> F  </i>
   </separator>
   <separator name="electronic convergence" >
    <i type="int" name="NELM">    60</i>
    <i type="int" name="NELMDL">    -5</i>
    <i type="int" name="NELMIN">     2</i>
    <i name="ENINI">    400.00000000</i>
    <separator name="electronic convergence detail" >
     <i type="logical" name="LDIAG"> T  </i>
     <i type="logical" name="LSUBROT"> F  </i>
     <i name="WEIMIN">      0.00100000</i>
     <i name="EBREAK">      0.00000003</i>
     <i name="DEPER">      0.30000000</i>
     <i type="int" name="NRMM">     4</i>
     <i name="TIME">      0.40000000</i>
    </separator>
   </separator>
   <separator name="electronic mixer" >
    <i name="AMIX">      0.40000000</i>
    <i name="BMIX">      1.00000000</i>
    <i name="AMIN">      0.10000000</i>
    <i name="AMIX_MAG">      1.60000000</i>
    <i name="BMIX_MAG">      1.00000000</i>
    <separator name="electronic mixer details" >
     <i type="int" name="IMIX">     4</i>
     <i type="logical" name="MIXFIRST"> F  </i>
     <i type="int" name="MAXMIX">    50</i>
     <i name="WC">    100.00000000</i>
     <i type="int" name="INIMIX">     1</i>
     <i type="int" name="MIXPRE">     1</i>
     <i type="int" name="MREMOVE">     5</i>
    </separator>
   </separator>
   <separator name="electronic dipolcorrection" >
    <i type="logical" name="LDIPOL"> F  </i>
    <i type="logical" name="LMONO"> F  </i>
    <i type="int" name="IDIPOL">     0</i>
    <i name="EPSILON">      1.00000000</i>
    <v name="DIPOL">   -100.00000000   -100.00000000   -100.00000000</v>
    <i name="EFIELD">      0.00000000</i>
   </separator>
  </separator>
  <separator name="grids" >
   <i type="int" name="NGX">    64</i>
   <i type="int" name="NGY">    64</i>
   <i type="int" name="NGZ">    70</i>
   <i type="int" name="NGXF">   128</i>
   <i type="int" name="NGYF">   128</i>
   <i type="int" name="NGZF">   140</i>
   <i type="logical" name="ADDGRID"> F  </i>
  </separator>
  <separator name="ionic" >
   <i type="int" name="NSW">    10</i>
   <i type="int" name="IBRION">     0</i>
   <i type="int" name="MDALGO">     0</i>
   <i type="int" name="ISIF">     2</i>
   <i name="PSTRESS">      0.00000000</i>
   <i name="EDIFFG">      0.00001000</i>
   <i type="int" name="NFREE">     0</i>
   <i name="POTIM">      2.00000000</i>
   <i name="SMASS">      0.00169769</i>
   <i name="SCALEE">      1.00000000</i>
  </separator>
  <separator name="ionic md" >
   <i name="TEBEG">     50.00000000</i>
   <i name="TEEND">     50.00000000</i>
   <i type="int" name="NBLOCK">     1</i>
   <i type="int" name="KBLOCK">     1</i>
   <i type="int" name="NPACO">   256</i>
   <i name="APACO">     16.00000000</i>
  </separator>
  <separator name="symmetry" >
   <i type="int" name="ISYM">     0</i>
   <i name="SYMPREC">      0.00001000</i>
  </separator>
  <separator name="dos" >
   <i type="int" name="LORBIT">     0</i>
   <v name="RWIGS">     -1.00000000     -1.00000000</v>
   <i type="int" name="NEDOS">   301</i>
   <i name="EMIN">     10.00000000</i>
   <i name="EMAX">    -10.00000000</i>
   <i name="EFERMI">      0.00000000</i>
  </separator>
  <separator name="writing" >
   <i type="int" name="NWRITE">     2</i>
   <i type="logical" name="LWAVE"> F  </i>
   <i type="logical" name="LDOWNSAMPLE"> F  </i>
   <i type="logical" name="LCHARG"> F  </i>
   <i type="logical" name="LPARD"> F  </i>
   <i type="logical" name="LVTOT"> F  </i>
   <i type="logical" name="LVHAR"> F  </i>
   <i type="logical" name="LELF"> F  </i>
   <i type="logical" name="LOPTICS"> F  </i>
   <v name="STM">      0.00000000      0.00000000      0.00000000      0.00000000      0.00000000      0.00000000      0.00000000</v>
  </separator>
  <separator name="performance" >
   <i type="int" name="NPAR">     1</i>
   <i type="int" name="NSIM">     4</i>
   <i type="int" name="NBLK">    -1</i>
   <i type="logical" name="LPLANE"> T  </i>
   <i type="logical" name="LSCALAPACK"> T  </i>
   <i type="logical" name="LSCAAWARE"> F  </i>
   <i type="logical" name="LSCALU"> F  </i>
   <i type="logical" name="LASYNC"> F  </i>
   <i type="logical" name="LORBITALREAL"> F  </i>
  </separator>
  <separator name="miscellaneous" >
   <i type="int" name="IDIOT">     3</i>
   <i type="int" name="ISPECIAL">     0</i>
   <i type="logical" name="LMUSIC"> F  </i>
   <v name="POMASS">      1.00000000     12.01100000</v>
   <v name="DARWINR">      0.00000000      0.00000000</v>
   <v name="DARWINV">      1.00000000      1.00000000</v>
   <i type="logical" name="LCORR"> T  </i>
  </separator>
  <i type="logical" name="GGA_COMPAT"> T  </i>
  <i type="logical" name="LBERRY"> F  </i>
  <i type="int" name="ICORELEVEL">     0</i>
  <i type="logical" name="LDAU"> F  </i>
  <i type="int" name="I_CONSTRAINED_M">     0</i>
  <separator name="electronic exchange-correlation" >
   <i type="string" name="GGA">--</i>
   <i type="int" name="VOSKOWN">     0</i>
   <i type="logical" name="LHFCALC"> F  </i>
   <i type="string" name="PRECFOCK"></i>
   <i type="logical" name="LSYMGRAD"> F  </i>
   <i type="logical" name="LHFONE"> F  </i>
   <i type="logical" name="LRHFCALC"> F  </i>
   <i type="logical" name="LTHOMAS"> F  </i>
   <i type="logical" name="LMODELHF"> F  </i>
   <i name="ENCUT4O">     -1.00000000</i>
   <i type="int" name="EXXOEP">     0</i>
   <i type="int" name="FOURORBIT">     0</i>
   <i name="AEXX">      0.00000000</i>
   <i name="HFALPHA">      0.00000000</i>
   <i name="MCALPHA">      0.00000000</i>
   <i name="ALDAX">      1.00000000</i>
   <i name="AGGAX">      1.00000000</i>
   <i name="ALDAC">      1.00000000</i>
   <i name="AGGAC">      1.00000000</i>
   <i type="int" name="NKREDX">     1</i>
   <i type="int" name="NKREDY">     1</i>
   <i type="int" name="NKREDZ">     1</i>
   <i type="logical" name="SHIFTRED"> F  </i>
   <i type="logical" name="ODDONLY"> F  </i>
   <i type="logical" name="EVENONLY"> F  </i>
   <i type="int" name="LMAXFOCK">     0</i>
   <i type="int" name="NMAXFOCKAE">     0</i>
   <i type="logical" name="LFOCKAEDFT"> F  </i>
   <i name="HFSCREEN">      0.00000000</i>
   <i name="HFSCREENC">      0.00000000</i>
   <i type="int" name="NBANDSGWLOW">     0</i>
  </separator>
  <separator name="vdW DFT" >
   <i type="logical" name="LUSE_VDW"> F  </i>
   <i name="Zab_VDW">     -0.84910000</i>
   <i name="PARAM1">      0.12340000</i>
   <i name="PARAM2">      1.00000000</i>
   <i name="PARAM3">      0.00000000</i>
  </separator>
  <separator name="model GW" >
   <i type="int" name="MODEL_GW">     0</i>
   <i name="MODEL_EPS0">    113.04701911</i>
   <i name="MODEL_ALPHA">      1.00000000</i>
  </separator>
  <separator name="linear response parameters" >
   <i type="logical" name="LEPSILON"> F  </i>
   <i type="logical" name="LRPA"> F  </i>
   <i type="logical" name="LNABLA"> F  </i>
   <i type="logical" name="LVEL"> F  </i>
   <i type="int" name="KINTER">     0</i>
   <i name="CSHIFT">      0.10000000</i>
   <i name="OMEGAMAX">     -1.00000000</i>
   <i name="DEG_THRESHOLD">      0.00200000</i>
   <i name="RTIME">     -0.10000000</i>
   <i name="WPLASMAI">      0.00000000</i>
   <v name="DFIELD">      0.00000000      0.00000000      0.00000000</v>
   <v name="WPLASMA">      0.00000000      0.00000000      0.00000000      0.00000000      0.00000000      0.00000000      0.00000000      0.00000000      0.00000000</v>
  </separator>
  <separator name="orbital magnetization" >
   <i type="logical" name="NUCIND"> F  </i>
   <v name="MAGPOS">      0.00000000      0.00000000      0.00000000</v>
   <i type="logical" name="LNICSALL"> T  </i>
   <i type="logical" name="ORBITALMAG"> F  </i>
   <i type="logical" name="LMAGBLOCH"> F  </i>
   <i type="logical" name="LCHIMAG"> F  </i>
   <i type="logical" name="LGAUGE"> T  </i>
   <i type="int" name="MAGATOM">     0</i>
   <v name="MAGDIPOL">      0.00000000      0.00000000      0.00000000</v>
   <v name="AVECCONST">      0.00000000      0.00000000      0.00000000</v>
  </separator>
  <separator name="response functions" >
   <i type="logical" name="LADDER"> F  </i>
   <i type="logical" name="LRPAFORCE"> F  </i>
   <i type="logical" name="LFXC"> F  </i>
   <i type="logical" name="LHARTREE"> T  </i>
   <i type="int" name="IBSE">     0</i>
   <v type="int" name="KPOINT">    -1     0     0     0</v>
   <i type="logical" name="LTCTE"> F  </i>
   <i type="logical" name="LTETE"> F  </i>
   <i type="logical" name="LTRIPLET"> F  </i>
   <i type="logical" name="LFXCEPS"> F  </i>
   <i type="logical" name="LFXHEG"> F  </i>
   <i type="int" name="NATURALO">     2</i>
   <i type="logical" name="L2ORDER"> F  </i>
   <i type="logical" name="LMP2LT"> F  </i>
   <i type="logical" name="LUSEW"> F  </i>
   <i name="ENCUTGW">     -2.00000000</i>
   <i name="ENCUTGWSOFT">     -2.00000000</i>
   <i name="ENCUTLF">     -1.00000000</i>
   <i type="int" name="LMAXMP2">    -1</i>
   <i name="SCISSOR">      0.00000000</i>
   <i type="int" name="NOMEGA">     0</i>
   <i type="int" name="NOMEGAR">     0</i>
   <i type="int" name="NBANDSGW">    -1</i>
   <i type="int" name="NBANDSO">    -1</i>
   <i type="int" name="NBANDSV">    -1</i>
   <i type="int" name="NELM">     1</i>
   <i type="int" name="NELMHF">     1</i>
   <i type="int" name="DIM">     3</i>
   <i type="int" name="ANTIRES">     0</i>
   <i name="OMEGAMAX">    -30.00000000</i>
   <i name="OMEGAMIN">    -30.00000000</i>
   <i name="OMEGATL">   -200.00000000</i>
   <i type="int" name="OMEGAGRID">   140</i>
   <i name="CSHIFT">     -0.10000000</i>
   <i type="logical" name="SELFENERGY"> F  </i>
   <i type="logical" name="LSPECTRAL"> F  </i>
   <i type="logical" name="LSPECTRALGW"> F  </i>
   <i type="logical" name="LSINGLES"> F  </i>
   <i type="logical" name="LFERMIGW"> F  </i>
   <i type="logical" name="ODDONLYGW"> F  </i>
   <i type="logical" name="EVENONLYGW"> F  </i>
   <i type="int" name="NKREDLFX">     1</i>
   <i type="int" name="NKREDLFY">     1</i>
   <i type="int" name="NKREDLFZ">     1</i>
   <i type="int" name="MAXMEM">  2800</i>
   <i type="int" name="TELESCOPE">     0</i>
   <i type="int" name="TAUPAR">     1</i>
   <i type="int" name="OMEGAPAR">    -1</i>
   <i name="LAMBDA">      1.00000000</i>
  </separator>
  <separator name="External order field" >
   <i name="OFIELD_KAPPA">      0.00000000</i>
   <v name="OFIELD_K">      0.00000000      0.00000000      0.00000000</v>
   <i name="OFIELD_Q6_NEAR">      0.00000000</i>
   <i name="OFIELD_Q6_FAR">      0.00000000</i>
   <i name="OFIELD_A">      0.00000000</i>
  </separator>
 </parameters>
 <atominfo>
  <atoms>       5 </atoms>
  <types>       2 </types>
  <array name="atoms" >
   <dimension dim="1">ion</dimension>
   <field type="string">element</field>
   <field type="int">atomtype</field>
   <set>
    <rc><c>H </c><c>   1</c></rc>
    <rc><c>H </c><c>   1</c></rc>
    <rc><c>H </c><c>   1</c></rc>
    <rc><c>H </c><c>   1</c></rc>
    <rc><c>C </c><c>   2</c></rc>
   </set>
  </array>
  <array name="atomtypes" >
   <dimension dim="1">type</dimension>
   <field type="int">atomspertype</field>
   <field type="string">element</field>
   <field>mass</field>
   <field>valence</field>
   <field type="string">pseudopotential</field>
   <set>
    <rc><c>   4</c><c>H </c><c>      1.00000000</c><c>      1.00000000</c><c>  PAW_PBE H 15Jun2001                   </c></rc>
    <rc><c>   1</c><c>C </c><c>     12.01100000</c><c>      4.00000000</c><c>  PAW_PBE C 08Apr2002                   </c></rc>
   </set>
  </array>
 </atominfo>
 <structure name="initialpos" >
  <crystal>
   <varray name="basis" >
    <v>       9.76090106       0.00000000       0.00000000 </v>
    <v>      -0.06857264       9.70701924       0.00000000 </v>
    <v>       0.11690783       0.03067245       9.94264809 </v>
   </varray>
   <i name="volume">    942.05849262 </i>
   <varray name="rec_basis" >
    <v>       0.10244956       0.00072373      -0.00120686 </v>
    <v>       0.00000000       0.10301824      -0.00031780 </v>
    <v>       0.00000000      -0.00000000       0.10057683 </v>
   </varray>
  </crystal>
  <varray name="positions" >
   <v>       0.53837254       0.40666918       0.36061641 </v>
   <v>       0.39406367       0.48073386       0.43820434 </v>
   <v>       0.55200065       0.56537167       0.44279530 </v>
   <v>       0.52808773       0.41658769       0.53908612 </v>
   <v>       0.50324357       0.46730510       0.44530670 </v>
  </varray>
  <varray name="velocities" >
   <v>       0.00018545       0.00160329       0.00156844 </v>
   <v>      -0.00021503       0.00021544      -0.00227894 </v>
   <v>       0.00096811      -0.00215516       0.00102525 </v>
   <v>       0.00082242       0.00016253       0.00150744 </v>
   <v>      -0.00014661       0.00001448      -0.00015171 </v>
  </varray>
 </structure>
 <calculation>
  <scstep>
   <time name="dav">    2.79    2.80</time>
   <time name="total">    4.36    4.38</time>
   <energy>
    <i name="alphaZ">      0.25715048 </i>
    <i name="ewald">    131.05103995 </i>
    <i name="hartreedc">   -244.01770597 </i>
    <i name="XCdc">     22.12515284 </i>
    <i name="pawpsdc">    117.05815612 </i>
    <i name="pawaedc">   -117.66307307 </i>
    <i name="eentropy">      0.00289905 </i>
    <i name="bandstr">    -96.95955236 </i>
    <i name="atom">    197.04175453 </i>
    <i name="e_fr_energy">      8.89582157 </i>
    <i name="e_wo_entrp">      8.89292252 </i>
    <i name="e_0_energy">      8.89485522 </i>
   </energy>
  </scstep>
  <scstep>
   <time name="dav">    1.89    1.89</time>
   <time name="total">    1.89    1.89</time>
   <energy>
    <i name="e_fr_energy">    -24.04752947 </i>
    <i name="e_wo_entrp">    -24.05362752 </i>
    <i name="e_0_energy">    -24.04956215 </i>
   </energy>
  </scstep>
  <scstep>
   <time name="dav">    1.88    1.89</time>
   <time name="total">    1.88    1.89</time>
   <energy>
    <i name="e_fr_energy">    -27.67639971 </i>
    <i name="e_wo_entrp">    -27.71363327 </i>
    <i name="e_0_energy">    -27.68881089 </i>
   </energy>
  </scstep>
  <scstep>
   <time name="dav">    3.37    3.38</time>
   <time name="total">    3.37    3.38</time>
   <energy>
    <i name="e_fr_energy">    -27.81662495 </i>
    <i name="e_wo_entrp">    -27.85346303 </i>
    <i name="e_0_energy">    -27.82890431 </i>
   </energy>
  </scstep>
  <scstep>
   <time name="dav">    2.60    2.60</time>
   <time name="total">    2.79    2.80</time>
   <energy>
    <i name="e_fr_energy">    -27.81666606 </i>
    <i name="e_wo_entrp">    -27.85350430 </i>
    <i name="e_0_energy">    -27.82894547 </i>
   </energy>
  </scstep>
  <scstep>
   <time name="diag">    0.38    0.38</time>
   <time name="diis">    1.26    1.26</time>
   <time name="orth">    0.01    0.01</time>
   <time name="total">    3.40    3.41</time>
   <energy>
    <i name="e_fr_energy">    -24.66525848 </i>
    <i name="e_wo_entrp">    -24.70292414 </i>
    <i name="e_0_energy">    -24.67781370 </i>
   </energy>
  </scstep>
  <scstep>
   <time name="diag">    0.39    0.39</time>
   <time name="diis">    1.25    1.25</time>
   <time name="orth">    0.01    0.01</time>
   <time name="total">    3.42    3.43</time>
   <energy>
    <i name="e_fr_energy">    -24.13221390 </i>
    <i name="e_wo_entrp">    -24.17265136 </i>
    <i name="e_0_energy">    -24.14569305 </i>
   </energy>
  </scstep>
  <scstep>
   <time name="diag">    0.38    0.39</time>
   <time name="diis">    1.26    1.27</time>
   <time name="orth">    0.01    0.01</time>
   <time name="total">    3.44    3.45</time>
   <energy>
    <i name="e_fr_energy">    -24.02044192 </i>
    <i name="e_wo_entrp">    -24.06022124 </i>
    <i name="e_0_energy">    -24.03370170 </i>
   </energy>
  </scstep>
  <scstep>
   <time name="diag">    0.41    0.41</time>
   <time name="diis">    1.26    1.26</time>
   <time name="orth">    0.01    0.01</time>
   <time name="total">    3.46    3.47</time>
   <energy>
    <i name="e_fr_energy">    -23.97353137 </i>
    <i name="e_wo_entrp">    -24.01104872 </i>
    <i name="e_0_energy">    -23.98603715 </i>
   </energy>
  </scstep>
  <scstep>
   <time name="diag">    0.40    0.40</time>
   <time name="diis">    1.33    1.33</time>
   <time name="orth">    0.01    0.01</time>
   <time name="total">    3.48    3.49</time>
   <energy>
    <i name="e_fr_energy">    -23.97040874 </i>
    <i name="e_wo_entrp">    -24.00774143 </i>
    <i name="e_0_energy">    -23.98285297 </i>
   </energy>
  </scstep>
  <scstep>
   <time name="diag">    0.37    0.37</time>
   <time name="diis">    1.36    1.36</time>
   <time name="orth">    0.01    0.01</time>
   <time name="total">    3.47    3.48</time>
   <energy>
    <i name="e_fr_energy">    -23.96726334 </i>
    <i name="e_wo_entrp">    -24.00432919 </i>
    <i name="e_0_energy">    -23.97961862 </i>
   </energy>
  </scstep>
  <scstep>
   <time name="diag">    0.37    0.37</time>
   <time name="diis">    1.32    1.32</time>
   <time name="orth">    0.01    0.01</time>
   <time name="total">    3.38    3.39</time>
   <energy>
    <i name="e_fr_energy">    -23.96475555 </i>
    <i name="e_wo_entrp">    -24.00120259 </i>
    <i name="e_0_energy">    -23.97690456 </i>
   </energy>
  </scstep>
  <scstep>
   <time name="diag">    0.36    0.36</time>
   <time name="diis">    1.27    1.27</time>
   <time name="orth">    0.01    0.01</time>
   <time name="total">    3.30    3.31</time>
   <energy>
    <i name="e_fr_energy">    -23.97224491 </i>
    <i name="e_wo_entrp">    -24.00858423 </i>
    <i name="e_0_energy">    -23.98435802 </i>
   </energy>
  </scstep>
  <scstep>
   <time name="diag">    0.38    0.38</time>
   <time name="diis">    1.28    1.28</time>
   <time name="orth">    0.01    0.01</time>
   <time name="total">    3.29    3.30</time>
   <energy>
    <i name="e_fr_energy">    -23.97434319 </i>
    <i name="e_wo_entrp">    -24.01080598 </i>
    <i name="e_0_energy">    -23.98649745 </i>
   </energy>
  </scstep>
  <scstep>
   <time name="diag">    0.37    0.37</time>
   <time name="diis">    1.31    1.31</time>
   <time name="orth">    0.01    0.01</time>
   <time name="total">    3.32    3.33</time>
   <energy>
    <i name="e_fr_energy">    -23.97615863 </i>
    <i name="e_wo_entrp">    -24.01253952 </i>
    <i name="e_0_energy">    -23.98828559 </i>
   </energy>
  </scstep>
  <scstep>
   <time name="diag">    0.37    0.37</time>
   <time name="diis">    1.32    1.32</time>
   <time name="orth">    0.01    0.01</time>
   <time name="total">    3.30    3.31</time>
   <energy>
    <i name="e_fr_energy">    -23.97728114 </i>
    <i name="e_wo_entrp">    -24.01374399 </i>
    <i name="e_0_energy">    -23.98943543 </i>
   </energy>
  </scstep>
  <scstep>
   <time name="diag">    0.38    0.38</time>
   <time name="diis">    1.27    1.28</time>
   <time name="orth">    0.01    0.01</time>
   <time name="total">    3.27    3.28</time>
   <energy>
    <i name="e_fr_energy">    -23.97759267 </i>
    <i name="e_wo_entrp">    -24.01398910 </i>
    <i name="e_0_energy">    -23.98972481 </i>
   </energy>
  </scstep>
  <scstep>
   <time name="diag">    0.38    0.38</time>
   <time name="diis">    1.25    1.26</time>
   <time name="orth">    0.01    0.01</time>
   <time name="total">    3.27    3.28</time>
   <energy>
    <i name="e_fr_energy">    -23.97773803 </i>
    <i name="e_wo_entrp">    -24.01411839 </i>
    <i name="e_0_energy">    -23.98986482 </i>
   </energy>
  </scstep>
  <scstep>
   <time name="diag">    0.39    0.39</time>
   <time name="diis">    1.19    1.19</time>
   <time name="orth">    0.01    0.01</time>
   <time name="total">    3.23    3.24</time>
   <energy>
    <i name="e_fr_energy">    -23.97780517 </i>
    <i name="e_wo_entrp">    -24.01417309 </i>
    <i name="e_0_energy">    -23.98992781 </i>
   </energy>
  </scstep>
  <scstep>
   <time name="diag">    0.40    0.40</time>
   <time name="diis">    1.04    1.04</time>
   <time name="orth">    0.01    0.01</time>
   <time name="total">    3.10    3.11</time>
   <energy>
    <i name="e_fr_energy">    -23.97781757 </i>
    <i name="e_wo_entrp">    -24.01419996 </i>
    <i name="e_0_energy">    -23.98994503 </i>
   </energy>
  </scstep>
  <scstep>
   <time name="diag">    0.37    0.38</time>
   <time name="diis">    1.08    1.08</time>
   <time name="orth">    0.01    0.01</time>
   <time name="total">    3.14    3.15</time>
   <energy>
    <i name="e_fr_energy">    -23.97782569 </i>
    <i name="e_wo_entrp">    -24.01420686 </i>
    <i name="e_0_energy">    -23.98995275 </i>
   </energy>
  </scstep>
  <scstep>
   <time name="diag">    0.37    0.37</time>
   <time name="diis">    1.08    1.09</time>
   <time name="orth">    0.01    0.01</time>
   <time name="total">    3.13    3.14</time>
   <energy>
    <i name="e_fr_energy">    -23.97782822 </i>
    <i name="e_wo_entrp">    -24.01421011 </i>
    <i name="e_0_energy">    -23.98995552 </i>
   </energy>
  </scstep>
  <scstep>
   <time name="diag">    0.36    0.36</time>
   <time name="diis">    1.03    1.03</time>
   <time name="orth">    0.01    0.01</time>
   <time name="total">    2.93    2.93</time>
   <energy>
    <i name="alphaZ">      0.25715048 </i>
    <i name="ewald">    131.05103995 </i>
    <i name="hartreedc">   -286.30911863 </i>
    <i name="XCdc">     24.96850519 </i>
    <i name="pawpsdc">    491.17135780 </i>
    <i name="pawaedc">   -491.97648269 </i>
    <i name="eentropy">      0.03638195 </i>
    <i name="bandstr">    -90.21841767 </i>
    <i name="atom">    197.04175453 </i>
    <i name="e_fr_energy">    -23.97782909 </i>
    <i name="e_wo_entrp">    -24.01421104 </i>
    <i name="e_0_energy">    -23.98995640 </i>
   </energy>
  </scstep>
  <structure>
   <crystal>
    <varray name="basis" >
     <v>       9.76090106       0.00000000       0.00000000 </v>
     <v>      -0.06857264       9.70701924       0.00000000 </v>
     <v>       0.11690783       0.03067245       9.94264809 </v>
    </varray>
    <i name="volume">    942.05849262 </i>
    <varray name="rec_basis" >
     <v>       0.10244956       0.00072373      -0.00120686 </v>
     <v>       0.00000000       0.10301824      -0.00031780 </v>
     <v>       0.00000000      -0.00000000       0.10057683 </v>
    </varray>
   </crystal>
   <varray name="positions" >
    <v>       0.53837254       0.40666918       0.36061641 </v>
    <v>       0.39406367       0.48073386       0.43820434 </v>
    <v>       0.55200065       0.56537167       0.44279530 </v>
    <v>       0.52808773       0.41658769       0.53908612 </v>
    <v>       0.50324357       0.46730510       0.44530670 </v>
   </varray>
  </structure>
  <varray name="forces" >
   <v>       0.16911534       0.17507107      -0.59709384 </v>
   <v>      -0.21006849      -0.50750440      -0.18000876 </v>
   <v>       1.07443085       1.33843147      -0.02449387 </v>
   <v>      -0.32685649      -0.50702467       0.69275025 </v>
   <v>      -0.61291962      -0.08654933      -0.58275841 </v>
  </varray>
  <varray name="stress" >
   <v>       0.74421050       0.49036130       0.46110891 </v>
   <v>       0.49036130       0.54077006      -0.20837628 </v>
   <v>       0.46110891      -0.20837628       1.15436370 </v>
  </varray>
  <energy>
   <i name="e_fr_energy">    -23.97782909 </i>
   <i name="e_wo_entrp">    -23.98995640 </i>
   <i name="e_0_energy">      0.03638195 </i>
   <i name="kinetic">      0.04176961 </i>
   <i name="lattice kinetic">      0.00000000 </i>
   <i name="nosepot">      0.00000000 </i>
   <i name="nosekinetic">      0.00003034 </i>
   <i name="total">    -23.93602913 </i>
  </energy>
  <dos>
   <i name="efermi">     -9.18171801 </i>
   <total>
    <array>
     <dimension dim="1">gridpoints</dimension>
     <dimension dim="2">spin</dimension>
     <field>energy</field>
     <field>total</field>
     <field>integrated</field>
     <set>
      <set comment="spin 1">
       <r>   -19.0361     0.0000     0.0000 </r>
       <r>   -18.9635     0.0000     0.0000 </r>
       <r>   -18.8910     0.0000     0.0000 </r>
       <r>   -18.8184     0.0000     0.0000 </r>
       <r>   -18.7458     0.0000     0.0000 </r>
       <r>   -18.6732    -0.0000    -0.0000 </r>
       <r>   -18.6006    -0.0000    -0.0000 </r>
       <r>   -18.5281    -0.0000    -0.0000 </r>
       <r>   -18.4555    -0.0000    -0.0000 </r>
       <r>   -18.3829    -0.0000    -0.0000 </r>
       <r>   -18.3103    -0.0000    -0.0000 </r>
       <r>   -18.2377    -0.0000    -0.0000 </r>
       <r>   -18.1652    -0.0000    -0.0000 </r>
       <r>   -18.0926    -0.0000    -0.0000 </r>
       <r>   -18.0200    -0.0000    -0.0000 </r>
       <r>   -17.9474    -0.0000    -0.0000 </r>
       <r>   -17.8748    -0.0000    -0.0000 </r>
       <r>   -17.8023    -0.0000    -0.0000 </r>
       <r>   -17.7297    -0.0001    -0.0000 </r>
       <r>   -17.6571    -0.0013    -0.0001 </r>
       <r>   -17.5845    -0.0087    -0.0007 </r>
       <r>   -17.5119    -0.0437    -0.0039 </r>
       <r>   -17.4393    -0.1551    -0.0152 </r>
       <r>   -17.3668    -0.3593    -0.0412 </r>
       <r>   -17.2942    -0.3921    -0.0697 </r>
       <r>   -17.2216     0.5226    -0.0318 </r>
       <r>   -17.1490     3.0961     0.1929 </r>
       <r>   -17.0764     6.5190     0.6661 </r>
       <r>   -17.0039     8.3046     1.2689 </r>
       <r>   -16.9313     6.8500     1.7660 </r>
       <r>   -16.8587     3.4734     2.0181 </r>
       <r>   -16.7861     0.7245     2.0707 </r>
       <r>   -16.7135    -0.3551     2.0450 </r>
       <r>   -16.6410    -0.3812     2.0173 </r>
       <r>   -16.5684    -0.1745     2.0046 </r>
       <r>   -16.4958    -0.0513     2.0009 </r>
       <r>   -16.4232    -0.0106     2.0001 </r>
       <r>   -16.3506    -0.0016     2.0000 </r>
       <r>   -16.2781    -0.0002     2.0000 </r>
       <r>   -16.2055    -0.0000     2.0000 </r>
       <r>   -16.1329    -0.0000     2.0000 </r>
       <r>   -16.0603    -0.0000     2.0000 </r>
       <r>   -15.9877    -0.0000     2.0000 </r>
       <r>   -15.9152    -0.0000     2.0000 </r>
       <r>   -15.8426    -0.0000     2.0000 </r>
       <r>   -15.7700    -0.0000     2.0000 </r>
       <r>   -15.6974     0.0000     2.0000 </r>
       <r>   -15.6248     0.0000     2.0000 </r>
       <r>   -15.5522     0.0000     2.0000 </r>
       <r>   -15.4797     0.0000     2.0000 </r>
       <r>   -15.4071     0.0000     2.0000 </r>
       <r>   -15.3345     0.0000     2.0000 </r>
       <r>   -15.2619     0.0000     2.0000 </r>
       <r>   -15.1893     0.0000     2.0000 </r>
       <r>   -15.1168     0.0000     2.0000 </r>
       <r>   -15.0442     0.0000     2.0000 </r>
       <r>   -14.9716     0.0000     2.0000 </r>
       <r>   -14.8990     0.0000     2.0000 </r>
       <r>   -14.8264     0.0000     2.0000 </r>
       <r>   -14.7539     0.0000     2.0000 </r>
       <r>   -14.6813     0.0000     2.0000 </r>
       <r>   -14.6087     0.0000     2.0000 </r>
       <r>   -14.5361     0.0000     2.0000 </r>
       <r>   -14.4635     0.0000     2.0000 </r>
       <r>   -14.3910     0.0000     2.0000 </r>
       <r>   -14.3184     0.0000     2.0000 </r>
       <r>   -14.2458     0.0000     2.0000 </r>
       <r>   -14.1732     0.0000     2.0000 </r>
       <r>   -14.1006     0.0000     2.0000 </r>
       <r>   -14.0281     0.0000     2.0000 </r>
       <r>   -13.9555     0.0000     2.0000 </r>
       <r>   -13.8829     0.0000     2.0000 </r>
       <r>   -13.8103     0.0000     2.0000 </r>
       <r>   -13.7377     0.0000     2.0000 </r>
       <r>   -13.6652     0.0000     2.0000 </r>
       <r>   -13.5926     0.0000     2.0000 </r>
       <r>   -13.5200     0.0000     2.0000 </r>
       <r>   -13.4474     0.0000     2.0000 </r>
       <r>   -13.3748     0.0000     2.0000 </r>
       <r>   -13.3022     0.0000     2.0000 </r>
       <r>   -13.2297     0.0000     2.0000 </r>
       <r>   -13.1571     0.0000     2.0000 </r>
       <r>   -13.0845     0.0000     2.0000 </r>
       <r>   -13.0119     0.0000     2.0000 </r>
       <r>   -12.9393     0.0000     2.0000 </r>
       <r>   -12.8668     0.0000     2.0000 </r>
       <r>   -12.7942     0.0000     2.0000 </r>
       <r>   -12.7216     0.0000     2.0000 </r>
       <r>   -12.6490     0.0000     2.0000 </r>
       <r>   -12.5764     0.0000     2.0000 </r>
       <r>   -12.5039     0.0000     2.0000 </r>
       <r>   -12.4313     0.0000     2.0000 </r>
       <r>   -12.3587     0.0000     2.0000 </r>
       <r>   -12.2861     0.0000     2.0000 </r>
       <r>   -12.2135     0.0000     2.0000 </r>
       <r>   -12.1410     0.0000     2.0000 </r>
       <r>   -12.0684     0.0000     2.0000 </r>
       <r>   -11.9958     0.0000     2.0000 </r>
       <r>   -11.9232     0.0000     2.0000 </r>
       <r>   -11.8506     0.0000     2.0000 </r>
       <r>   -11.7781     0.0000     2.0000 </r>
       <r>   -11.7055     0.0000     2.0000 </r>
       <r>   -11.6329     0.0000     2.0000 </r>
       <r>   -11.5603     0.0000     2.0000 </r>
       <r>   -11.4877     0.0000     2.0000 </r>
       <r>   -11.4151     0.0000     2.0000 </r>
       <r>   -11.3426     0.0000     2.0000 </r>
       <r>   -11.2700     0.0000     2.0000 </r>
       <r>   -11.1974     0.0000     2.0000 </r>
       <r>   -11.1248     0.0000     2.0000 </r>
       <r>   -11.0522    -0.0000     2.0000 </r>
       <r>   -10.9797    -0.0000     2.0000 </r>
       <r>   -10.9071    -0.0000     2.0000 </r>
       <r>   -10.8345    -0.0000     2.0000 </r>
       <r>   -10.7619    -0.0000     2.0000 </r>
       <r>   -10.6893    -0.0000     2.0000 </r>
       <r>   -10.6168    -0.0000     2.0000 </r>
       <r>   -10.5442    -0.0000     2.0000 </r>
       <r>   -10.4716    -0.0000     2.0000 </r>
       <r>   -10.3990    -0.0000     2.0000 </r>
       <r>   -10.3264    -0.0000     2.0000 </r>
       <r>   -10.2539    -0.0000     2.0000 </r>
       <r>   -10.1813    -0.0000     2.0000 </r>
       <r>   -10.1087    -0.0001     2.0000 </r>
       <r>   -10.0361    -0.0010     1.9999 </r>
       <r>    -9.9635    -0.0076     1.9994 </r>
       <r>    -9.8910    -0.0450     1.9961 </r>
       <r>    -9.8184    -0.1946     1.9820 </r>
       <r>    -9.7458    -0.5914     1.9391 </r>
       <r>    -9.6732    -1.1258     1.8573 </r>
       <r>    -9.6006    -0.6802     1.8080 </r>
       <r>    -9.5280     3.0912     2.0323 </r>
       <r>    -9.4555    11.4147     2.8608 </r>
       <r>    -9.3829    20.7446     4.3665 </r>
       <r>    -9.3103    24.0792     6.1142 </r>
       <r>    -9.2377    18.4643     7.4543 </r>
       <r>    -9.1651     8.7037     8.0860 </r>
       <r>    -9.0926     1.5063     8.1954 </r>
       <r>    -9.0200    -1.0724     8.1175 </r>
       <r>    -8.9474    -1.0115     8.0441 </r>
       <r>    -8.8748    -0.4473     8.0117 </r>
       <r>    -8.8022    -0.1295     8.0023 </r>
       <r>    -8.7297    -0.0266     8.0003 </r>
       <r>    -8.6571    -0.0040     8.0000 </r>
       <r>    -8.5845    -0.0004     8.0000 </r>
       <r>    -8.5119    -0.0000     8.0000 </r>
       <r>    -8.4393    -0.0000     8.0000 </r>
       <r>    -8.3668    -0.0000     8.0000 </r>
       <r>    -8.2942    -0.0000     8.0000 </r>
       <r>    -8.2216    -0.0000     8.0000 </r>
       <r>    -8.1490    -0.0000     8.0000 </r>
       <r>    -8.0764    -0.0000     8.0000 </r>
       <r>    -8.0039     0.0000     8.0000 </r>
       <r>    -7.9313     0.0000     8.0000 </r>
       <r>    -7.8587     0.0000     8.0000 </r>
       <r>    -7.7861     0.0000     8.0000 </r>
       <r>    -7.7135     0.0000     8.0000 </r>
       <r>    -7.6409     0.0000     8.0000 </r>
       <r>    -7.5684     0.0000     8.0000 </r>
       <r>    -7.4958     0.0000     8.0000 </r>
       <r>    -7.4232     0.0000     8.0000 </r>
       <r>    -7.3506     0.0000     8.0000 </r>
       <r>    -7.2780     0.0000     8.0000 </r>
       <r>    -7.2055     0.0000     8.0000 </r>
       <r>    -7.1329     0.0000     8.0000 </r>
       <r>    -7.0603     0.0000     8.0000 </r>
       <r>    -6.9877     0.0000     8.0000 </r>
       <r>    -6.9151     0.0000     8.0000 </r>
       <r>    -6.8426     0.0000     8.0000 </r>
       <r>    -6.7700     0.0000     8.0000 </r>
       <r>    -6.6974     0.0000     8.0000 </r>
       <r>    -6.6248     0.0000     8.0000 </r>
       <r>    -6.5522     0.0000     8.0000 </r>
       <r>    -6.4797     0.0000     8.0000 </r>
       <r>    -6.4071     0.0000     8.0000 </r>
       <r>    -6.3345     0.0000     8.0000 </r>
       <r>    -6.2619     0.0000     8.0000 </r>
       <r>    -6.1893     0.0000     8.0000 </r>
       <r>    -6.1168     0.0000     8.0000 </r>
       <r>    -6.0442     0.0000     8.0000 </r>
       <r>    -5.9716     0.0000     8.0000 </r>
       <r>    -5.8990     0.0000     8.0000 </r>
       <r>    -5.8264     0.0000     8.0000 </r>
       <r>    -5.7539     0.0000     8.0000 </r>
       <r>    -5.6813     0.0000     8.0000 </r>
       <r>    -5.6087     0.0000     8.0000 </r>
       <r>    -5.5361     0.0000     8.0000 </r>
       <r>    -5.4635     0.0000     8.0000 </r>
       <r>    -5.3909     0.0000     8.0000 </r>
       <r>    -5.3184     0.0000     8.0000 </r>
       <r>    -5.2458     0.0000     8.0000 </r>
       <r>    -5.1732     0.0000     8.0000 </r>
       <r>    -5.1006     0.0000     8.0000 </r>
       <r>    -5.0280     0.0000     8.0000 </r>
       <r>    -4.9555     0.0000     8.0000 </r>
       <r>    -4.8829     0.0000     8.0000 </r>
       <r>    -4.8103     0.0000     8.0000 </r>
       <r>    -4.7377     0.0000     8.0000 </r>
       <r>    -4.6651     0.0000     8.0000 </r>
       <r>    -4.5926     0.0000     8.0000 </r>
       <r>    -4.5200     0.0000     8.0000 </r>
       <r>    -4.4474     0.0000     8.0000 </r>
       <r>    -4.3748     0.0000     8.0000 </r>
       <r>    -4.3022     0.0000     8.0000 </r>
       <r>    -4.2297     0.0000     8.0000 </r>
       <r>    -4.1571     0.0000     8.0000 </r>
       <r>    -4.0845     0.0000     8.0000 </r>
       <r>    -4.0119     0.0000     8.0000 </r>
       <r>    -3.9393     0.0000     8.0000 </r>
       <r>    -3.8668     0.0000     8.0000 </r>
       <r>    -3.7942     0.0000     8.0000 </r>
       <r>    -3.7216     0.0000     8.0000 </r>
       <r>    -3.6490     0.0000     8.0000 </r>
       <r>    -3.5764     0.0000     8.0000 </r>
       <r>    -3.5038     0.0000     8.0000 </r>
       <r>    -3.4313     0.0000     8.0000 </r>
       <r>    -3.3587     0.0000     8.0000 </r>
       <r>    -3.2861     0.0000     8.0000 </r>
       <r>    -3.2135     0.0000     8.0000 </r>
       <r>    -3.1409     0.0000     8.0000 </r>
       <r>    -3.0684     0.0000     8.0000 </r>
       <r>    -2.9958     0.0000     8.0000 </r>
       <r>    -2.9232     0.0000     8.0000 </r>
       <r>    -2.8506     0.0000     8.0000 </r>
       <r>    -2.7780     0.0000     8.0000 </r>
       <r>    -2.7055     0.0000     8.0000 </r>
       <r>    -2.6329     0.0000     8.0000 </r>
       <r>    -2.5603     0.0000     8.0000 </r>
       <r>    -2.4877     0.0000     8.0000 </r>
       <r>    -2.4151     0.0000     8.0000 </r>
       <r>    -2.3426     0.0000     8.0000 </r>
       <r>    -2.2700     0.0000     8.0000 </r>
       <r>    -2.1974     0.0000     8.0000 </r>
       <r>    -2.1248     0.0000     8.0000 </r>
       <r>    -2.0522     0.0000     8.0000 </r>
       <r>    -1.9797     0.0000     8.0000 </r>
       <r>    -1.9071    -0.0000     8.0000 </r>
       <r>    -1.8345    -0.0000     8.0000 </r>
       <r>    -1.7619    -0.0000     8.0000 </r>
       <r>    -1.6893    -0.0000     8.0000 </r>
       <r>    -1.6167    -0.0000     8.0000 </r>
       <r>    -1.5442    -0.0000     8.0000 </r>
       <r>    -1.4716    -0.0000     8.0000 </r>
       <r>    -1.3990    -0.0000     8.0000 </r>
       <r>    -1.3264    -0.0000     8.0000 </r>
       <r>    -1.2538    -0.0000     8.0000 </r>
       <r>    -1.1813    -0.0000     8.0000 </r>
       <r>    -1.1087    -0.0000     8.0000 </r>
       <r>    -1.0361    -0.0000     8.0000 </r>
       <r>    -0.9635    -0.0002     8.0000 </r>
       <r>    -0.8909    -0.0019     7.9998 </r>
       <r>    -0.8184    -0.0121     7.9990 </r>
       <r>    -0.7458    -0.0572     7.9948 </r>
       <r>    -0.6732    -0.1888     7.9811 </r>
       <r>    -0.6006    -0.3952     7.9524 </r>
       <r>    -0.5280    -0.3213     7.9291 </r>
       <r>    -0.4555     0.8796     7.9929 </r>
       <r>    -0.3829     3.7435     8.2647 </r>
       <r>    -0.3103     7.0661     8.7775 </r>
       <r>    -0.2377     8.2775     9.3783 </r>
       <r>    -0.1651     6.2742     9.8337 </r>
       <r>    -0.0926     2.8399    10.0398 </r>
       <r>    -0.0200     0.3940    10.0684 </r>
       <r>     0.0526    -0.4193    10.0380 </r>
       <r>     0.1252    -0.3890    10.0098 </r>
       <r>     0.1978    -0.3234     9.9863 </r>
       <r>     0.2703    -0.5400     9.9471 </r>
       <r>     0.3429    -0.8757     9.8835 </r>
       <r>     0.4155    -0.4131     9.8535 </r>
       <r>     0.4881     2.5504    10.0387 </r>
       <r>     0.5607     9.0697    10.6969 </r>
       <r>     0.6333    17.2071    11.9458 </r>
       <r>     0.7058    22.0253    13.5445 </r>
       <r>     0.7784    19.7603    14.9787 </r>
       <r>     0.8510    12.0083    15.8502 </r>
       <r>     0.9236     4.1563    16.1519 </r>
       <r>     0.9962    -0.0932    16.1451 </r>
       <r>     1.0687    -1.0290    16.0705 </r>
       <r>     1.1413    -0.6532    16.0230 </r>
       <r>     1.2139    -0.2426    16.0054 </r>
       <r>     1.2865    -0.0618    16.0010 </r>
       <r>     1.3591    -0.0114    16.0001 </r>
       <r>     1.4316    -0.0016    16.0000 </r>
       <r>     1.5042    -0.0002    16.0000 </r>
       <r>     1.5768    -0.0000    16.0000 </r>
       <r>     1.6494    -0.0000    16.0000 </r>
       <r>     1.7220    -0.0000    16.0000 </r>
       <r>     1.7945    -0.0000    16.0000 </r>
       <r>     1.8671    -0.0000    16.0000 </r>
       <r>     1.9397    -0.0000    16.0000 </r>
       <r>     2.0123    -0.0000    16.0000 </r>
       <r>     2.0849     0.0000    16.0000 </r>
       <r>     2.1574     0.0000    16.0000 </r>
       <r>     2.2300     0.0000    16.0000 </r>
       <r>     2.3026     0.0000    16.0000 </r>
       <r>     2.3752     0.0000    16.0000 </r>
       <r>     2.4478     0.0000    16.0000 </r>
       <r>     2.5204     0.0000    16.0000 </r>
       <r>     2.5929     0.0000    16.0000 </r>
       <r>     2.6655     0.0000    16.0000 </r>
       <r>     2.7381     0.0000    16.0000 </r>
      </set>
     </set>
    </array>
   </total>
  </dos>
  <time name="totalsc">   80.40   80.60</time>
 </calculation>
 <calculation>
  <scstep>
   <time name="dav">    1.82    1.82</time>
   <time name="total">    3.50    3.51</time>
   <energy>
    <i name="alphaZ">      0.25715048 </i>
    <i name="ewald">    125.17252164 </i>
    <i name="hartreedc">   -282.88578306 </i>
    <i name="XCdc">     24.79533916 </i>
    <i name="pawpsdc">    491.16440992 </i>
    <i name="pawaedc">   -491.96954291 </i>
    <i name="eentropy">      0.01206949 </i>
    <i name="bandstr">    -87.64737993 </i>
    <i name="atom">    197.04175453 </i>
    <i name="e_fr_energy">    -24.05946068 </i>
    <i name="e_wo_entrp">    -24.07153017 </i>
    <i name="e_0_energy">    -24.06348384 </i>
   </energy>
  </scstep>
  <scstep>
   <time name="diag">    0.37    0.37</time>
   <time name="diis">    1.31    1.31</time>
   <time name="orth">    0.01    0.01</time>
   <time name="total">    3.27    3.28</time>
   <energy>
    <i name="e_fr_energy">    -24.04580071 </i>
    <i name="e_wo_entrp">    -24.06028283 </i>
    <i name="e_0_energy">    -24.05062808 </i>
   </energy>
  </scstep>
  <scstep>
   <time name="diag">    0.37    0.37</time>
   <time name="diis">    1.29    1.29</time>
   <time name="orth">    0.01    0.01</time>
   <time name="total">    3.20    3.21</time>
   <energy>
    <i name="e_fr_energy">    -24.05562623 </i>
    <i name="e_wo_entrp">    -24.07232880 </i>
    <i name="e_0_energy">    -24.06119376 </i>
   </energy>
  </scstep>
  <scstep>
   <time name="diag">    0.38    0.38</time>
   <time name="diis">    1.28    1.28</time>
   <time name="orth">    0.01    0.01</time>
   <time name="total">    3.23    3.23</time>
   <energy>
    <i name="e_fr_energy">    -24.04991337 </i>
    <i name="e_wo_entrp">    -24.06836083 </i>
    <i name="e_0_energy">    -24.05606252 </i>
   </energy>
  </scstep>
  <scstep>
   <time name="diag">    0.41    0.42</time>
   <time name="diis">    1.41    1.41</time>
   <time name="orth">    0.01    0.01</time>
   <time name="total">    3.46    3.47</time>
   <energy>
    <i name="e_fr_energy">    -24.04663942 </i>
    <i name="e_wo_entrp">    -24.06490722 </i>
    <i name="e_0_energy">    -24.05272868 </i>
   </energy>
  </scstep>
  <scstep>
   <time name="diag">    0.38    0.38</time>
   <time name="diis">    1.35    1.35</time>
   <time name="orth">    0.01    0.01</time>
   <time name="total">    3.39    3.40</time>
   <energy>
    <i name="e_fr_energy">    -24.04619985 </i>
    <i name="e_wo_entrp">    -24.06402856 </i>
    <i name="e_0_energy">    -24.05214275 </i>
   </energy>
  </scstep>
  <scstep>
   <time name="diag">    0.38    0.38</time>
   <time name="diis">    1.34    1.34</time>
   <time name="orth">    0.01    0.01</time>
   <time name="total">    3.40    3.41</time>
   <energy>
    <i name="e_fr_energy">    -24.04571165 </i>
    <i name="e_wo_entrp">    -24.06277605 </i>
    <i name="e_0_energy">    -24.05139978 </i>
   </energy>
  </scstep>
  <scstep>
   <time name="diag">    0.37    0.37</time>
   <time name="diis">    1.33    1.34</time>
   <time name="orth">    0.01    0.01</time>
   <time name="total">    3.42    3.43</time>
   <energy>
    <i name="e_fr_energy">    -24.04527968 </i>
    <i name="e_wo_entrp">    -24.06147321 </i>
    <i name="e_0_energy">    -24.05067752 </i>
   </energy>
  </scstep>
  <scstep>
   <time name="diag">    0.37    0.37</time>
   <time name="diis">    1.32    1.32</time>
   <time name="orth">    0.01    0.01</time>
   <time name="total">    3.41    3.42</time>
   <energy>
    <i name="e_fr_energy">    -24.04494012 </i>
    <i name="e_wo_entrp">    -24.06020350 </i>
    <i name="e_0_energy">    -24.05002792 </i>
   </energy>
  </scstep>
  <scstep>
   <time name="diag">    0.37    0.37</time>
   <time name="diis">    1.32    1.32</time>
   <time name="orth">    0.01    0.01</time>
   <time name="total">    3.41    3.42</time>
   <energy>
    <i name="e_fr_energy">    -24.04485297 </i>
    <i name="e_wo_entrp">    -24.05978212 </i>
    <i name="e_0_energy">    -24.04982935 </i>
   </energy>
  </scstep>
  <scstep>
   <time name="diag">    0.37    0.38</time>
   <time name="diis">    1.34    1.34</time>
   <time name="orth">    0.01    0.01</time>
   <time name="total">    3.44    3.45</time>
   <energy>
    <i name="e_fr_energy">    -24.04479747 </i>
    <i name="e_wo_entrp">    -24.05944961 </i>
    <i name="e_0_energy">    -24.04968151 </i>
   </energy>
  </scstep>
  <scstep>
   <time name="diag">    0.37    0.37</time>
   <time name="diis">    1.33    1.33</time>
   <time name="orth">    0.01    0.01</time>
   <time name="total">    3.41    3.41</time>
   <energy>
    <i name="e_fr_energy">    -24.04476018 </i>
    <i name="e_wo_entrp">    -24.05904656 </i>
    <i name="e_0_energy">    -24.04952231 </i>
   </energy>
  </scstep>
  <scstep>
   <time name="diag">    0.38    0.38</time>
   <time name="diis">    1.34    1.34</time>
   <time name="orth">    0.01    0.01</time>
   <time name="total">    3.45    3.46</time>
   <energy>
    <i name="e_fr_energy">    -24.04475407 </i>
    <i name="e_wo_entrp">    -24.05889523 </i>
    <i name="e_0_energy">    -24.04946779 </i>
   </energy>
  </scstep>
  <scstep>
   <time name="diag">    0.36    0.36</time>
   <time name="diis">    1.32    1.32</time>
   <time name="orth">    0.01    0.01</time>
   <time name="total">    3.44    3.45</time>
   <energy>
    <i name="e_fr_energy">    -24.04475720 </i>
    <i name="e_wo_entrp">    -24.05876548 </i>
    <i name="e_0_energy">    -24.04942663 </i>
   </energy>
  </scstep>
  <scstep>
   <time name="diag">    0.36    0.36</time>
   <time name="diis">    1.03    1.03</time>
   <time name="orth">    0.01    0.01</time>
   <time name="total">    3.19    3.20</time>
   <energy>
    <i name="e_fr_energy">    -24.04476334 </i>
    <i name="e_wo_entrp">    -24.05879892 </i>
    <i name="e_0_energy">    -24.04944187 </i>
   </energy>
  </scstep>
  <scstep>
   <time name="diag">    0.36    0.37</time>
   <time name="diis">    0.97    0.97</time>
   <time name="orth">    0.01    0.01</time>
   <time name="total">    2.90    2.91</time>
   <energy>
    <i name="alphaZ">      0.25715048 </i>
    <i name="ewald">    125.17252164 </i>
    <i name="hartreedc">   -281.15866585 </i>
    <i name="XCdc">     24.69669445 </i>
    <i name="pawpsdc">    448.82162092 </i>
    <i name="pawaedc">   -449.60773293 </i>
    <i name="eentropy">      0.01399195 </i>
    <i name="bandstr">    -89.28209910 </i>
    <i name="atom">    197.04175453 </i>
    <i name="e_fr_energy">    -24.04476390 </i>
    <i name="e_wo_entrp">    -24.05875585 </i>
    <i name="e_0_energy">    -24.04942788 </i>
   </energy>
  </scstep>
  <structure>
   <crystal>
    <varray name="basis" >
     <v>       9.76090106       0.00000000       0.00000000 </v>
     <v>      -0.06857264       9.70701924       0.00000000 </v>
     <v>       0.11690783       0.03067245       9.94264809 </v>
    </varray>
    <i name="volume">    942.05849262 </i>
    <varray name="rec_basis" >
     <v>       0.10244956       0.00072373      -0.00120686 </v>
     <v>       0.00000000       0.10301824      -0.00031780 </v>
     <v>       0.00000000      -0.00000000       0.10057683 </v>
    </varray>
   </crystal>
   <varray name="positions" >
    <v>       0.53923151       0.40886568       0.36003293 </v>
    <v>       0.39298884       0.47883399       0.43540399 </v>
    <v>       0.55721789       0.56843361       0.44388912 </v>
    <v>       0.52754494       0.41462633       0.54343911 </v>
    <v>       0.50287236       0.46718877       0.44513494 </v>
   </varray>
  </structure>
  <varray name="forces" >
   <v>       0.39362693       0.37251074      -0.29234686 </v>
   <v>       0.38683646      -0.03902622      -0.09403215 </v>
   <v>      -0.51607407      -0.06767109      -0.16992860 </v>
   <v>      -0.67417465       0.06006023      -1.09493258 </v>
   <v>       0.03576203       0.89572431       0.64055309 </v>
  </varray>
  <varray name="stress" >
   <v>      -0.68552725      -0.67166403      -0.63894632 </v>
   <v>      -0.67166403      -1.31263355       0.64736214 </v>
   <v>      -0.63894633       0.64736215      -1.40906195 </v>
  </varray>
  <energy>
   <i name="e_fr_energy">    -24.04476390 </i>
   <i name="e_wo_entrp">    -24.04942788 </i>
   <i name="e_0_energy">      0.01399195 </i>
   <i name="kinetic">      0.07880878 </i>
   <i name="lattice kinetic">      0.00000000 </i>
   <i name="nosepot">      0.00039201 </i>
   <i name="nosekinetic">      0.00087179 </i>
   <i name="total">    -23.96469131 </i>
  </energy>
  <dos>
   <i name="efermi">     -8.87220619 </i>
   <total>
    <array>
     <dimension dim="1">gridpoints</dimension>
     <dimension dim="2">spin</dimension>
     <field>energy</field>
     <field>total</field>
     <field>integrated</field>
     <set>
      <set comment="spin 1">
       <r>   -18.8566     0.0000     0.0000 </r>
       <r>   -18.7847     0.0000     0.0000 </r>
       <r>   -18.7127     0.0000     0.0000 </r>
       <r>   -18.6408     0.0000     0.0000 </r>
       <r>   -18.5688     0.0000     0.0000 </r>
       <r>   -18.4969    -0.0000    -0.0000 </r>
       <r>   -18.4249    -0.0000    -0.0000 </r>
       <r>   -18.3530    -0.0000    -0.0000 </r>
       <r>   -18.2810    -0.0000    -0.0000 </r>
       <r>   -18.2091    -0.0000    -0.0000 </r>
       <r>   -18.1371    -0.0000    -0.0000 </r>
       <r>   -18.0652    -0.0000    -0.0000 </r>
       <r>   -17.9932    -0.0000    -0.0000 </r>
       <r>   -17.9213    -0.0000    -0.0000 </r>
       <r>   -17.8493    -0.0000    -0.0000 </r>
       <r>   -17.7774    -0.0000    -0.0000 </r>
       <r>   -17.7055    -0.0000    -0.0000 </r>
       <r>   -17.6335    -0.0000    -0.0000 </r>
       <r>   -17.5616    -0.0001    -0.0000 </r>
       <r>   -17.4896    -0.0009    -0.0001 </r>
       <r>   -17.4177    -0.0064    -0.0005 </r>
       <r>   -17.3457    -0.0335    -0.0029 </r>
       <r>   -17.2738    -0.1258    -0.0120 </r>
       <r>   -17.2018    -0.3175    -0.0348 </r>
       <r>   -17.1299    -0.4310    -0.0658 </r>
       <r>   -17.0579     0.1974    -0.0516 </r>
       <r>   -16.9860     2.3849     0.1199 </r>
       <r>   -16.9140     5.7715     0.5352 </r>
       <r>   -16.8421     8.1583     1.1222 </r>
       <r>   -16.7701     7.4914     1.6611 </r>
       <r>   -16.6982     4.3745     1.9759 </r>
       <r>   -16.6262     1.2958     2.0691 </r>
       <r>   -16.5543    -0.2058     2.0543 </r>
       <r>   -16.4824    -0.4250     2.0237 </r>
       <r>   -16.4104    -0.2312     2.0071 </r>
       <r>   -16.3385    -0.0771     2.0015 </r>
       <r>   -16.2665    -0.0179     2.0002 </r>
       <r>   -16.1946    -0.0030     2.0000 </r>
       <r>   -16.1226    -0.0004     2.0000 </r>
       <r>   -16.0507    -0.0000     2.0000 </r>
       <r>   -15.9787    -0.0000     2.0000 </r>
       <r>   -15.9068    -0.0000     2.0000 </r>
       <r>   -15.8348    -0.0000     2.0000 </r>
       <r>   -15.7629    -0.0000     2.0000 </r>
       <r>   -15.6909    -0.0000     2.0000 </r>
       <r>   -15.6190    -0.0000     2.0000 </r>
       <r>   -15.5470     0.0000     2.0000 </r>
       <r>   -15.4751     0.0000     2.0000 </r>
       <r>   -15.4032     0.0000     2.0000 </r>
       <r>   -15.3312     0.0000     2.0000 </r>
       <r>   -15.2593     0.0000     2.0000 </r>
       <r>   -15.1873     0.0000     2.0000 </r>
       <r>   -15.1154     0.0000     2.0000 </r>
       <r>   -15.0434     0.0000     2.0000 </r>
       <r>   -14.9715     0.0000     2.0000 </r>
       <r>   -14.8995     0.0000     2.0000 </r>
       <r>   -14.8276     0.0000     2.0000 </r>
       <r>   -14.7556     0.0000     2.0000 </r>
       <r>   -14.6837     0.0000     2.0000 </r>
       <r>   -14.6117     0.0000     2.0000 </r>
       <r>   -14.5398     0.0000     2.0000 </r>
       <r>   -14.4678     0.0000     2.0000 </r>
       <r>   -14.3959     0.0000     2.0000 </r>
       <r>   -14.3240     0.0000     2.0000 </r>
       <r>   -14.2520     0.0000     2.0000 </r>
       <r>   -14.1801     0.0000     2.0000 </r>
       <r>   -14.1081     0.0000     2.0000 </r>
       <r>   -14.0362     0.0000     2.0000 </r>
       <r>   -13.9642     0.0000     2.0000 </r>
       <r>   -13.8923     0.0000     2.0000 </r>
       <r>   -13.8203     0.0000     2.0000 </r>
       <r>   -13.7484     0.0000     2.0000 </r>
       <r>   -13.6764     0.0000     2.0000 </r>
       <r>   -13.6045     0.0000     2.0000 </r>
       <r>   -13.5325     0.0000     2.0000 </r>
       <r>   -13.4606     0.0000     2.0000 </r>
       <r>   -13.3886     0.0000     2.0000 </r>
       <r>   -13.3167     0.0000     2.0000 </r>
       <r>   -13.2447     0.0000     2.0000 </r>
       <r>   -13.1728     0.0000     2.0000 </r>
       <r>   -13.1009     0.0000     2.0000 </r>
       <r>   -13.0289     0.0000     2.0000 </r>
       <r>   -12.9570     0.0000     2.0000 </r>
       <r>   -12.8850     0.0000     2.0000 </r>
       <r>   -12.8131     0.0000     2.0000 </r>
       <r>   -12.7411     0.0000     2.0000 </r>
       <r>   -12.6692     0.0000     2.0000 </r>
       <r>   -12.5972     0.0000     2.0000 </r>
       <r>   -12.5253     0.0000     2.0000 </r>
       <r>   -12.4533     0.0000     2.0000 </r>
       <r>   -12.3814     0.0000     2.0000 </r>
       <r>   -12.3094     0.0000     2.0000 </r>
       <r>   -12.2375     0.0000     2.0000 </r>
       <r>   -12.1655     0.0000     2.0000 </r>
       <r>   -12.0936     0.0000     2.0000 </r>
       <r>   -12.0217     0.0000     2.0000 </r>
       <r>   -11.9497     0.0000     2.0000 </r>
       <r>   -11.8778     0.0000     2.0000 </r>
       <r>   -11.8058     0.0000     2.0000 </r>
       <r>   -11.7339     0.0000     2.0000 </r>
       <r>   -11.6619     0.0000     2.0000 </r>
       <r>   -11.5900     0.0000     2.0000 </r>
       <r>   -11.5180     0.0000     2.0000 </r>
       <r>   -11.4461     0.0000     2.0000 </r>
       <r>   -11.3741     0.0000     2.0000 </r>
       <r>   -11.3022     0.0000     2.0000 </r>
       <r>   -11.2302     0.0000     2.0000 </r>
       <r>   -11.1583     0.0000     2.0000 </r>
       <r>   -11.0863    -0.0000     2.0000 </r>
       <r>   -11.0144    -0.0000     2.0000 </r>
       <r>   -10.9425    -0.0000     2.0000 </r>
       <r>   -10.8705    -0.0000     2.0000 </r>
       <r>   -10.7986    -0.0000     2.0000 </r>
       <r>   -10.7266    -0.0000     2.0000 </r>
       <r>   -10.6547    -0.0000     2.0000 </r>
       <r>   -10.5827    -0.0000     2.0000 </r>
       <r>   -10.5108    -0.0000     2.0000 </r>
       <r>   -10.4388    -0.0000     2.0000 </r>
       <r>   -10.3669    -0.0000     2.0000 </r>
       <r>   -10.2949    -0.0000     2.0000 </r>
       <r>   -10.2230    -0.0000     2.0000 </r>
       <r>   -10.1510    -0.0000     2.0000 </r>
       <r>   -10.0791    -0.0005     2.0000 </r>
       <r>   -10.0071    -0.0036     1.9997 </r>
       <r>    -9.9352    -0.0216     1.9981 </r>
       <r>    -9.8632    -0.0950     1.9913 </r>
       <r>    -9.7913    -0.2972     1.9699 </r>
       <r>    -9.7194    -0.6065     1.9263 </r>
       <r>    -9.6474    -0.5363     1.8877 </r>
       <r>    -9.5755     1.0871     1.9659 </r>
       <r>    -9.5035     5.2360     2.3426 </r>
       <r>    -9.4316    10.8180     3.1210 </r>
       <r>    -9.3596    14.4274     4.1590 </r>
       <r>    -9.2877    13.4999     5.1302 </r>
       <r>    -9.2157     9.5924     5.8204 </r>
       <r>    -9.1438     6.8538     6.3135 </r>
       <r>    -9.0718     7.0008     6.8172 </r>
       <r>    -8.9999     7.6436     7.3671 </r>
       <r>    -8.9279     6.1547     7.8099 </r>
       <r>    -8.8560     3.0639     8.0304 </r>
       <r>    -8.7840     0.5699     8.0714 </r>
       <r>    -8.7121    -0.3831     8.0438 </r>
       <r>    -8.6402    -0.3765     8.0167 </r>
       <r>    -8.5682    -0.1700     8.0045 </r>
       <r>    -8.4963    -0.0500     8.0009 </r>
       <r>    -8.4243    -0.0104     8.0001 </r>
       <r>    -8.3524    -0.0016     8.0000 </r>
       <r>    -8.2804    -0.0002     8.0000 </r>
       <r>    -8.2085    -0.0000     8.0000 </r>
       <r>    -8.1365    -0.0000     8.0000 </r>
       <r>    -8.0646    -0.0000     8.0000 </r>
       <r>    -7.9926    -0.0000     8.0000 </r>
       <r>    -7.9207    -0.0000     8.0000 </r>
       <r>    -7.8487    -0.0000     8.0000 </r>
       <r>    -7.7768    -0.0000     8.0000 </r>
       <r>    -7.7048     0.0000     8.0000 </r>
       <r>    -7.6329     0.0000     8.0000 </r>
       <r>    -7.5610     0.0000     8.0000 </r>
       <r>    -7.4890     0.0000     8.0000 </r>
       <r>    -7.4171     0.0000     8.0000 </r>
       <r>    -7.3451     0.0000     8.0000 </r>
       <r>    -7.2732     0.0000     8.0000 </r>
       <r>    -7.2012     0.0000     8.0000 </r>
       <r>    -7.1293     0.0000     8.0000 </r>
       <r>    -7.0573     0.0000     8.0000 </r>
       <r>    -6.9854     0.0000     8.0000 </r>
       <r>    -6.9134     0.0000     8.0000 </r>
       <r>    -6.8415     0.0000     8.0000 </r>
       <r>    -6.7695     0.0000     8.0000 </r>
       <r>    -6.6976     0.0000     8.0000 </r>
       <r>    -6.6256     0.0000     8.0000 </r>
       <r>    -6.5537     0.0000     8.0000 </r>
       <r>    -6.4817     0.0000     8.0000 </r>
       <r>    -6.4098     0.0000     8.0000 </r>
       <r>    -6.3379     0.0000     8.0000 </r>
       <r>    -6.2659     0.0000     8.0000 </r>
       <r>    -6.1940     0.0000     8.0000 </r>
       <r>    -6.1220     0.0000     8.0000 </r>
       <r>    -6.0501     0.0000     8.0000 </r>
       <r>    -5.9781     0.0000     8.0000 </r>
       <r>    -5.9062     0.0000     8.0000 </r>
       <r>    -5.8342     0.0000     8.0000 </r>
       <r>    -5.7623     0.0000     8.0000 </r>
       <r>    -5.6903     0.0000     8.0000 </r>
       <r>    -5.6184     0.0000     8.0000 </r>
       <r>    -5.5464     0.0000     8.0000 </r>
       <r>    -5.4745     0.0000     8.0000 </r>
       <r>    -5.4025     0.0000     8.0000 </r>
       <r>    -5.3306     0.0000     8.0000 </r>
       <r>    -5.2587     0.0000     8.0000 </r>
       <r>    -5.1867     0.0000     8.0000 </r>
       <r>    -5.1148     0.0000     8.0000 </r>
       <r>    -5.0428     0.0000     8.0000 </r>
       <r>    -4.9709     0.0000     8.0000 </r>
       <r>    -4.8989     0.0000     8.0000 </r>
       <r>    -4.8270     0.0000     8.0000 </r>
       <r>    -4.7550     0.0000     8.0000 </r>
       <r>    -4.6831     0.0000     8.0000 </r>
       <r>    -4.6111     0.0000     8.0000 </r>
       <r>    -4.5392     0.0000     8.0000 </r>
       <r>    -4.4672     0.0000     8.0000 </r>
       <r>    -4.3953     0.0000     8.0000 </r>
       <r>    -4.3233     0.0000     8.0000 </r>
       <r>    -4.2514     0.0000     8.0000 </r>
       <r>    -4.1795     0.0000     8.0000 </r>
       <r>    -4.1075     0.0000     8.0000 </r>
       <r>    -4.0356     0.0000     8.0000 </r>
       <r>    -3.9636     0.0000     8.0000 </r>
       <r>    -3.8917     0.0000     8.0000 </r>
       <r>    -3.8197     0.0000     8.0000 </r>
       <r>    -3.7478     0.0000     8.0000 </r>
       <r>    -3.6758     0.0000     8.0000 </r>
       <r>    -3.6039     0.0000     8.0000 </r>
       <r>    -3.5319     0.0000     8.0000 </r>
       <r>    -3.4600     0.0000     8.0000 </r>
       <r>    -3.3880     0.0000     8.0000 </r>
       <r>    -3.3161     0.0000     8.0000 </r>
       <r>    -3.2441     0.0000     8.0000 </r>
       <r>    -3.1722     0.0000     8.0000 </r>
       <r>    -3.1002     0.0000     8.0000 </r>
       <r>    -3.0283     0.0000     8.0000 </r>
       <r>    -2.9564     0.0000     8.0000 </r>
       <r>    -2.8844     0.0000     8.0000 </r>
       <r>    -2.8125     0.0000     8.0000 </r>
       <r>    -2.7405     0.0000     8.0000 </r>
       <r>    -2.6686     0.0000     8.0000 </r>
       <r>    -2.5966     0.0000     8.0000 </r>
       <r>    -2.5247     0.0000     8.0000 </r>
       <r>    -2.4527     0.0000     8.0000 </r>
       <r>    -2.3808     0.0000     8.0000 </r>
       <r>    -2.3088     0.0000     8.0000 </r>
       <r>    -2.2369     0.0000     8.0000 </r>
       <r>    -2.1649     0.0000     8.0000 </r>
       <r>    -2.0930     0.0000     8.0000 </r>
       <r>    -2.0210     0.0000     8.0000 </r>
       <r>    -1.9491    -0.0000     8.0000 </r>
       <r>    -1.8772    -0.0000     8.0000 </r>
       <r>    -1.8052    -0.0000     8.0000 </r>
       <r>    -1.7333    -0.0000     8.0000 </r>
       <r>    -1.6613    -0.0000     8.0000 </r>
       <r>    -1.5894    -0.0000     8.0000 </r>
       <r>    -1.5174    -0.0000     8.0000 </r>
       <r>    -1.4455    -0.0000     8.0000 </r>
       <r>    -1.3735    -0.0000     8.0000 </r>
       <r>    -1.3016    -0.0000     8.0000 </r>
       <r>    -1.2296    -0.0000     8.0000 </r>
       <r>    -1.1577    -0.0000     8.0000 </r>
       <r>    -1.0857    -0.0000     8.0000 </r>
       <r>    -1.0138    -0.0001     8.0000 </r>
       <r>    -0.9418    -0.0012     7.9999 </r>
       <r>    -0.8699    -0.0080     7.9993 </r>
       <r>    -0.7980    -0.0401     7.9965 </r>
       <r>    -0.7260    -0.1441     7.9861 </r>
       <r>    -0.6541    -0.3435     7.9614 </r>
       <r>    -0.5821    -0.4126     7.9317 </r>
       <r>    -0.5102     0.3703     7.9583 </r>
       <r>    -0.4382     2.7620     8.1570 </r>
       <r>    -0.3663     6.1702     8.6010 </r>
       <r>    -0.2943     8.2573     9.1951 </r>
       <r>    -0.2224     7.1995     9.7130 </r>
       <r>    -0.1504     3.9489     9.9971 </r>
       <r>    -0.0785     1.0208    10.0706 </r>
       <r>    -0.0065    -0.2854    10.0501 </r>
       <r>     0.0654    -0.4273    10.0193 </r>
       <r>     0.1374    -0.2907     9.9984 </r>
       <r>     0.2093    -0.3469     9.9734 </r>
       <r>     0.2812    -0.6601     9.9259 </r>
       <r>     0.3532    -0.8242     9.8666 </r>
       <r>     0.4251     0.3449     9.8915 </r>
       <r>     0.4971     4.4141    10.2090 </r>
       <r>     0.5690    11.5669    11.0412 </r>
       <r>     0.6410    18.9263    12.4029 </r>
       <r>     0.7129    21.7799    13.9699 </r>
       <r>     0.7849    17.8201    15.2520 </r>
       <r>     0.8568     9.8074    15.9576 </r>
       <r>     0.9288     2.8338    16.1615 </r>
       <r>     1.0007    -0.4724    16.1275 </r>
       <r>     1.0727    -0.9751    16.0574 </r>
       <r>     1.1446    -0.5492    16.0179 </r>
       <r>     1.2166    -0.1917    16.0041 </r>
       <r>     1.2885    -0.0468    16.0007 </r>
       <r>     1.3605    -0.0084    16.0001 </r>
       <r>     1.4324    -0.0011    16.0000 </r>
       <r>     1.5043    -0.0001    16.0000 </r>
       <r>     1.5763    -0.0000    16.0000 </r>
       <r>     1.6482    -0.0000    16.0000 </r>
       <r>     1.7202    -0.0000    16.0000 </r>
       <r>     1.7921    -0.0000    16.0000 </r>
       <r>     1.8641    -0.0000    16.0000 </r>
       <r>     1.9360    -0.0000    16.0000 </r>
       <r>     2.0080    -0.0000    16.0000 </r>
       <r>     2.0799     0.0000    16.0000 </r>
       <r>     2.1519     0.0000    16.0000 </r>
       <r>     2.2238     0.0000    16.0000 </r>
       <r>     2.2958     0.0000    16.0000 </r>
       <r>     2.3677     0.0000    16.0000 </r>
       <r>     2.4397     0.0000    16.0000 </r>
       <r>     2.5116     0.0000    16.0000 </r>
       <r>     2.5835     0.0000    16.0000 </r>
       <r>     2.6555     0.0000    16.0000 </r>
       <r>     2.7274     0.0000    16.0000 </r>
      </set>
     </set>
    </array>
   </total>
  </dos>
  <time name="totalsc">   60.39   60.54</time>
 </calculation>
 <calculation>
  <scstep>
   <time name="dav">    1.84    1.85</time>
   <time name="total">    3.54    3.55</time>
   <energy>
    <i name="alphaZ">      0.25715048 </i>
    <i name="ewald">    123.02851842 </i>
    <i name="hartreedc">   -278.72590401 </i>
    <i name="XCdc">     24.56873495 </i>
    <i name="pawpsdc">    421.78509612 </i>
    <i name="pawaedc">   -422.55866214 </i>
    <i name="eentropy">      0.01160136 </i>
    <i name="bandstr">    -89.42053493 </i>
    <i name="atom">    197.04175453 </i>
    <i name="e_fr_energy">    -24.01224522 </i>
    <i name="e_wo_entrp">    -24.02384658 </i>
    <i name="e_0_energy">    -24.01611234 </i>
   </energy>
  </scstep>
  <scstep>
   <time name="diag">    0.39    0.39</time>
   <time name="diis">    1.29    1.30</time>
   <time name="orth">    0.01    0.01</time>
   <time name="total">    3.34    3.34</time>
   <energy>
    <i name="e_fr_energy">    -24.01462383 </i>
    <i name="e_wo_entrp">    -24.02622190 </i>
    <i name="e_0_energy">    -24.01848985 </i>
   </energy>
  </scstep>
  <scstep>
   <time name="diag">    0.40    0.40</time>
   <time name="diis">    1.28    1.28</time>
   <time name="orth">    0.01    0.01</time>
   <time name="total">    3.32    3.33</time>
   <energy>
    <i name="e_fr_energy">    -24.01743585 </i>
    <i name="e_wo_entrp">    -24.02904558 </i>
    <i name="e_0_energy">    -24.02130576 </i>
   </energy>
  </scstep>
  <scstep>
   <time name="diag">    0.42    0.42</time>
   <time name="diis">    1.31    1.31</time>
   <time name="orth">    0.01    0.01</time>
   <time name="total">    3.41    3.42</time>
   <energy>
    <i name="e_fr_energy">    -24.02007641 </i>
    <i name="e_wo_entrp">    -24.03168629 </i>
    <i name="e_0_energy">    -24.02394637 </i>
   </energy>
  </scstep>
  <scstep>
   <time name="diag">    0.41    0.42</time>
   <time name="diis">    1.31    1.31</time>
   <time name="orth">    0.01    0.01</time>
   <time name="total">    3.41    3.42</time>
   <energy>
    <i name="e_fr_energy">    -24.01375403 </i>
    <i name="e_wo_entrp">    -24.02535822 </i>
    <i name="e_0_energy">    -24.01762210 </i>
   </energy>
  </scstep>
  <scstep>
   <time name="diag">    0.40    0.40</time>
   <time name="diis">    1.31    1.31</time>
   <time name="orth">    0.01    0.01</time>
   <time name="total">    3.41    3.41</time>
   <energy>
    <i name="e_fr_energy">    -24.01322050 </i>
    <i name="e_wo_entrp">    -24.02482404 </i>
    <i name="e_0_energy">    -24.01708835 </i>
   </energy>
  </scstep>
  <scstep>
   <time name="diag">    0.39    0.39</time>
   <time name="diis">    1.31    1.32</time>
   <time name="orth">    0.01    0.01</time>
   <time name="total">    3.43    3.44</time>
   <energy>
    <i name="e_fr_energy">    -24.01228516 </i>
    <i name="e_wo_entrp">    -24.02388793 </i>
    <i name="e_0_energy">    -24.01615275 </i>
   </energy>
  </scstep>
  <scstep>
   <time name="diag">    0.37    0.37</time>
   <time name="diis">    1.29    1.30</time>
   <time name="orth">    0.01    0.01</time>
   <time name="total">    3.43    3.44</time>
   <energy>
    <i name="e_fr_energy">    -24.01225545 </i>
    <i name="e_wo_entrp">    -24.02385848 </i>
    <i name="e_0_energy">    -24.01612312 </i>
   </energy>
  </scstep>
  <scstep>
   <time name="diag">    0.39    0.39</time>
   <time name="diis">    1.26    1.26</time>
   <time name="orth">    0.01    0.01</time>
   <time name="total">    3.42    3.43</time>
   <energy>
    <i name="e_fr_energy">    -24.01215992 </i>
    <i name="e_wo_entrp">    -24.02376293 </i>
    <i name="e_0_energy">    -24.01602759 </i>
   </energy>
  </scstep>
  <scstep>
   <time name="diag">    0.40    0.40</time>
   <time name="diis">    1.28    1.29</time>
   <time name="orth">    0.01    0.01</time>
   <time name="total">    3.46    3.47</time>
   <energy>
    <i name="e_fr_energy">    -24.01211069 </i>
    <i name="e_wo_entrp">    -24.02371329 </i>
    <i name="e_0_energy">    -24.01597823 </i>
   </energy>
  </scstep>
  <scstep>
   <time name="diag">    0.42    0.42</time>
   <time name="diis">    1.33    1.33</time>
   <time name="orth">    0.01    0.01</time>
   <time name="total">    3.52    3.53</time>
   <energy>
    <i name="e_fr_energy">    -24.01210497 </i>
    <i name="e_wo_entrp">    -24.02370738 </i>
    <i name="e_0_energy">    -24.01597244 </i>
   </energy>
  </scstep>
  <scstep>
   <time name="diag">    0.42    0.42</time>
   <time name="diis">    1.30    1.31</time>
   <time name="orth">    0.01    0.01</time>
   <time name="total">    3.56    3.57</time>
   <energy>
    <i name="e_fr_energy">    -24.01210614 </i>
    <i name="e_wo_entrp">    -24.02370850 </i>
    <i name="e_0_energy">    -24.01597360 </i>
   </energy>
  </scstep>
  <scstep>
   <time name="diag">    0.42    0.42</time>
   <time name="diis">    1.01    1.01</time>
   <time name="orth">    0.01    0.01</time>
   <time name="total">    3.23    3.24</time>
   <energy>
    <i name="e_fr_energy">    -24.01210770 </i>
    <i name="e_wo_entrp">    -24.02371012 </i>
    <i name="e_0_energy">    -24.01597517 </i>
   </energy>
  </scstep>
  <scstep>
   <time name="diag">    0.39    0.39</time>
   <time name="diis">    1.09    1.09</time>
   <time name="orth">    0.01    0.01</time>
   <time name="total">    3.01    3.02</time>
   <energy>
    <i name="alphaZ">      0.25715048 </i>
    <i name="ewald">    123.02851842 </i>
    <i name="hartreedc">   -279.23023137 </i>
    <i name="XCdc">     24.59503092 </i>
    <i name="pawpsdc">    437.92268275 </i>
    <i name="pawaedc">   -438.70276660 </i>
    <i name="eentropy">      0.01160236 </i>
    <i name="bandstr">    -88.93585004 </i>
    <i name="atom">    197.04175453 </i>
    <i name="e_fr_energy">    -24.01210856 </i>
    <i name="e_wo_entrp">    -24.02371092 </i>
    <i name="e_0_energy">    -24.01597602 </i>
   </energy>
  </scstep>
  <structure>
   <crystal>
    <varray name="basis" >
     <v>       9.76090106       0.00000000       0.00000000 </v>
     <v>      -0.06857264       9.70701924       0.00000000 </v>
     <v>       0.11690783       0.03067245       9.94264809 </v>
    </varray>
    <i name="volume">    942.05849262 </i>
    <varray name="rec_basis" >
     <v>       0.10244956       0.00072373      -0.00120686 </v>
     <v>       0.00000000       0.10301824      -0.00031780 </v>
     <v>       0.00000000      -0.00000000       0.10057683 </v>
    </varray>
   </crystal>
   <varray name="positions" >
    <v>       0.54172400       0.41218645       0.35858044 </v>
    <v>       0.39353947       0.47651897       0.43254143 </v>
    <v>       0.56040224       0.57086840       0.44455045 </v>
    <v>       0.52451293       0.41265319       0.54373950 </v>
    <v>       0.50260632       0.46706660       0.44541413 </v>
   </varray>
  </structure>
  <varray name="forces" >
   <v>       0.22640805      -0.68586424      -0.39976671 </v>
   <v>       0.51810609       0.30424809       0.18379163 </v>
   <v>      -1.26796364      -0.87335993       0.02384031 </v>
   <v>      -0.14264609       0.46305780      -1.90518925 </v>
   <v>       0.63802934       1.55417909       0.39286536 </v>
  </varray>
  <varray name="stress" >
   <v>      -1.25260352      -2.09046918      -0.74936954 </v>
   <v>      -2.09046918      -1.40310398       1.17125526 </v>
   <v>      -0.74936953       1.17125526      -2.59445582 </v>
  </varray>
  <energy>
   <i name="e_fr_energy">    -24.01210856 </i>
   <i name="e_wo_entrp">    -24.01597602 </i>
   <i name="e_0_energy">      0.01160236 </i>
   <i name="kinetic">      0.06592010 </i>
   <i name="lattice kinetic">      0.00000000 </i>
   <i name="nosepot">      0.00208275 </i>
   <i name="nosekinetic">      0.00381013 </i>
   <i name="total">    -23.94029558 </i>
  </energy>
  <dos>
   <i name="efermi">     -8.68396299 </i>
   <total>
    <array>
     <dimension dim="1">gridpoints</dimension>
     <dimension dim="2">spin</dimension>
     <field>energy</field>
     <field>total</field>
     <field>integrated</field>
     <set>
      <set comment="spin 1">
       <r>   -18.7979     0.0000     0.0000 </r>
       <r>   -18.7262     0.0000     0.0000 </r>
       <r>   -18.6544     0.0000     0.0000 </r>
       <r>   -18.5827     0.0000     0.0000 </r>
       <r>   -18.5109     0.0000     0.0000 </r>
       <r>   -18.4392    -0.0000    -0.0000 </r>
       <r>   -18.3674    -0.0000    -0.0000 </r>
       <r>   -18.2957    -0.0000    -0.0000 </r>
       <r>   -18.2240    -0.0000    -0.0000 </r>
       <r>   -18.1522    -0.0000    -0.0000 </r>
       <r>   -18.0805    -0.0000    -0.0000 </r>
       <r>   -18.0087    -0.0000    -0.0000 </r>
       <r>   -17.9370    -0.0000    -0.0000 </r>
       <r>   -17.8652    -0.0000    -0.0000 </r>
       <r>   -17.7935    -0.0000    -0.0000 </r>
       <r>   -17.7217    -0.0000    -0.0000 </r>
       <r>   -17.6500    -0.0000    -0.0000 </r>
       <r>   -17.5783    -0.0000    -0.0000 </r>
       <r>   -17.5065    -0.0001    -0.0000 </r>
       <r>   -17.4348    -0.0008    -0.0001 </r>
       <r>   -17.3630    -0.0058    -0.0005 </r>
       <r>   -17.2913    -0.0307    -0.0027 </r>
       <r>   -17.2195    -0.1173    -0.0111 </r>
       <r>   -17.1478    -0.3038    -0.0329 </r>
       <r>   -17.0760    -0.4365    -0.0642 </r>
       <r>   -17.0043     0.1105    -0.0563 </r>
       <r>   -16.9326     2.1723     0.0996 </r>
       <r>   -16.8608     5.5201     0.4956 </r>
       <r>   -16.7891     8.0701     1.0746 </r>
       <r>   -16.7173     7.6627     1.6244 </r>
       <r>   -16.6456     4.6658     1.9591 </r>
       <r>   -16.5738     1.5047     2.0671 </r>
       <r>   -16.5021    -0.1380     2.0572 </r>
       <r>   -16.4303    -0.4336     2.0260 </r>
       <r>   -16.3586    -0.2507     2.0081 </r>
       <r>   -16.2868    -0.0872     2.0018 </r>
       <r>   -16.2151    -0.0210     2.0003 </r>
       <r>   -16.1434    -0.0037     2.0000 </r>
       <r>   -16.0716    -0.0005     2.0000 </r>
       <r>   -15.9999    -0.0000     2.0000 </r>
       <r>   -15.9281    -0.0000     2.0000 </r>
       <r>   -15.8564    -0.0000     2.0000 </r>
       <r>   -15.7846    -0.0000     2.0000 </r>
       <r>   -15.7129    -0.0000     2.0000 </r>
       <r>   -15.6411    -0.0000     2.0000 </r>
       <r>   -15.5694    -0.0000     2.0000 </r>
       <r>   -15.4977     0.0000     2.0000 </r>
       <r>   -15.4259     0.0000     2.0000 </r>
       <r>   -15.3542     0.0000     2.0000 </r>
       <r>   -15.2824     0.0000     2.0000 </r>
       <r>   -15.2107     0.0000     2.0000 </r>
       <r>   -15.1389     0.0000     2.0000 </r>
       <r>   -15.0672     0.0000     2.0000 </r>
       <r>   -14.9954     0.0000     2.0000 </r>
       <r>   -14.9237     0.0000     2.0000 </r>
       <r>   -14.8520     0.0000     2.0000 </r>
       <r>   -14.7802     0.0000     2.0000 </r>
       <r>   -14.7085     0.0000     2.0000 </r>
       <r>   -14.6367     0.0000     2.0000 </r>
       <r>   -14.5650     0.0000     2.0000 </r>
       <r>   -14.4932     0.0000     2.0000 </r>
       <r>   -14.4215     0.0000     2.0000 </r>
       <r>   -14.3497     0.0000     2.0000 </r>
       <r>   -14.2780     0.0000     2.0000 </r>
       <r>   -14.2063     0.0000     2.0000 </r>
       <r>   -14.1345     0.0000     2.0000 </r>
       <r>   -14.0628     0.0000     2.0000 </r>
       <r>   -13.9910     0.0000     2.0000 </r>
       <r>   -13.9193     0.0000     2.0000 </r>
       <r>   -13.8475     0.0000     2.0000 </r>
       <r>   -13.7758     0.0000     2.0000 </r>
       <r>   -13.7040     0.0000     2.0000 </r>
       <r>   -13.6323     0.0000     2.0000 </r>
       <r>   -13.5605     0.0000     2.0000 </r>
       <r>   -13.4888     0.0000     2.0000 </r>
       <r>   -13.4171     0.0000     2.0000 </r>
[...]
       <r>     0.2736    -0.5669     9.9423 </r>
       <r>     0.3461    -0.8741     9.8789 </r>
       <r>     0.4186    -0.2563     9.8603 </r>
       <r>     0.4911     2.9751    10.0760 </r>
       <r>     0.5636     9.6735    10.7773 </r>
       <r>     0.6361    17.6515    12.0570 </r>
       <r>     0.7086    21.9944    13.6516 </r>
       <r>     0.7811    19.2889    15.0500 </r>
       <r>     0.8536    11.4438    15.8796 </r>
       <r>     0.9261     3.8015    16.1552 </r>
       <r>     0.9986    -0.2020    16.1406 </r>
       <r>     1.0711    -1.0173    16.0668 </r>
       <r>     1.1436    -0.6245    16.0215 </r>
       <r>     1.2161    -0.2278    16.0050 </r>
       <r>     1.2886    -0.0573    16.0009 </r>
       <r>     1.3611    -0.0104    16.0001 </r>
       <r>     1.4336    -0.0014    16.0000 </r>
       <r>     1.5061    -0.0001    16.0000 </r>
       <r>     1.5786    -0.0000    16.0000 </r>
       <r>     1.6511    -0.0000    16.0000 </r>
       <r>     1.7236    -0.0000    16.0000 </r>
       <r>     1.7961    -0.0000    16.0000 </r>
       <r>     1.8686    -0.0000    16.0000 </r>
       <r>     1.9411    -0.0000    16.0000 </r>
       <r>     2.0136    -0.0000    16.0000 </r>
       <r>     2.0861     0.0000    16.0000 </r>
       <r>     2.1586     0.0000    16.0000 </r>
       <r>     2.2311     0.0000    16.0000 </r>
       <r>     2.3036     0.0000    16.0000 </r>
       <r>     2.3761     0.0000    16.0000 </r>
       <r>     2.4486     0.0000    16.0000 </r>
       <r>     2.5211     0.0000    16.0000 </r>
       <r>     2.5936     0.0000    16.0000 </r>
       <r>     2.6661     0.0000    16.0000 </r>
       <r>     2.7386     0.0000    16.0000 </r>
      </set>
     </set>
    </array>
   </total>
  </dos>
  <time name="totalsc">   79.98   80.87</time>
  <eigenvalues>
   <array>
    <dimension dim="1">band</dimension>
    <dimension dim="2">kpoint</dimension>
    <dimension dim="3">spin</dimension>
    <field>eigene</field>
    <field>occ</field>
    <set>
     <set comment="spin 1">
      <set comment="kpoint 1">
       <r>  -16.8820    1.0000 </r>
       <r>   -9.5081    1.0000 </r>
       <r>   -9.2967    1.0001 </r>
       <r>   -8.8593    1.0000 </r>
       <r>   -0.2990    0.0000 </r>
       <r>    0.5968    0.0000 </r>
       <r>    0.7093    0.0000 </r>
       <r>    0.7362    0.0000 </r>
      </set>
      <set comment="kpoint 2">
       <r>  -16.8819    1.0000 </r>
       <r>   -9.5082    1.0000 </r>
       <r>   -9.2964    1.0001 </r>
       <r>   -8.8592    0.9999 </r>
       <r>   -0.2979    0.0000 </r>
       <r>    0.5868    0.0000 </r>
       <r>    0.7000    0.0000 </r>
       <r>    0.7426    0.0000 </r>
      </set>
      <set comment="kpoint 3">
       <r>  -16.8820    1.0000 </r>
       <r>   -9.5081    1.0000 </r>
       <r>   -9.2968    1.0001 </r>
       <r>   -8.8593    1.0000 </r>
       <r>   -0.2994    0.0000 </r>
       <r>    0.5992    0.0000 </r>
       <r>    0.6928    0.0000 </r>
       <r>    0.7441    0.0000 </r>
      </set>
      <set comment="kpoint 4">
       <r>  -16.8820    1.0000 </r>
       <r>   -9.5082    1.0000 </r>
       <r>   -9.2968    1.0001 </r>
       <r>   -8.8591    0.9998 </r>
       <r>   -0.2959    0.0000 </r>
       <r>    0.6051    0.0000 </r>
       <r>    0.6923    0.0000 </r>
       <r>    0.7173    0.0000 </r>
      </set>
     </set>
    </set>
   </array>
  </eigenvalues>
  <separator name="orbital magnetization" >
   <v name="MAGDIPOLOUT">      0.00000000      0.00000000      0.00000000</v>
  </separator>
  <dos>
   <i name="efermi">     -8.69092567 </i>
   <total>
    <array>
     <dimension dim="1">gridpoints</dimension>
     <dimension dim="2">spin</dimension>
     <field>energy</field>
     <field>total</field>
     <field>integrated</field>
     <set>
      <set comment="spin 1">
       <r>   -18.8820     0.0000     0.0000 </r>
       <r>   -18.8100     0.0000     0.0000 </r>
       <r>   -18.7379     0.0000     0.0000 </r>
       <r>   -18.6658     0.0000     0.0000 </r>
       <r>   -18.5937     0.0000     0.0000 </r>
       <r>   -18.5216    -0.0000    -0.0000 </r>
       <r>   -18.4495    -0.0000    -0.0000 </r>
       <r>   -18.3774    -0.0000    -0.0000 </r>
       <r>   -18.3054    -0.0000    -0.0000 </r>
       <r>   -18.2333    -0.0000    -0.0000 </r>
       <r>   -18.1612    -0.0000    -0.0000 </r>
       <r>   -18.0891    -0.0000    -0.0000 </r>
       <r>   -18.0170    -0.0000    -0.0000 </r>
       <r>   -17.9449    -0.0000    -0.0000 </r>
       <r>   -17.8728    -0.0000    -0.0000 </r>
       <r>   -17.8007    -0.0000    -0.0000 </r>
       <r>   -17.7287    -0.0000    -0.0000 </r>
       <r>   -17.6566    -0.0000    -0.0000 </r>
       <r>   -17.5845    -0.0001    -0.0000 </r>
       <r>   -17.5124    -0.0010    -0.0001 </r>
       <r>   -17.4403    -0.0068    -0.0006 </r>
       <r>   -17.3682    -0.0355    -0.0031 </r>
       <r>   -17.2961    -0.1319    -0.0126 </r>
       <r>   -17.2240    -0.3269    -0.0362 </r>
       <r>   -17.1520    -0.4254    -0.0669 </r>
       <r>   -17.0799     0.2619    -0.0480 </r>
       <r>   -17.0078     2.5357     0.1348 </r>
       <r>   -16.9357     5.9417     0.5631 </r>
       <r>   -16.8636     8.2076     1.1548 </r>
       <r>   -16.7915     7.3634     1.6856 </r>
       <r>   -16.7194     4.1740     1.9865 </r>
       <r>   -16.6474     1.1592     2.0700 </r>
       <r>   -16.5753    -0.2466     2.0523 </r>
       <r>   -16.5032    -0.4174     2.0222 </r>
       <r>   -16.4311    -0.2180     2.0065 </r>
       <r>   -16.3590    -0.0707     2.0014 </r>
       <r>   -16.2869    -0.0160     2.0002 </r>
       <r>   -16.2148    -0.0026     2.0000 </r>
       <r>   -16.1427    -0.0003     2.0000 </r>
       <r>   -16.0707    -0.0000     2.0000 </r>
       <r>   -15.9986    -0.0000     2.0000 </r>
       <r>   -15.9265    -0.0000     2.0000 </r>
       <r>   -15.8544    -0.0000     2.0000 </r>
       <r>   -15.7823    -0.0000     2.0000 </r>
       <r>   -15.7102    -0.0000     2.0000 </r>
       <r>   -15.6381    -0.0000     2.0000 </r>
       <r>   -15.5660     0.0000     2.0000 </r>
       <r>   -15.4940     0.0000     2.0000 </r>
       <r>   -15.4219     0.0000     2.0000 </r>
       <r>   -15.3498     0.0000     2.0000 </r>
       <r>   -15.2777     0.0000     2.0000 </r>
       <r>   -15.2056     0.0000     2.0000 </r>
       <r>   -15.1335     0.0000     2.0000 </r>
       <r>   -15.0614     0.0000     2.0000 </r>
       <r>   -14.9893     0.0000     2.0000 </r>
       <r>   -14.9173     0.0000     2.0000 </r>
       <r>   -14.8452     0.0000     2.0000 </r>
       <r>   -14.7731     0.0000     2.0000 </r>
       <r>   -14.7010     0.0000     2.0000 </r>
       <r>   -14.6289     0.0000     2.0000 </r>
       <r>   -14.5568     0.0000     2.0000 </r>
       <r>   -14.4847     0.0000     2.0000 </r>
       <r>   -14.4127     0.0000     2.0000 </r>
       <r>   -14.3406     0.0000     2.0000 </r>
       <r>   -14.2685     0.0000     2.0000 </r>
       <r>   -14.1964     0.0000     2.0000 </r>
       <r>   -14.1243     0.0000     2.0000 </r>
       <r>   -14.0522     0.0000     2.0000 </r>
       <r>   -13.9801     0.0000     2.0000 </r>
       <r>   -13.9080     0.0000     2.0000 </r>
       <r>   -13.8360     0.0000     2.0000 </r>
       <r>   -13.7639     0.0000     2.0000 </r>
       <r>   -13.6918     0.0000     2.0000 </r>
       <r>   -13.6197     0.0000     2.0000 </r>
       <r>   -13.5476     0.0000     2.0000 </r>
       <r>   -13.4755     0.0000     2.0000 </r>
       <r>   -13.4034     0.0000     2.0000 </r>
       <r>   -13.3313     0.0000     2.0000 </r>
       <r>   -13.2593     0.0000     2.0000 </r>
       <r>   -13.1872     0.0000     2.0000 </r>
       <r>   -13.1151     0.0000     2.0000 </r>
       <r>   -13.0430     0.0000     2.0000 </r>
       <r>   -12.9709     0.0000     2.0000 </r>
       <r>   -12.8988     0.0000     2.0000 </r>
       <r>   -12.8267     0.0000     2.0000 </r>
       <r>   -12.7547     0.0000     2.0000 </r>
       <r>   -12.6826     0.0000     2.0000 </r>
       <r>   -12.6105     0.0000     2.0000 </r>
       <r>   -12.5384     0.0000     2.0000 </r>
       <r>   -12.4663     0.0000     2.0000 </r>
       <r>   -12.3942     0.0000     2.0000 </r>
       <r>   -12.3221     0.0000     2.0000 </r>
       <r>   -12.2500     0.0000     2.0000 </r>
       <r>   -12.1780     0.0000     2.0000 </r>
       <r>   -12.1059     0.0000     2.0000 </r>
       <r>   -12.0338     0.0000     2.0000 </r>
       <r>   -11.9617     0.0000     2.0000 </r>
       <r>   -11.8896     0.0000     2.0000 </r>
       <r>   -11.8175     0.0000     2.0000 </r>
       <r>   -11.7454     0.0000     2.0000 </r>
       <r>   -11.6733     0.0000     2.0000 </r>
       <r>   -11.6013     0.0000     2.0000 </r>
       <r>   -11.5292     0.0000     2.0000 </r>
       <r>   -11.4571     0.0000     2.0000 </r>
       <r>   -11.3850     0.0000     2.0000 </r>
       <r>   -11.3129     0.0000     2.0000 </r>
       <r>   -11.2408     0.0000     2.0000 </r>
       <r>   -11.1687    -0.0000     2.0000 </r>
       <r>   -11.0966    -0.0000     2.0000 </r>
       <r>   -11.0246    -0.0000     2.0000 </r>
       <r>   -10.9525    -0.0000     2.0000 </r>
       <r>   -10.8804    -0.0000     2.0000 </r>
       <r>   -10.8083    -0.0000     2.0000 </r>
       <r>   -10.7362    -0.0000     2.0000 </r>
       <r>   -10.6641    -0.0000     2.0000 </r>
       <r>   -10.5920    -0.0000     2.0000 </r>
       <r>   -10.5200    -0.0000     2.0000 </r>
       <r>   -10.4479    -0.0000     2.0000 </r>
       <r>   -10.3758    -0.0000     2.0000 </r>
       <r>   -10.3037    -0.0000     2.0000 </r>
       <r>   -10.2316    -0.0001     2.0000 </r>
       <r>   -10.1595    -0.0005     2.0000 </r>
       <r>   -10.0874    -0.0040     1.9997 </r>
       <r>   -10.0153    -0.0228     1.9980 </r>
       <r>    -9.9433    -0.0941     1.9912 </r>
       <r>    -9.8712    -0.2682     1.9719 </r>
       <r>    -9.7991    -0.4625     1.9386 </r>
       <r>    -9.7270    -0.1770     1.9258 </r>
       <r>    -9.6549     1.4208     2.0282 </r>
       <r>    -9.5828     4.5067     2.3531 </r>
       <r>    -9.5107     7.8118     2.9162 </r>
       <r>    -9.4386     9.8172     3.6239 </r>
       <r>    -9.3666    10.3521     4.3702 </r>
       <r>    -9.2945     9.7337     5.0719 </r>
       <r>    -9.2224     7.5627     5.6170 </r>
       <r>    -9.1503     4.0866     5.9116 </r>
       <r>    -9.0782     1.3552     6.0093 </r>
       <r>    -9.0061     1.5205     6.1189 </r>
       <r>    -8.9340     4.4758     6.4416 </r>
       <r>    -8.8620     7.5494     6.9858 </r>
       <r>    -8.7899     7.8505     7.5517 </r>
       <r>    -8.7178     5.1799     7.9251 </r>
       <r>    -8.6457     1.8942     8.0616 </r>
       <r>    -8.5736    -0.0033     8.0614 </r>
       <r>    -8.5015    -0.4391     8.0298 </r>
       <r>    -8.4294    -0.2796     8.0096 </r>
       <r>    -8.3573    -0.1023     8.0022 </r>
       <r>    -8.2853    -0.0255     8.0004 </r>
       <r>    -8.2132    -0.0046     8.0000 </r>
       <r>    -8.1411    -0.0006     8.0000 </r>
       <r>    -8.0690    -0.0001     8.0000 </r>
       <r>    -7.9969    -0.0000     8.0000 </r>
       <r>    -7.9248    -0.0000     8.0000 </r>
       <r>    -7.8527    -0.0000     8.0000 </r>
       <r>    -7.7806    -0.0000     8.0000 </r>
       <r>    -7.7086    -0.0000     8.0000 </r>
       <r>    -7.6365    -0.0000     8.0000 </r>
       <r>    -7.5644     0.0000     8.0000 </r>
       <r>    -7.4923     0.0000     8.0000 </r>
       <r>    -7.4202     0.0000     8.0000 </r>
       <r>    -7.3481     0.0000     8.0000 </r>
       <r>    -7.2760     0.0000     8.0000 </r>
       <r>    -7.2040     0.0000     8.0000 </r>
       <r>    -7.1319     0.0000     8.0000 </r>
       <r>    -7.0598     0.0000     8.0000 </r>
       <r>    -6.9877     0.0000     8.0000 </r>
       <r>    -6.9156     0.0000     8.0000 </r>
       <r>    -6.8435     0.0000     8.0000 </r>
       <r>    -6.7714     0.0000     8.0000 </r>
       <r>    -6.6993     0.0000     8.0000 </r>
       <r>    -6.6273     0.0000     8.0000 </r>
       <r>    -6.5552     0.0000     8.0000 </r>
       <r>    -6.4831     0.0000     8.0000 </r>
       <r>    -6.4110     0.0000     8.0000 </r>
       <r>    -6.3389     0.0000     8.0000 </r>
       <r>    -6.2668     0.0000     8.0000 </r>
       <r>    -6.1947     0.0000     8.0000 </r>
       <r>    -6.1226     0.0000     8.0000 </r>
       <r>    -6.0506     0.0000     8.0000 </r>
       <r>    -5.9785     0.0000     8.0000 </r>
       <r>    -5.9064     0.0000     8.0000 </r>
       <r>    -5.8343     0.0000     8.0000 </r>
       <r>    -5.7622     0.0000     8.0000 </r>
       <r>    -5.6901     0.0000     8.0000 </r>
       <r>    -5.6180     0.0000     8.0000 </r>
       <r>    -5.5459     0.0000     8.0000 </r>
       <r>    -5.4739     0.0000     8.0000 </r>
       <r>    -5.4018     0.0000     8.0000 </r>
       <r>    -5.3297     0.0000     8.0000 </r>
       <r>    -5.2576     0.0000     8.0000 </r>
       <r>    -5.1855     0.0000     8.0000 </r>
       <r>    -5.1134     0.0000     8.0000 </r>
       <r>    -5.0413     0.0000     8.0000 </r>
       <r>    -4.9693     0.0000     8.0000 </r>
       <r>    -4.8972     0.0000     8.0000 </r>
       <r>    -4.8251     0.0000     8.0000 </r>
       <r>    -4.7530     0.0000     8.0000 </r>
       <r>    -4.6809     0.0000     8.0000 </r>
       <r>    -4.6088     0.0000     8.0000 </r>
       <r>    -4.5367     0.0000     8.0000 </r>
       <r>    -4.4646     0.0000     8.0000 </r>
       <r>    -4.3926     0.0000     8.0000 </r>
       <r>    -4.3205     0.0000     8.0000 </r>
       <r>    -4.2484     0.0000     8.0000 </r>
       <r>    -4.1763     0.0000     8.0000 </r>
       <r>    -4.1042     0.0000     8.0000 </r>
       <r>    -4.0321     0.0000     8.0000 </r>
       <r>    -3.9600     0.0000     8.0000 </r>
       <r>    -3.8879     0.0000     8.0000 </r>
       <r>    -3.8159     0.0000     8.0000 </r>
       <r>    -3.7438     0.0000     8.0000 </r>
       <r>    -3.6717     0.0000     8.0000 </r>
       <r>    -3.5996     0.0000     8.0000 </r>
       <r>    -3.5275     0.0000     8.0000 </r>
       <r>    -3.4554     0.0000     8.0000 </r>
       <r>    -3.3833     0.0000     8.0000 </r>
       <r>    -3.3113     0.0000     8.0000 </r>
       <r>    -3.2392     0.0000     8.0000 </r>
       <r>    -3.1671     0.0000     8.0000 </r>
       <r>    -3.0950     0.0000     8.0000 </r>
       <r>    -3.0229     0.0000     8.0000 </r>
       <r>    -2.9508     0.0000     8.0000 </r>
       <r>    -2.8787     0.0000     8.0000 </r>
       <r>    -2.8066     0.0000     8.0000 </r>
       <r>    -2.7346     0.0000     8.0000 </r>
       <r>    -2.6625     0.0000     8.0000 </r>
       <r>    -2.5904     0.0000     8.0000 </r>
       <r>    -2.5183     0.0000     8.0000 </r>
       <r>    -2.4462     0.0000     8.0000 </r>
       <r>    -2.3741     0.0000     8.0000 </r>
       <r>    -2.3020     0.0000     8.0000 </r>
       <r>    -2.2299     0.0000     8.0000 </r>
       <r>    -2.1579     0.0000     8.0000 </r>
       <r>    -2.0858     0.0000     8.0000 </r>
       <r>    -2.0137     0.0000     8.0000 </r>
       <r>    -1.9416    -0.0000     8.0000 </r>
       <r>    -1.8695    -0.0000     8.0000 </r>
       <r>    -1.7974    -0.0000     8.0000 </r>
       <r>    -1.7253    -0.0000     8.0000 </r>
       <r>    -1.6532    -0.0000     8.0000 </r>
       <r>    -1.5812    -0.0000     8.0000 </r>
       <r>    -1.5091    -0.0000     8.0000 </r>
       <r>    -1.4370    -0.0000     8.0000 </r>
       <r>    -1.3649    -0.0000     8.0000 </r>
       <r>    -1.2928    -0.0000     8.0000 </r>
       <r>    -1.2207    -0.0000     8.0000 </r>
       <r>    -1.1486    -0.0000     8.0000 </r>
       <r>    -1.0766    -0.0000     8.0000 </r>
       <r>    -1.0045    -0.0001     8.0000 </r>
       <r>    -0.9324    -0.0009     7.9999 </r>
       <r>    -0.8603    -0.0062     7.9995 </r>
       <r>    -0.7882    -0.0328     7.9971 </r>
       <r>    -0.7161    -0.1240     7.9882 </r>
       <r>    -0.6440    -0.3151     7.9655 </r>
       <r>    -0.5719    -0.4317     7.9343 </r>
       <r>    -0.4999     0.1887     7.9480 </r>
       <r>    -0.4278     2.3700     8.1188 </r>
       <r>    -0.3557     5.7606     8.5341 </r>
       <r>    -0.2836     8.1559     9.1220 </r>
       <r>    -0.2115     7.4889     9.6619 </r>
       <r>    -0.1394     4.3650     9.9765 </r>
       <r>    -0.0673     1.2851    10.0692 </r>
       <r>     0.0048    -0.2131    10.0538 </r>
       <r>     0.0768    -0.4429    10.0219 </r>
       <r>     0.1489    -0.3159     9.9991 </r>
       <r>     0.2210    -0.3649     9.9728 </r>
       <r>     0.2931    -0.6734     9.9242 </r>
       <r>     0.3652    -0.8140     9.8656 </r>
       <r>     0.4373     0.4315     9.8967 </r>
       <r>     0.5094     4.6205    10.2298 </r>
       <r>     0.5814    11.8381    11.0831 </r>
       <r>     0.6535    19.0888    12.4592 </r>
       <r>     0.7256    21.6842    14.0223 </r>
       <r>     0.7977    17.5120    15.2847 </r>
       <r>     0.8698     9.4905    15.9689 </r>
       <r>     0.9419     2.6603    16.1606 </r>
       <r>     1.0140    -0.5083    16.1240 </r>
       <r>     1.0861    -0.9554    16.0551 </r>
       <r>     1.1581    -0.5288    16.0170 </r>
       <r>     1.2302    -0.1826    16.0038 </r>
       <r>     1.3023    -0.0442    16.0006 </r>
       <r>     1.3744    -0.0078    16.0001 </r>
       <r>     1.4465    -0.0010    16.0000 </r>
       <r>     1.5186    -0.0001    16.0000 </r>
       <r>     1.5907    -0.0000    16.0000 </r>
       <r>     1.6628    -0.0000    16.0000 </r>
       <r>     1.7348    -0.0000    16.0000 </r>
       <r>     1.8069    -0.0000    16.0000 </r>
       <r>     1.8790    -0.0000    16.0000 </r>
       <r>     1.9511    -0.0000    16.0000 </r>
       <r>     2.0232    -0.0000    16.0000 </r>
       <r>     2.0953     0.0000    16.0000 </r>
       <r>     2.1674     0.0000    16.0000 </r>
       <r>     2.2395     0.0000    16.0000 </r>
       <r>     2.3115     0.0000    16.0000 </r>
       <r>     2.3836     0.0000    16.0000 </r>
       <r>     2.4557     0.0000    16.0000 </r>
       <r>     2.5278     0.0000    16.0000 </r>
       <r>     2.5999     0.0000    16.0000 </r>
       <r>     2.6720     0.0000    16.0000 </r>
       <r>     2.7441     0.0000    16.0000 </r>
      </set>
     </set>
    </array>
   </total>
  </dos>
 </calculation>
 <structure name="finalpos" >
  <crystal>
   <varray name="basis" >
    <v>       9.76090106       0.00000000       0.00000000 </v>
    <v>      -0.06857264       9.70701924       0.00000000 </v>
    <v>       0.11690783       0.03067245       9.94264809 </v>
   </varray>
   <i name="volume">    942.05849262 </i>
   <varray name="rec_basis" >
    <v>       0.10244956       0.00072373      -0.00120686 </v>
    <v>       0.00000000       0.10301824      -0.00031780 </v>
    <v>       0.00000000      -0.00000000       0.10057683 </v>
   </varray>
  </crystal>
  <varray name="positions" >
   <v>       0.55436646       0.41195802       0.36235875 </v>
   <v>       0.39682351       0.47416872       0.43269405 </v>
   <v>       0.54238237       0.57041831       0.45747783 </v>
   <v>       0.52664570       0.41330953       0.54323401 </v>
   <v>       0.50260304       0.46726412       0.44405264 </v>
  </varray>
  <varray name="velocities" >
   <v>       0.00148537      -0.00357239      -0.00169749 </v>
   <v>       0.00418554      -0.00339869      -0.00115104 </v>
   <v>      -0.00221914       0.00204676       0.00328478 </v>
   <v>       0.00223051      -0.00042703       0.00238938 </v>
   <v>      -0.00047309       0.00044554      -0.00023525 </v>
  </varray>
 </structure>
</modeling>
