unknown system                          
           1
     9.760901    0.000000    0.000000
    -0.068573    9.707019    0.000000
     0.116908    0.030672    9.942648
   H    C 
   4   1
Direct configuration=     1
   0.53837254  0.40666918  0.36061641
   0.39406367  0.48073386  0.43820434
   0.55200065  0.56537167  0.44279530
   0.52808773  0.41658769  0.53908612
   0.50324357  0.46730510  0.44530670
Direct configuration=     2
   0.53923151  0.40886568  0.36003293
   0.39298884  0.47883399  0.43540399
   0.55721789  0.56843361  0.44388912
   0.52754494  0.41462633  0.54343911
   0.50287236  0.46718877  0.44513494
Direct configuration=     3
   0.54172400  0.41218645  0.35858044
   0.39353947  0.47651897  0.43254143
   0.56040224  0.57086840  0.44455045
   0.52451293  0.41265319  0.54373950
   0.50260632  0.46706660  0.44541413
Direct configuration=     4
   0.54498904  0.41251675  0.35607382
   0.39607347  0.47529618  0.43090151
   0.55852049  0.56961473  0.44567938
   0.52115545  0.41240133  0.53719101
   0.50255971  0.46726625  0.44621057
Direct configuration=     5
   0.54697227  0.41313264  0.35849520
   0.39142120  0.47609675  0.42724558
   0.55328700  0.56530291  0.44616953
   0.52146926  0.41030389  0.53700119
   0.50319152  0.46768194  0.44628835
Direct configuration=     6
   0.54818389  0.41249794  0.35947453
   0.39180160  0.47747212  0.42622153
   0.55015416  0.56694768  0.44683484
   0.52219279  0.40544068  0.54224691
   0.50325957  0.46788823  0.44579994
Direct configuration=     7
   0.54959024  0.41138643  0.35951412
   0.39710680  0.47798044  0.42783646
   0.54886975  0.57389864  0.44744549
   0.52247157  0.40542528  0.54190429
   0.50278451  0.46736101  0.44563988
Direct configuration=     8
   0.55346279  0.41191586  0.35894879
   0.39456063  0.47887576  0.43138481
   0.54792616  0.57517257  0.44821735
   0.52195672  0.40921651  0.53746062
   0.50279551  0.46682068  0.44569722
Direct configuration=     9
   0.55450937  0.41310559  0.35989494
   0.39169932  0.47874287  0.43345316
   0.54679626  0.57153062  0.45183936
   0.52192375  0.41485201  0.53571558
   0.50304341  0.46656672  0.44528997
Direct configuration=    10
   0.55288109  0.41553041  0.36405623
   0.39263797  0.47756741  0.43384509
   0.54460150  0.56837155  0.45419304
   0.52441520  0.41373655  0.54084463
   0.50307613  0.46681858  0.44428790
