# LAMMPS data file written by OVITO
16 atoms
2 atom types
0.0 5.5892554 xlo xhi
0.0 4.8232045 ylo yhi
0.0 8.8531028 zlo zhi
2.9179166 0.1724156 0.0382415 xy xz yz

Atoms # atomic

1 1 0.0908049 0.0194668 4.43116
2 1 5.8019314 3.2490218 6.640925
3 1 1.5469275 0.8261531 6.6446796
4 2 4.3422303 2.4250252 4.4322291
5 2 2.9183992 3.2276125 2.2205384
6 2 9.9269658e-05 0.0026448 -0.0030128
7 2 4.255342 0.8182391 2.2110455
8 2 7.132864 2.429785 4.4276138
9 2 2.8809856 0.021039 4.4255262
10 2 7.0461259 2.4157827 9.7939606e-04
11 2 3.0022342 3.2422767 6.6437655
12 2 2.7914565 0.0018416 6.5841947e-04
13 2 1.4559471 0.8085427 2.208705
14 2 5.7195173 3.2282517 2.2171872
15 2 4.2520328 2.4135466 5.7031303e-04
16 2 4.3375893 0.8282583 6.6344381
