LAMMPS (31 Mar 2017)
variable        NSTEPS          equal 3000
variable        THERMO_FREQ     equal 10
variable        DUMP_FREQ       equal 10
variable        TEMP            equal 50.000000
variable        PRES            equal 1.000000
variable        TAU_T           equal 0.100000
variable        TAU_P           equal 0.500000

units           metal
boundary        p p p
atom_style      atomic

neighbor        1.0 bin

box          tilt large
read_data       conf.lmp
  triclinic box = (0 0 0) to (5.58926 4.8232 8.8531) with tilt (2.91792 0.172416 0.0382415)
WARNING: Triclinic box skew is large (../domain.cpp:196)
  1 by 1 by 1 MPI processor grid
  reading atoms ...
  16 atoms
change_box   all triclinic
WARNING: Triclinic box skew is large (../domain.cpp:196)
  triclinic box = (0 0 0) to (5.58926 4.8232 8.8531) with tilt (2.91792 0.172416 0.0382415)
mass            1 64.000000
mass            2 65.000000
pair_style      deepmd ../graph.002.pb ../graph.003.pb ../graph.000.pb ../graph.001.pb  ${THERMO_FREQ} model_devi.out
pair_style      deepmd ../graph.002.pb ../graph.003.pb ../graph.000.pb ../graph.001.pb  10 model_devi.out
pair_coeff

thermo_style    custom step temp pe ke etotal press vol lx ly lz xy xz yz
thermo          ${THERMO_FREQ}
thermo          10
dump            1 all custom ${DUMP_FREQ} traj/*.lammpstrj id type x y z
dump            1 all custom 10 traj/*.lammpstrj id type x y z

velocity        all create ${TEMP} 466317
velocity        all create 50 466317
fix             1 all npt temp ${TEMP} ${TEMP} ${TAU_T} iso ${PRES} ${PRES} ${TAU_P}
fix             1 all npt temp 50 ${TEMP} ${TAU_T} iso ${PRES} ${PRES} ${TAU_P}
fix             1 all npt temp 50 50 ${TAU_T} iso ${PRES} ${PRES} ${TAU_P}
fix             1 all npt temp 50 50 0.1 iso ${PRES} ${PRES} ${TAU_P}
fix             1 all npt temp 50 50 0.1 iso 1 ${PRES} ${TAU_P}
fix             1 all npt temp 50 50 0.1 iso 1 1 ${TAU_P}
fix             1 all npt temp 50 50 0.1 iso 1 1 0.5

timestep        0.002000
run             ${NSTEPS}
run             3000
Neighbor list info ...
  update every 1 steps, delay 10 steps, check yes
  max neighbors/atom: 2000, page size: 100000
  master list distance cutoff = 9
  ghost atom cutoff = 9
  binsize = 4.5, bins = 2 2 2
  1 neighbor lists, perpetual/occasional/extra = 1 0 0
  (1) pair deepmd, perpetual
      attributes: , newton on
      pair build: full/bin/atomonly
      stencil: full/bin/3d
      bin: standard
Per MPI rank memory allocation (min/avg/max) = 4.059 | 4.059 | 4.059 Mbytes
Step Temp PotEng KinEng TotEng Press Volume Lx Ly Lz Xy Xz Yz 
       0           50    -27.59769  0.096945109   -27.500745   -36269.866    238.66302    5.5892554    4.8232045    8.8531028    2.9179166    0.1724156    0.0382415 
      10    58.850284    -27.62807   0.11410494   -27.513965    41544.909    217.27498    5.4170413    4.6745937    8.5803242    2.8280108   0.16710319  0.037063217 
      20    48.554188   -27.644878   0.09414182   -27.550736   -30609.443    237.41697    5.5795113    4.8147959    8.8376686    2.9128296   0.17211502  0.038174831 
      30    41.871341   -27.670757  0.081184434   -27.589573    25342.398    222.27687    5.4582949    4.7101932    8.6456679    2.8495476   0.16837577  0.037345473 
      40    28.366899   -27.677609  0.055000642   -27.622609   -16246.544     233.9744    5.5524121    4.7914109    8.7947448    2.8986823   0.17127907  0.037989419 
      50    29.109389   -27.694496  0.056440257   -27.638055     5846.889    227.97133     5.504514    4.7500776    8.7188767    2.8736767   0.16980153  0.037661702 
      60    38.637412   -27.709588  0.074914162   -27.634674   -287.22931    229.52348    5.5169783    4.7608336    8.7386195    2.8801838   0.17018602  0.037746983 
      70    56.811434   -27.733943   0.11015181   -27.623791   -7755.0913     231.1434    5.5299272    4.7720077    8.7591298    2.8869438   0.17058546  0.037835578 
      80    80.703162   -27.752421   0.15647554   -27.595945    11749.952    225.31108    5.4830191    4.7315287    8.6848298    2.8624551   0.16913846  0.037514635 
      90    74.078655   -27.720948   0.14363126   -27.577317   -14588.128    232.24601    5.5387062    4.7795835    8.7730354     2.891527   0.17085627  0.037895644 
     100    47.468582   -27.660521  0.092036936   -27.568484    17507.424    223.66689    5.4696492    4.7199913    8.6636525    2.8554752   0.16872603  0.037423158 
     110    27.580492   -27.616052  0.053475877   -27.562576   -16992.959    233.24971    5.5466737    4.7864589    8.7856554    2.8956865   0.17110205  0.037950157 
     120    38.514496   -27.633997   0.07467584   -27.559321    17964.548    223.79549    5.4706973    4.7208957    8.6653127    2.8560224   0.16875836   0.03743033 
     130    67.104082   -27.684187   0.13010825   -27.554079   -15468.442    232.82217    5.5432826    4.7835326    8.7802842    2.8939161   0.17099745  0.037926956 
     140    85.822178   -27.717413   0.16640081   -27.551012    14773.947    224.75685    5.4785196    4.7276459    8.6777029    2.8601061   0.16899966   0.03748385 
     150    75.493734   -27.704999   0.14637497   -27.558624   -11554.991    232.29059    5.5390606    4.7798893    8.7735967     2.891712   0.17086721  0.037898069 
     160     59.41281   -27.683172   0.11519563   -27.567976    8585.7282    227.05588    5.4971361    4.7437109    8.7071905     2.869825   0.16957393  0.037611223 
     170    48.242699   -27.670022  0.093537875   -27.576484    -5771.377    231.00901    5.5288552    4.7710826    8.7574319    2.8863842   0.17055239  0.037828244 
     180    48.110332   -27.676579  0.093281227   -27.583298    1889.4287    228.63564    5.5098556    4.7546871    8.7273375    2.8764653    0.1699663  0.037698249 
     190     58.92558   -27.697682   0.11425093   -27.583431    729.57395      228.512    5.5088623    4.7538299    8.7257641    2.8759467   0.16993566  0.037691453 
     200    66.160782   -27.715985   0.12827928   -27.587706   -3945.5521    229.33448    5.5154636    4.7595265    8.7362203     2.879393   0.17013929  0.037736619 
     210    61.138447   -27.707818   0.11854147   -27.589277    6402.3618    226.28549    5.4909119    4.7383398    8.6973316    2.8665756   0.16938193  0.037568637 
     220    47.113616   -27.682409  0.091348693    -27.59106   -8095.5364    230.18615    5.5222827     4.765411    8.7470214     2.882953   0.17034965  0.037783275 
     230    47.290555   -27.683602   0.09169176    -27.59191    9555.2454    225.49388    5.4845015     4.732808    8.6871779     2.863229   0.16918419  0.037524777 
     240    59.702109   -27.708512   0.11575655   -27.592755   -9710.7659    230.80589    5.5272343    4.7696838    8.7548644     2.885538   0.17050239  0.037817153 
     250    67.378744   -27.727482   0.13064079   -27.596841    10294.426    225.66857    5.4859174    4.7340298    8.6894206    2.8639682   0.16922786  0.037534465 
     260    58.001789    -27.71694   0.11245979    -27.60448    -9218.607    231.40926    5.5320465    4.7738365    8.7624867    2.8880502   0.17065084  0.037850078 
     270    43.164871    -27.69515  0.083692461   -27.611457    8398.3617    227.04947    5.4970844    4.7436662    8.7071085     2.869798   0.16957234  0.037610869 
     280    33.786377   -27.682749  0.065508479    -27.61724    -7012.046    231.51506    5.5328894    4.7745639    8.7638219    2.8884903   0.17067684  0.037855846 
     290    38.304135   -27.695146   0.07426797   -27.620878    5023.4049    228.11688    5.5056853    4.7510883    8.7207319    2.8742881   0.16983765  0.037669716 
     300    52.045318   -27.722294   0.10091078   -27.621383   -3444.4256    230.04534    5.5211565    4.7644391    8.7452375     2.882365   0.17031491   0.03777557 
     310    62.216734   -27.745475   0.12063216   -27.624842    1237.7065    228.23539    5.5066386     4.751911    8.7222419    2.8747858   0.16986706  0.037676238 
     320    61.329724   -27.745523   0.11891233   -27.626611    558.11743    227.93853    5.5042501    4.7498498    8.7184586    2.8735389   0.16979338  0.037659896 
     330    45.609379   -27.720396  0.088432125   -27.631964   -2288.2763    228.41917    5.5081162     4.753186    8.7245823    2.8755572   0.16991264  0.037686348 
     340    30.542454   -27.693594  0.059218831   -27.634375    3800.1984    226.68666    5.4941549    4.7411382    8.7024683    2.8682686   0.16948197  0.037590825 
     350    31.292007    -27.69554  0.060672141   -27.634868   -4958.0675    229.03623    5.5130716    4.7574623    8.7324315    2.8781442   0.17006551  0.037720253 
     360    48.764164   -27.728641  0.094548943   -27.634092    5938.0649    226.14688    5.4897906    4.7373721    8.6955555    2.8659902   0.16934734  0.037560965 
     370     63.28259   -27.755595   0.12269875   -27.632896   -6017.8921    229.63604    5.5178801    4.7616117    8.7400479    2.8806545   0.17021384  0.037753153 
     380    58.601237   -27.748414   0.11362206   -27.634792    6409.3924    226.78934    5.4949843     4.741854    8.7037821    2.8687016   0.16950755    0.0375965 
     390    39.272429   -27.714814  0.076145397   -27.638668   -6006.5915     230.7862    5.5270771    4.7695482    8.7546154    2.8854559   0.17049754  0.037816078 
     400    27.996937   -27.695419  0.054283322   -27.641136    5131.8655    228.08529    5.5054311     4.750869    8.7203293    2.8741555   0.16982982  0.037667977 
     410    34.465693   -27.708979  0.066825607   -27.642153   -4589.8989    230.64043    5.5259132    4.7685438    8.7527718    2.8848483   0.17046164  0.037808115 
     420     48.77503   -27.736906  0.094570012   -27.642336    3336.0021    228.05636    5.5051983    4.7506681    8.7199606    2.8740339   0.16982263  0.037666384 
     430    53.493749   -27.743155   0.10371915   -27.639436    -2157.683    229.09557    5.5135478    4.7578732    8.7331857    2.8783928   0.17008019  0.037723511 
     440     44.77149   -27.724834   0.08680754   -27.638026    855.11065    227.91954    5.5040972    4.7497179    8.7182165    2.8734591   0.16978867  0.037658851 
     450    38.258858   -27.708538  0.074180182   -27.634357    321.41639    227.77901    5.5029658    4.7487415    8.7164243    2.8728684   0.16975376  0.037651109 
     460    43.636138    -27.71428  0.084606203   -27.629673   -1462.0008    228.06594    5.5052754    4.7507346    8.7200827    2.8740742   0.16982501  0.037666912 
     470    55.473718   -27.729262   0.10755811   -27.621704    2680.0112    226.99364    5.4966338    4.7432774    8.7063948    2.8695627   0.16955844  0.037607786 
     480    61.586593   -27.731507   0.11941038   -27.612096   -3302.5232    228.95872    5.5124497    4.7569256    8.7314464    2.8778196   0.17004632  0.037715998 
     490    61.032489   -27.723501   0.11833603   -27.605165    3934.8933    227.50211     5.500735    4.7468165    8.7128908    2.8717038   0.16968495  0.037635846 
     500    55.445964   -27.707109    0.1075043   -27.599605   -4278.0155    230.24349    5.5227412    4.7658066    8.7477477    2.8831923   0.17036379  0.037786412 
     510    44.595287   -27.682534    0.0864659   -27.596068    4291.5455     228.3296    5.5073961    4.7525647    8.7234418    2.8751813   0.16989043  0.037681421 
     520    36.773358    -27.66386  0.071299944    -27.59256   -4342.8117    230.90381    5.5280158    4.7703583    8.7561023     2.885946    0.1705265  0.037822501 
     530    45.654361   -27.676187  0.088519341   -27.587668    3575.2447    228.54333     5.509114    4.7540471    8.7261628    2.8760781   0.16994342  0.037693175 
     540    68.870869    -27.71255   0.13353388   -27.579016   -3271.1706    229.84449    5.5195492    4.7630521    8.7426916    2.8815259   0.17026532  0.037764572 
     550    83.354563    -27.73434   0.16161634   -27.572723    2603.6184    227.63096    5.5017732    4.7477124    8.7145353    2.8722458   0.16971698   0.03764295 
     560    73.238423   -27.714374   0.14200214   -27.572372   -1511.0966    228.44309    5.5083085     4.753352    8.7248869    2.8756576   0.16991857  0.037687664 
     570    52.219103   -27.678103   0.10124773   -27.576855    724.64763    227.86571    5.5036639    4.7493439    8.7175301    2.8732328    0.1697753  0.037655886 
     580    42.092195   -27.662861  0.081612648   -27.581248    103.27381    228.17242    5.5061321    4.7514739    8.7214396    2.8745214   0.16985144  0.037672773 
     590    50.229807   -27.682117  0.097390682   -27.584726   -1088.1796    228.59639    5.5095403     4.754415    8.7268381    2.8763007   0.16995657  0.037696092 
     600    64.436325   -27.715627   0.12493573   -27.590691     1890.362    227.91636    5.5040716    4.7496958    8.7181759    2.8734457   0.16978788  0.037658675 
     610     62.72705   -27.723007   0.12162161   -27.601385   -2379.6863    229.39866    5.5159781    4.7599704    8.7370352    2.8796616   0.17015517  0.037740139 
     620    43.871517   -27.700024   0.08506258   -27.614961    2802.3125     228.4264    5.5081743    4.7532362    8.7246744    2.8755876   0.16991444  0.037686746 
     630    34.256723   -27.690648  0.066420435   -27.624227   -3472.5849    230.33855    5.5235012    4.7664624    8.7489514    2.8835891   0.17038723  0.037791612 
     640    45.237821   -27.719609  0.087711709   -27.631897    3261.7433    228.26495    5.5068763    4.7521161    8.7226183    2.8749099   0.16987439  0.037677865 
     650    58.302908   -27.753278   0.11304363   -27.640235   -3249.4838    229.59199    5.5175272    4.7613072    8.7394889    2.8804703   0.17020295  0.037750738 
     660     56.78726    -27.75892   0.11010494   -27.648815    3088.5608    227.49055    5.5006418     4.746736    8.7127432    2.8716551   0.16968207  0.037635208 
     670    44.285912   -27.740635  0.085866051   -27.654769   -2622.4309    228.77456    5.5109714    4.7556499    8.7291048    2.8770478   0.17000072  0.037705883 
     680    33.629617   -27.722896  0.065204538   -27.657692    2072.1803    227.30453     5.499142    4.7454419    8.7103677    2.8708722   0.16963581  0.037624947 
     690    30.089076   -27.716173  0.058339775   -27.657833   -1359.8273    228.09827    5.5055356    4.7509591    8.7204948      2.87421   0.16983304  0.037668692 
     700     33.09468   -27.720537  0.064167347   -27.656369    748.56986    227.54224    5.5010583    4.7470955     8.713403    2.8718726   0.16969492  0.037638059 
     710     40.53696   -27.732158    0.0785972    -27.65356    110.53876    227.91538    5.5040637     4.749689    8.7181634    2.8734416   0.16978763  0.037658621 
     720    48.675903   -27.743106  0.094377813   -27.648728   -758.96684    228.52745    5.5089864     4.753937    8.7259607    2.8760115   0.16993949  0.037692302 
     730    49.455452   -27.740692  0.095889283   -27.644803    1417.7981    228.42535    5.5081659    4.7532289     8.724661    2.8755832   0.16991418  0.037686688 
     740    42.122151   -27.722021   0.08167073    -27.64035   -2124.1708    229.85764    5.5196545    4.7631429    8.7428584    2.8815809   0.17026857  0.037765293 
     750    36.804703   -27.707946  0.071360718   -27.636585    2225.5653    228.89484     5.511937    4.7564832    8.7306343    2.8775519   0.17003051   0.03771249 
     760    43.863773   -27.716606  0.085047566   -27.631558   -2887.8513    230.12752    5.5218139    4.7650064    8.7462788    2.8827082   0.17033518  0.037780067 
     770    57.451659   -27.736073   0.11139315    -27.62468    2852.1106    228.10091    5.5055568    4.7509774    8.7205283     2.874221   0.16983369  0.037668837 
     780     61.76781   -27.738272   0.11976174    -27.61851   -2800.5382    229.13491    5.5138633    4.7581455    8.7336855    2.8785575   0.17008993   0.03772567 
     790    53.772061   -27.719309   0.10425877    -27.61505    2747.7875     227.2676    5.4988443    4.7451849     8.709896    2.8707167   0.16962663   0.03762291 
     800    41.566821   -27.693422  0.080593999   -27.612828   -2272.8049    228.45461    5.5084011    4.7534319    8.7250335    2.8757059   0.16992143  0.037688297 
     810     36.09528    -27.68034  0.069985217   -27.610355    1891.3611     227.3161    5.4992354    4.7455224    8.7105155    2.8709209   0.16963869  0.037625586 
     820    42.918791   -27.689634  0.083215337   -27.606419   -1282.2336     228.2693    5.5069113    4.7521463    8.7226738    2.8749282   0.16987547  0.037678104 
     830    59.469637   -27.715222   0.11530581   -27.599916     684.2625    227.93508    5.5042223    4.7498259    8.7184146    2.8735244   0.16979253  0.037659707 
     840    73.451918   -27.736437   0.14241608   -27.594021    2.2033582    228.44039    5.5082867    4.7533332    8.7248524    2.8756462    0.1699179  0.037687515 
     850    73.661202   -27.734449   0.14282187   -27.591627   -695.43491    229.05327    5.5132084    4.7575803    8.7326481    2.8782156   0.17006972  0.037721189 
     860    58.335661   -27.708009   0.11310714   -27.594902    1145.9741    228.96978    5.5125384    4.7570022    8.7315869    2.8778659   0.17004906  0.037716605 
     870    42.643887   -27.680922  0.082682325    -27.59824   -2008.4521     230.0477    5.5211754    4.7644554    8.7452674    2.8823749   0.17031549  0.037775699 
     880    40.099341   -27.678424    0.0777487   -27.600675    2157.4261    228.80528     5.511218    4.7558628    8.7294955    2.8771766   0.17000833  0.037707571 
     890    46.500381   -27.693043  0.090159691   -27.602884   -2590.2918    229.79619    5.5191625    4.7627184    8.7420792     2.881324    0.1702534  0.037761927 
     900    50.788613   -27.703998  0.098474152   -27.605523    2768.0497    228.00074    5.5047508    4.7502819    8.7192517    2.8738003   0.16980883  0.037663322 
     910    49.522433   -27.706402  0.096019153   -27.610383   -2774.0603    229.20215    5.5144026    4.7586109    8.7345397    2.8788391   0.17010657   0.03772936 
     920    47.642056   -27.710839  0.092373285   -27.618465    2674.6368    227.47559    5.5005212     4.746632    8.7125523    2.8715922   0.16967836  0.037634384 
     930    47.503799   -27.721959   0.09210522   -27.629853   -2319.2664    228.65127    5.5099812    4.7547954    8.7275364    2.8765309   0.16997017  0.037699109 
     940    49.525602    -27.73964  0.096025297   -27.643615    1998.1365    227.45419    5.5003487    4.7464832     8.712279    2.8715021   0.16967303  0.037633203 
     950    49.833988   -27.754094  0.096623227    -27.65747   -1397.6333    228.47824    5.5085909    4.7535957    8.7253343    2.8758051   0.16992729  0.037689596 
     960     44.45564   -27.754387  0.086195138   -27.668192    810.86015     228.1185    5.5056983    4.7510996    8.7207525    2.8742949   0.16983806  0.037669805 
     970    33.332893   -27.739691  0.064629219   -27.675062   -214.62719    228.68357    5.5102406    4.7550193    8.7279473    2.8766663   0.16997818  0.037700884 
     980    25.282051   -27.726357  0.049019424   -27.677338   -670.22063    229.00269    5.5128026    4.7572301    8.7320053    2.8780038   0.17005721  0.037718412 
     990    26.868923   -27.729465  0.052096214   -27.677368    1080.9693    228.50869    5.5088356    4.7538069    8.7257219    2.8759328   0.16993484  0.037691271 
    1000    36.652292   -27.746541  0.071065209   -27.675476   -1868.8281     229.0816    5.5134357    4.7577765    8.7330082    2.8783343   0.17007674  0.037722744 
    1010    47.626393   -27.763065  0.092342917   -27.670722    2320.2256    227.61035    5.5016072    4.7475691    8.7142724    2.8721591   0.16971185  0.037641814 
    1020    49.980401   -27.762231  0.096907109   -27.665324   -2629.1512    228.66121     5.510061    4.7548643    8.7276628    2.8765725   0.16997264  0.037699655 
    1030    40.640557     -27.7388  0.078798065   -27.660002    3019.4838    227.00777    5.4967479    4.7433758    8.7065754    2.8696223   0.16956196  0.037608566 
    1040    27.409535   -27.708421  0.053144408   -27.655276    -3005.178    228.64938     5.509966    4.7547823    8.7275124    2.8765229   0.16996971  0.037699005 
    1050    27.442635   -27.703316  0.053208584   -27.650107    2891.6465    227.10173    5.4975061    4.7440302    8.7077765    2.8700181   0.16958535  0.037613754 
    1060    45.564749   -27.730058  0.088345592   -27.641713   -2563.7949    228.62494    5.5097697    4.7546129    8.7272014    2.8764204   0.16996365  0.037697662 
    1070    63.628766   -27.753857   0.12336995   -27.630487    2331.7857    227.53242    5.5009792    4.7470273    8.7132777    2.8718313   0.16969248  0.037637517 
    1080    60.038317   -27.739986   0.11640842   -27.623577   -1631.1267    229.11473    5.5137015    4.7580058    8.7334291     2.878473   0.17008494  0.037724562 
    1090    44.033052   -27.704833  0.085375781   -27.619457     763.3573     229.0337    5.5130514    4.7574448    8.7323994    2.8781337   0.17006488  0.037720115 
    1100    35.221427   -27.685575  0.068290901   -27.617285   -400.33233    229.67534    5.5181949    4.7618834    8.7405465    2.8808189   0.17022355  0.037755306 
    1110    41.220916   -27.693674  0.079923324   -27.613751   -785.85809    229.71417    5.5185058    4.7621517     8.741039    2.8809812   0.17023314  0.037757434 
    1120    53.503338   -27.711794   0.10373774   -27.608056    1333.2381    228.77201    5.5109509    4.7556322    8.7290723    2.8770371   0.17000009  0.037705743 
    1130    59.887994   -27.719563   0.11611696   -27.603446   -2142.3418    229.24604    5.5147546    4.7589146    8.7350972    2.8790228   0.17011742  0.037731768 
    1140     58.46546   -27.712957   0.11335881   -27.599599    2815.9861    227.45562    5.5003602    4.7464931    8.7122972    2.8715081   0.16967339  0.037633282 
    1150    54.546486   -27.703989    0.1057603   -27.598229   -3201.2396    228.76023    5.5108563    4.7555506    8.7289225    2.8769877   0.16999717  0.037705096 
    1160    55.951952    -27.70601   0.10848536   -27.597525    3701.1299    226.73899    5.4945776     4.741503    8.7031379    2.8684893   0.16949501  0.037593718 
    1170    57.499451   -27.709594   0.11148581   -27.598108   -3565.4056    228.79493    5.5111349     4.755791    8.7293638    2.8771331   0.17000576  0.037707002 
    1180     53.97442   -27.704639   0.10465112   -27.599988    3601.3874    227.19173    5.4982322    4.7446568    8.7089266    2.8703972   0.16960775  0.037618723 
    1190    47.860538   -27.695788  0.092796901   -27.602991   -3317.7906    229.48169    5.5166435    4.7605446    8.7380892     2.880009   0.17017569  0.037744692 
    1200    46.581065    -27.69577  0.090316128   -27.605454    2647.2144    228.19539    5.5063169    4.7516333    8.7217323    2.8746179   0.16985714  0.037674037 
    1210    45.847797   -27.697464  0.088894393    -27.60857    -2101.305    229.70486    5.5184313    4.7620874    8.7409209    2.8809423   0.17023084  0.037756924 
    1220    45.508461   -27.699597  0.088236454    -27.61136    969.94327    228.91028    5.5120609    4.7565901    8.7308306    2.8776166   0.17003433  0.037713338 
    1230    52.716218   -27.716561   0.10221159    -27.61435   -339.38974    229.04179    5.5131163    4.7575008    8.7325022    2.8781675   0.17006688  0.037720559 
    1240    62.985872   -27.743518   0.12212344   -27.621395   -851.22835    228.74804    5.5107584    4.7554661    8.7287674    2.8769366   0.16999415  0.037704426 
    1250    61.628127    -27.75229   0.11949091   -27.632799    1978.3375    227.61403    5.5016369    4.7475948    8.7143194    2.8721746   0.16971277  0.037642017 
    1260    44.717594   -27.734078   0.08670304   -27.647374   -2827.8707     228.7662    5.5109042    4.7555919    8.7289984    2.8770127   0.16999865  0.037705424 
    1270    27.929957   -27.710652  0.054153455   -27.656499    3757.1775    226.99282    5.4966272    4.7432717    8.7063843    2.8695593   0.16955823  0.037607741 
    1280    22.920232   -27.704638  0.044440087   -27.660198   -4409.4982    229.24418    5.5147397    4.7589017    8.7350736    2.8790151   0.17011696  0.037731666 
    1290    32.385245   -27.724519  0.062791823   -27.661727    4929.0303    226.74739    5.4946455    4.7415616    8.7032454    2.8685247    0.1694971  0.037594182 
    1300    46.583292   -27.752395  0.090320446   -27.662074   -4933.2429    229.50264    5.5168114    4.7606895    8.7383552    2.8800966   0.17018087  0.037745841 
    1310     52.06391   -27.762995   0.10094683   -27.662048    5012.1708    227.04894    5.4970802    4.7436626    8.7071018    2.8697958   0.16957221   0.03761084 
    1320    44.596864   -27.749235  0.086468957   -27.662766   -4573.0846    229.98446    5.5206694    4.7640188     8.744466    2.8821107   0.17029988  0.037772237 
    1330    35.785065   -27.731747   0.06938374   -27.662363     3715.953     227.9682    5.5044889    4.7500559    8.7188368    2.8736635   0.16980075   0.03766153 
    1340    32.420907   -27.723858  0.062860967   -27.660997   -2967.4105    229.83092    5.5194406    4.7629584    8.7425196    2.8814692   0.17026197  0.037763829 
    1350    36.262275   -27.728194  0.070309004   -27.657885    1536.0668    228.43058    5.5082079    4.7532652    8.7247275    2.8756051   0.16991547  0.037686976 
    1360    43.906924    -27.73568   0.08513123   -27.650549   -335.17214    228.62723    5.5097881    4.7546288    8.7272305      2.87643   0.16996422  0.037697787 
    1370    47.225462   -27.733948  0.091565551   -27.642382   -1233.8908    228.52209    5.5089433    4.7538998    8.7258924     2.875989   0.16993816  0.037692007 
    1380    45.646072   -27.720453  0.088503269    -27.63195    2691.4106    227.16609    5.4980254    4.7444783     8.708599    2.8702892   0.16960137  0.037617307 
    1390    42.760281   -27.706394  0.082908003   -27.623486   -4043.2713    228.78437    5.5110501    4.7557178    8.7292294    2.8770889   0.17000315  0.037706422 
    1400    45.887296   -27.704169  0.088970977   -27.615198    5433.8242    226.17485    5.4900169    4.7375674    8.6959139    2.8661083   0.16935432  0.037562513 
    1410    53.945226   -27.712438   0.10459452   -27.607844    -6167.016    229.42572     5.516195    4.7601576    8.7373788    2.8797748   0.17016186  0.037741623 
    1420    63.144629   -27.725502   0.12243126   -27.603071    7100.4258    226.14995    5.4898154    4.7373936    8.6955948    2.8660031   0.16934811  0.037561135 
    1430    62.366877   -27.722483   0.12092327   -27.601559   -7019.2212    230.49876    5.5247815    4.7675672    8.7509793    2.8842575   0.17042673  0.037800372 
    1440    49.625574   -27.698557  0.096219134   -27.602338    6977.9977     227.3136    5.4992152     4.745505    8.7104836    2.8709104   0.16963807  0.037625448 
    1450    36.616207   -27.674978  0.070995244   -27.603983   -6538.1094     231.4916    5.5327026    4.7744027    8.7635259    2.8883927   0.17067108  0.037854567 
    1460    41.014616   -27.683618  0.079523327   -27.604094    5181.9661    228.31236    5.5072575     4.752445    8.7232222    2.8751089   0.16988615  0.037680473 
    1470    56.099977   -27.710854   0.10877237   -27.602081   -4048.8116    230.51403    5.5249035    4.7676726    8.7511726    2.8843212   0.17043049  0.037801207 
    1480    63.355595   -27.725618    0.1228403   -27.602778    2263.6495    228.35713    5.5076174    4.7527557    8.7237923    2.8752968   0.16989726  0.037682936 
    1490    60.349207   -27.719661   0.11701121    -27.60265   -481.25123    228.72334      5.51056     4.755295    8.7284533     2.876833   0.16998803  0.037703069 
    1500    52.751722   -27.708225   0.10228043   -27.605944   -1656.5431    228.75137    5.5107851    4.7554892    8.7288098    2.8769506   0.16999497  0.037704609 
    1510    48.353264   -27.701098   0.09375225   -27.607345     3638.743     227.1664    5.4980279    4.7444805    8.7086031    2.8702906   0.16960144  0.037617325 
    1520    48.291571   -27.702211  0.093632632   -27.608579   -5478.2401    229.62382    5.5177822    4.7615273    8.7398928    2.8806034   0.17021082  0.037752483 
    1530    53.121322   -27.713303   0.10299705   -27.610306    7270.6907    226.32697    5.4912474    4.7386293     8.697863    2.8667507   0.16939228  0.037570933 
    1540    54.702987   -27.718412   0.10606374   -27.612348   -8327.2442    230.80397     5.527219    4.7696706    8.7548402      2.88553   0.17050192  0.037817049 
    1550    49.750217   -27.713763  0.096460804   -27.617302    9432.5062    226.25687    5.4906804      4.73814     8.696965    2.8664547   0.16937479  0.037567053 
    1560    41.756502   -27.703813  0.080961773   -27.622851   -9564.8636    231.59517    5.5335275    4.7751146    8.7648326    2.8888234   0.17069652  0.037860212 
    1570     38.92345   -27.704544  0.075468762   -27.629075    9546.5791    226.33188    5.4912871    4.7386635    8.6979259    2.8667714    0.1693935  0.037571204 
    1580    41.415276    -27.71596  0.080300168    -27.63566   -8543.2179      231.042    5.5291184    4.7713097    8.7578487    2.8865216   0.17056051  0.037830044 
    1590     45.48482   -27.733013  0.088190617   -27.644823    7341.3615    226.41113    5.4919279    4.7392165    8.6989409     2.867106   0.16941327  0.037575589 
    1600    44.091675   -27.738938  0.085489445   -27.653448    -5365.755    229.62755    5.5178121    4.7615531    8.7399402     2.880619   0.17021174  0.037752687 
    1610    36.724316   -27.733907  0.071204857   -27.662702    3008.8236    227.20808    5.4983641    4.7447706    8.7091355    2.8704661   0.16961181  0.037619625 
    1620    31.889924   -27.730169  0.061831442   -27.668338   -742.98961    228.13961    5.5058682    4.7512461    8.7210216    2.8743836    0.1698433  0.037670967 
    1630    34.643472   -27.739167  0.067170304   -27.671997   -2059.8077    228.46157     5.508457    4.7534801    8.7251221    2.8757351   0.16992316   0.03768868 
    1640    40.423464    -27.75257  0.078377143   -27.674193    4472.8661    226.78858    5.4949782    4.7418487    8.7037723    2.8686984   0.16950737  0.037596458 
    1650     42.73099   -27.756499  0.082851209   -27.673648   -6761.7839    230.05976    5.5212719    4.7645386    8.7454203    2.8824252   0.17031847  0.037776359 
    1660     40.74756   -27.753439  0.079005532   -27.674434    8810.3897    226.13698    5.4897105     4.737303    8.6954286    2.8659484   0.16934487  0.037560417 
    1670    35.127269   -27.740843  0.068108339   -27.672734   -10011.809    231.54616    5.5331372    4.7747777    8.7642143    2.8886196   0.17068448  0.037857541 
    1680     25.99918   -27.721875  0.050409867   -27.671465    11269.753    225.96949    5.4883548    4.7361331    8.6932813    2.8652406   0.16930305  0.037551141 
    1690    19.631526   -27.706993  0.038063608   -27.668929   -11155.696     232.1619    5.5380375    4.7790064    8.7719762    2.8911779   0.17083565  0.037891069 
    1700    25.783705   -27.714892  0.049992082     -27.6649    10999.673    225.88963    5.4877082    4.7355751     8.692257     2.864903    0.1692831  0.037546717 
    1710    44.627249   -27.739954   0.08652787   -27.653427   -9654.4593    231.04626    5.5291524    4.7713391    8.7579026    2.8865393   0.17056156  0.037830277 
    1720     62.48736   -27.761685   0.12115688   -27.640528    8266.5556    225.67936    5.4860049    4.7341053    8.6895591    2.8640138   0.16923056  0.037535063 
    1730    63.297669   -27.751903   0.12272799   -27.629175   -5827.8271    229.19716    5.5143626    4.7585763    8.7344763    2.8788182   0.17010533  0.037729086 
    1740    49.104832   -27.720206  0.095209466   -27.624996    3284.4319    226.74206    5.4946024    4.7415244    8.7031771    2.8685022   0.16949577  0.037593887 
    1750    37.925757   -27.696446  0.073534332   -27.622912   -816.57267    228.00727    5.5048033    4.7503273    8.7193349    2.8738277   0.16981045  0.037663682 
    1760    43.353503   -27.701399  0.084058201   -27.617341   -2251.3854    228.60767    5.5096309    4.7544932    8.7269816     2.876348   0.16995937  0.037696712 
    1770    51.255341   -27.711279  0.099379091     -27.6119    4778.8388    227.04175    5.4970221    4.7436125    8.7070099    2.8697655   0.16957042  0.037610443 
    1780    48.921262   -27.696761  0.094853541   -27.601907   -7069.6637    230.79357     5.527136     4.769599    8.7547087    2.8854866   0.17049936  0.037816481 
    1790    41.220408   -27.676265  0.079922338   -27.596342    8882.6513    226.93099    5.4961281     4.742841    8.7055937    2.8692987   0.16954284  0.037604326 
    1800    45.822278   -27.676997  0.088844914   -27.588152   -10152.384    232.38933    5.5398453    4.7805664    8.7748397    2.8921217   0.17089141  0.037903438 
    1810    61.892222   -27.699932   0.12000296   -27.579929     11091.78    226.50018    5.4926479    4.7398378    8.7000813    2.8674819   0.16943548  0.037580515 
    1820     70.81469   -27.711012   0.13730276   -27.573709   -10655.483    232.29502    5.5390958    4.7799197    8.7736525    2.8917304   0.17086829   0.03789831 
    1830    69.432574   -27.707577   0.13462297   -27.572954    10418.349     226.3374    5.4913318    4.7387021    8.6979967    2.8667948   0.16939488   0.03757151 
    1840    62.414077   -27.697248   0.12101479   -27.576233   -8994.9932    231.33681    5.5314691    4.7733382    8.7615721    2.8877488   0.17063303  0.037846128 
    1850     54.86868   -27.689992     0.106385   -27.583607    7546.5837    226.56082     5.493138    4.7402607    8.7008576    2.8677377    0.1694506  0.037583868 
    1860    45.809063   -27.678463  0.088819291   -27.589643   -5427.7166    229.87182    5.5197679    4.7632408    8.7430381    2.8816401   0.17027207  0.037766069 
    1870    42.887176   -27.678629  0.083154039   -27.595475    3045.5994    227.50288    5.5007411    4.7468218    8.7129006     2.871707   0.16968514  0.037635888 
    1880    51.623794   -27.699843   0.10009349    -27.59975   -887.63538    228.53553    5.5090513     4.753993    8.7260635    2.8760454   0.16994149  0.037692746 
    1890    63.449113   -27.727975   0.12302162   -27.604953   -1651.1078    228.80395    5.5112073    4.7558535    8.7294785     2.877171     0.170008  0.037707498 
    1900    60.566183    -27.73219    0.1174319   -27.614758     3805.683    227.56522    5.5012435    4.7472553    8.7136963    2.8719693   0.16970064  0.037639325 
    1910    45.257078   -27.710709  0.087749047    -27.62296   -5836.0908     230.5259    5.5249984    4.7677544    8.7513229    2.8843707   0.17043342  0.037801856 
    1920    39.733164   -27.707466  0.077038718   -27.630428     7044.482    227.10697    5.4975484    4.7440667    8.7078435    2.8700402   0.16958665  0.037614044 
    1930    48.482079    -27.73147  0.094002009   -27.637468   -8076.4901    231.01579    5.5289093    4.7711293    8.7575176    2.8864124   0.17055406  0.037828614 
    1940    51.514159   -27.744604  0.099880915   -27.644723     8853.552    226.12298    5.4895972    4.7372052    8.6952491    2.8658892   0.16934137  0.037559642 
    1950     38.89348   -27.726615  0.075410653   -27.651204   -8440.3052    230.62679    5.5258042    4.7684498    8.7525993    2.8847914   0.17045828  0.037807369 
    1960    29.830107   -27.712764   0.05783766   -27.654926     8073.063    225.93824    5.4881018    4.7359148    8.6928805    2.8651085   0.16929524   0.03754941 
    1970    32.092899   -27.718377  0.062224991   -27.656152   -6849.8516    229.73312    5.5186576    4.7622826    8.7412793    2.8810604   0.17023782  0.037758472 
    1980    36.368557    -27.72696  0.070515075   -27.656445    5781.7736     226.2133    5.4903279    4.7378358    8.6964066    2.8662707   0.16936392  0.037564642 
    1990    37.519408   -27.728297  0.072746462   -27.655551    -4012.891     228.9661    5.5125089    4.7569767    8.7315402    2.8778505   0.17004815  0.037716403 
    2000    46.318777   -27.742344  0.089807577   -27.652536    2165.7519    227.49641     5.500689    4.7467768    8.7128181    2.8716798   0.16968353  0.037635532 
    2010    59.332697   -27.765101    0.1150403    -27.65006   -465.37762    228.44279    5.5083061    4.7533499    8.7248831    2.8756563    0.1699185  0.037687647 
    2020    58.639338   -27.760788   0.11369594   -27.647092   -1226.6051     229.0286    5.5130105    4.7574095    8.7323346    2.8781123   0.17006362  0.037719835 
    2030    38.140301   -27.721661  0.073950312   -27.647711    2605.1715    228.46064    5.5084495    4.7534737    8.7251103    2.8757312   0.16992292  0.037688629 
    2040    23.485068   -27.690792  0.045535249   -27.645257   -4252.4194    230.58414    5.5254636    4.7681559    8.7520597    2.8846136   0.17044777  0.037805039 
    2050     29.94039   -27.699758  0.058051488   -27.641707    4865.7137    227.91739    5.5040799     4.749703    8.7181891      2.87345   0.16978813  0.037658732 
    2060     45.13744   -27.723936  0.087517082   -27.636419   -5582.0655    230.30509    5.5232338    4.7662316    8.7485278    2.8834495   0.17037898  0.037789782 
    2070    51.819352   -27.729631   0.10047265   -27.629158    6066.2686    226.70712    5.4943202    4.7412809    8.7027301    2.8683549   0.16948707  0.037591956 
    2080    50.022089   -27.720744  0.096987937   -27.623756   -5852.5901    229.60339    5.5176186    4.7613861    8.7396336     2.880518   0.17020577  0.037751363 
    2090    54.237828    -27.72491   0.10516184   -27.619748    5647.8829    226.25709    5.4906822    4.7381415    8.6969677    2.8664557   0.16937484  0.037567065 
    2100     59.13258   -27.731488   0.11465229   -27.616836   -4703.1472    228.97508     5.512581    4.7570389    8.7316544    2.8778881   0.17005037  0.037716896 
    2110    55.004154    -27.72218   0.10664767   -27.615532    4066.7954     226.8303     5.495315    4.7421394     8.704306    2.8688743   0.16951776  0.037598763 
    2120    46.222702   -27.705923  0.089621297   -27.616301   -2916.1501    229.13417    5.5138574    4.7581403     8.733676    2.8785544   0.17008974  0.037725629 
    2130    44.216245   -27.700739  0.085730974   -27.615008    1643.5492    228.32957    5.5073959    4.7525645    8.7234414    2.8751812   0.16989042   0.03768142 
    2140     41.48203   -27.694873  0.080429598   -27.614443   -567.71046    229.31723    5.5153254    4.7594071    8.7360013    2.8793208   0.17013503  0.037735673 
    2150    38.634427    -27.68632  0.074908375   -27.611412   -912.33945     229.6422    5.5179294    4.7616543     8.740126    2.8806803   0.17021536   0.03775349 
    2160    45.581107   -27.695494  0.088377307   -27.607116    1574.0676    228.87623    5.5117876    4.7563542    8.7303976    2.8774739    0.1700259  0.037711468 
    2170     62.52074   -27.722878    0.1212216   -27.601657   -2776.9815    229.67076    5.5181582    4.7618517    8.7404884    2.8807997   0.17022242  0.037755055 
    2180    76.222079   -27.743321   0.14778715   -27.595534    3482.5494    227.50319    5.5007437     4.746824    8.7129046    2.8717083   0.16968522  0.037635906 
    2190     71.30889   -27.733827   0.13826096   -27.595566   -3839.0985    229.17168    5.5141582       4.7584    8.7341526    2.8787115   0.17009903  0.037727688 
    2200    52.688712   -27.701707   0.10215826   -27.599549    4299.9636    226.89055    5.4958016    4.7425592    8.7050766    2.8691283   0.16953277  0.037602092 
    2210    37.999449   -27.677556  0.073677214   -27.603879   -4252.0464    229.24519    5.5147477    4.7589087    8.7350864    2.8790193   0.17011721  0.037731721 
    2220    41.023798   -27.687389  0.079541132   -27.607848    4071.6122    227.03422    5.4969613      4.74356    8.7069135    2.8697337   0.16956854  0.037610027 
    2230    51.737641   -27.714228   0.10031423   -27.613913   -3492.5206    229.19115    5.5143144    4.7585347    8.7343999     2.878793   0.17010384  0.037728756 
    2240    52.822648   -27.726947   0.10241795   -27.624529     3020.456    227.70646    5.5023815    4.7482373    8.7154988    2.8725634   0.16973574  0.037647111 
    2250     41.78053   -27.720051  0.081008361   -27.639043   -2317.9264    229.52436    5.5169854    4.7608397    8.7386308    2.8801875   0.17018624  0.037747031 
    2260    35.388548    -27.71908  0.068614932   -27.650465    1167.5893    228.77363    5.5109639    4.7556434    8.7290929    2.8770439   0.17000049  0.037705832 
    2270     38.43931   -27.733543  0.074530062   -27.659013   -564.34343    229.15623    5.5140343    4.7582931    8.7339564    2.8786468    0.1700952   0.03772684 
    2280    41.916372   -27.747191  0.081271745    -27.66592   -514.35481    228.87199    5.5117535    4.7563249    8.7303437    2.8774561   0.17002485  0.037711235 
    2290    40.059917   -27.747318  0.077672261   -27.669646    1321.6654    228.06625    5.5052779    4.7507368    8.7200867    2.8740755   0.16982509  0.037666929 
    2300    35.685199     -27.7412   0.06919011   -27.672009   -2164.9606    228.71379    5.5104833    4.7552287    8.7283317     2.876793   0.16998566  0.037702544 
    2310    35.796163   -27.741161  0.069405257   -27.671755    2807.6903    227.07511    5.4972913    4.7438448    8.7074363     2.869906   0.16957872  0.037612285 
    2320    37.842893   -27.743836  0.073373667   -27.670462   -3127.6392    228.49376    5.5087157    4.7537034    8.7255319    2.8758702   0.16993114   0.03769045 
    2330    36.818511   -27.739059  0.071387491   -27.667672    3606.7811     226.7044    5.4942982    4.7412619    8.7026952    2.8683434   0.16948639  0.037591806 
    2340    34.780235   -27.731165  0.067435473   -27.663729   -3543.4671    228.83442     5.511452    4.7560646     8.729866    2.8772987   0.17001554  0.037709171 
    2350    40.960648   -27.737482  0.079418689   -27.658063    3399.4571    227.19822    5.4982846     4.744702    8.7090096    2.8704246   0.16960936  0.037619081 
    2360    50.308716   -27.748005  0.097543679   -27.650462   -3011.6346    229.18508    5.5142657    4.7584927    8.7343229    2.8787676   0.17010234  0.037728423 
    2370    48.604432   -27.736547  0.094239239   -27.642308    2564.6632    228.01687    5.5048806    4.7503939    8.7194573     2.873868   0.16981283   0.03766421 
    2380    38.647375   -27.711498  0.074933479   -27.636564   -2125.0213    229.59554    5.5175557    4.7613318    8.7395341    2.8804852   0.17020383  0.037750933 
    2390    41.822059   -27.712093  0.081088882   -27.631005    1028.1496    228.74754    5.5107544    4.7554626    8.7287611    2.8769345   0.16999402  0.037704398 
    2400    53.772215   -27.728543   0.10425906   -27.624284   -346.31465    228.92743    5.5121986    4.7567089    8.7310486    2.8776885   0.17003858   0.03771428 
    2410    52.236503   -27.720445   0.10128147   -27.619164   -394.27856    228.83087    5.5114235      4.75604    8.7298209    2.8772838   0.17001466  0.037708976 
    2420    43.834654    -27.70073  0.084991105   -27.615739    1068.7475    228.40911    5.5080353    4.7531162    8.7244542     2.875515   0.16991015  0.037685795 
    2430    46.542975   -27.703022  0.090242276    -27.61278   -1899.6675    229.11088    5.5136706    4.7579792    8.7333802    2.8784569   0.17008398  0.037724351 
    2440    52.730113    -27.71171   0.10223853   -27.609471    2576.5906    227.83631    5.5034271    4.7491397    8.7171551    2.8731093     0.169768  0.037654266 
    2450     48.50848   -27.700953  0.094053198   -27.606899   -2914.4301    229.42451    5.5161853    4.7601492    8.7373633    2.8797697   0.17016156  0.037741557 
    2460    45.148282    -27.69245  0.087538102   -27.604912    3147.8271    227.95168    5.5043559    4.7499412    8.7186263    2.8735941   0.16979665  0.037660621 
    2470    54.945379   -27.709056   0.10653372   -27.602522   -3417.4357    229.77015     5.518954    4.7625385    8.7417489    2.8812152   0.17024697    0.0377605 
    2480    66.893239    -27.73065   0.12969945    -27.60095    3399.4839    227.89719    5.5039173    4.7495626    8.7179315    2.8733651   0.16978312  0.037657619 
    2490    60.433619   -27.719633   0.11717487   -27.602458    -3072.996     229.7508    5.5187991    4.7624048    8.7415035    2.8811343   0.17024219   0.03775944 
    2500    44.350191   -27.691113  0.085990681   -27.605122    2507.1396    228.32203    5.5073353    4.7525122    8.7233454    2.8751495   0.16988855  0.037681005 
    2510    44.664996   -27.693349  0.086601059   -27.606748   -2266.8653    229.46167    5.5164831    4.7604062    8.7378351    2.8799252   0.17017074  0.037743594 
    2520    60.829094   -27.726825   0.11794166   -27.608884    1444.6044    228.05781      5.50521    4.7506782    8.7199791      2.87404   0.16982299  0.037666464 
    2530    65.054562   -27.738677   0.12613443   -27.612542   -529.61003    228.30253    5.5071785    4.7523769    8.7230971    2.8750677   0.16988372  0.037679932 
    2540    49.314852   -27.714858  0.095616674   -27.619241   -270.37311    228.14888    5.5059427    4.7513105    8.7211397    2.8744225    0.1698456  0.037671477 
    2550    37.176942   -27.696963  0.072082453   -27.624881    963.56807    227.75981    5.5028111    4.7486081    8.7161794    2.8727877   0.16974899  0.037650051 
    2560     39.63787   -27.706697  0.076853953   -27.629843   -1757.0676    228.40744    5.5080219    4.7531047    8.7244329     2.875508   0.16990973  0.037685703 
    2570    43.534973   -27.719794  0.084410055   -27.635383    2566.0461    227.27807    5.4989287    4.7452577    8.7100297    2.8707608   0.16962923  0.037623487 
    2580    42.800871   -27.724784  0.082986702   -27.641797   -3043.1689    228.99338    5.5127278    4.7571656    8.7318869    2.8779648    0.1700549  0.037717901 
    2590     44.19354   -27.735735   0.08568695   -27.650048    3392.8947    227.47514    5.5005176    4.7466289    8.7125465    2.8715903   0.16967824  0.037634359 
    2600    42.726034   -27.742799    0.0828416   -27.659957   -3526.0834    229.59842    5.5175788    4.7613517    8.7395706    2.8804972   0.17020454  0.037751091 
    2610    33.560647   -27.734408  0.065070812   -27.669337     3465.166    227.94507    5.5043027    4.7498952    8.7185419    2.8735663   0.16979501  0.037660256 
    2620    27.414938   -27.728696  0.053154884   -27.675541    -3437.805    229.92764    5.5202147    4.7636264    8.7437458    2.8818734   0.17028586  0.037769126 
    2630    32.381193   -27.742528  0.062783966   -27.679744    2792.0857    228.05197    5.5051631    4.7506377    8.7199047    2.8740155   0.16982155  0.037666143 
    2640    38.335214   -27.756463  0.074328231   -27.682135   -2252.0184    229.09485    5.5135419    4.7578682    8.7331765    2.8783898   0.17008002  0.037723471 
    2650    36.736056   -27.755113  0.071227619   -27.683886    1504.3841    227.75382    5.5027629    4.7485665     8.716103    2.8727625   0.16974751  0.037649721 
    2660    34.449108   -27.749924   0.06679345   -27.683131   -705.50781    228.05564    5.5051926    4.7506631    8.7199514    2.8740309   0.16982246  0.037666345 
    2670    37.445762   -27.754037   0.07260367   -27.681433    -197.5472    227.65847    5.5019949    4.7479037    8.7148865    2.8723615   0.16972381  0.037644466 
    2680    42.627237   -27.759631  0.082650042   -27.676981    1244.1565    227.16366    5.4980058    4.7444614     8.708568     2.870279   0.16960076  0.037617173 
    2690    42.575487   -27.753192  0.082549704   -27.670643   -1927.7715    228.17756    5.5061734    4.7515095     8.721505     2.874543   0.16985271  0.037673056 
    2700    37.455528   -27.736415  0.072622605   -27.663792    2774.4718    227.28394     5.498976    4.7452986    8.7101048    2.8707855   0.16963069  0.037623812 
    2710    34.071725   -27.721064  0.066061742   -27.655002   -3439.1579    229.40013    5.5159899    4.7599806    8.7370539    2.8796678   0.17015553   0.03774022 
    2720    35.606677   -27.714834  0.069037863   -27.645797    3765.5481    227.77834    5.5029604    4.7487369    8.7164158    2.8728656    0.1697536  0.037651072 
    2730     38.92802   -27.712023  0.075477622   -27.636546   -4070.1423     230.1204    5.5217569    4.7649572    8.7461885    2.8826784   0.17033343  0.037779677 
    2740    42.787238    -27.71274  0.082960268    -27.62978    3930.4488    227.99074    5.5046703    4.7502125    8.7191243    2.8737583   0.16980635  0.037662772 
    2750    47.974958   -27.718366   0.09301875   -27.625347   -3794.5529    229.97773    5.5206155    4.7639723    8.7443807    2.8820826   0.17029822  0.037771868 
    2760    50.903494   -27.721333  0.098696894   -27.622636    3337.3726    227.85306     5.503562    4.7492561    8.7173687    2.8731797   0.16977216  0.037655189 
    2770    47.492981    -27.71258  0.092084244   -27.620496   -2664.3923    229.33055    5.5154322    4.7594993    8.7361704    2.8793766   0.17013832  0.037736404 
    2780    46.156992    -27.70834  0.089493892   -27.618846    1795.6969     228.0016    5.5047577    4.7502878    8.7192626    2.8738039   0.16980904  0.037663369 
    2790    53.155318   -27.719321   0.10306296   -27.616258   -913.76716    228.61707    5.5097064    4.7545583    8.7271012    2.8763874    0.1699617  0.037697229 
    2800    57.823986   -27.726019   0.11211505   -27.613904   -18.185708    228.38277    5.5078236    4.7529336    8.7241189    2.8754045   0.16990362  0.037684346 
    2810    53.534595    -27.71663   0.10379834   -27.612832    1008.4914    228.26113    5.5068455    4.7520895    8.7225697    2.8748938   0.16987345  0.037677654 
    2820     52.18374   -27.712885   0.10117917   -27.611706   -2161.3247     229.2714    5.5149579    4.7590901    8.7354193     2.879129    0.1701237  0.037733159 
    2830    56.060049   -27.720012   0.10869495   -27.611317    2990.0584    227.95856    5.5044113     4.749989     8.718714    2.8736231   0.16979836     0.037661 
    2840    50.511422    -27.70938  0.097936705   -27.611443   -3699.6575    229.91759    5.5201343     4.763557    8.7436184    2.8818314   0.17028337  0.037768576 
    2850    40.501068   -27.690364  0.078527608   -27.611836    4085.3706     227.8702       5.5037    4.7493752    8.7175873    2.8732517   0.16977641  0.037656133 
    2860    44.482141   -27.697516  0.086246521    -27.61127   -4613.5061    230.06066     5.521279    4.7645448    8.7454316     2.882429   0.17031869  0.037776408 
    2870    58.442294   -27.723228   0.11331389   -27.609914    4680.2679    227.16046      5.49798    4.7444391    8.7085271    2.8702655   0.16959997  0.037616997 
    2880     60.72167   -27.727346   0.11773338   -27.609612   -4221.6569    229.31917    5.5153409    4.7594206     8.736026     2.879329   0.17013551   0.03773578 
    2890    51.111333   -27.710505  0.099099874   -27.611406    3809.5401    227.05872     5.497159    4.7437307    8.7072267    2.8698369   0.16957464   0.03761138 
    2900     45.27204   -27.701166  0.087778057   -27.613387   -3105.7876    228.87752    5.5117979    4.7563632     8.730414    2.8774793   0.17002622  0.037711539 
    2910    48.232421   -27.708662  0.093517946   -27.615144    2183.1721     227.4082    5.4999779    4.7461632    8.7116917    2.8713086    0.1696616  0.037630667 
    2920    49.401966     -27.7127  0.095785579   -27.616914   -1004.0928    228.38524    5.5078434    4.7529507    8.7241503    2.8754148   0.16990423  0.037684482 
    2930     46.49839   -27.707864   0.09015583   -27.617708   -170.35478    228.44294    5.5083072    4.7533509    8.7248849    2.8756569   0.16991854  0.037687655 
    2940    46.557396   -27.709452  0.090270236   -27.619182    1184.2461    228.37662    5.5077741    4.7528909    8.7240405    2.8753786   0.16990209  0.037684008 
    2950    52.367248   -27.720742   0.10153497   -27.619207   -2436.8986    229.59342    5.5175387    4.7613171    8.7395071    2.8804763   0.17020331  0.037750817 
    2960    55.510553   -27.728151   0.10762953   -27.620521    3290.0161     228.1969     5.506329    4.7516438    8.7217515    2.8746242   0.16985751   0.03767412 
    2970    53.053206   -27.725558   0.10286498   -27.622693   -4220.6529    230.30446    5.5232287    4.7662273    8.7485198    2.8834468   0.17037883  0.037789748 
    2980    51.716467   -27.726365   0.10027317   -27.626091    4609.2066    227.76488    5.5028519    4.7486433     8.716244     2.872809   0.16975025   0.03765033 
    2990    49.912858   -27.727798   0.09677615   -27.631021   -4910.7516    230.07173    5.5213676    4.7646213    8.7455719    2.8824752   0.17032142  0.037777014 
    3000    42.028297   -27.717857  0.081488756   -27.636368     5103.762    227.10854    5.4975611    4.7440776    8.7078635    2.8700468   0.16958704   0.03761413 
Loop time of 111.529 on 1 procs for 3000 steps with 16 atoms

Performance: 4.648 ns/day, 5.163 hours/ns, 26.899 timesteps/s
271.7% CPU use with 1 MPI tasks x no OpenMP threads

MPI task timing breakdown:
Section |  min time  |  avg time  |  max time  |%varavg| %total
---------------------------------------------------------------
Pair    | 110.57     | 110.57     | 110.57     |   0.0 | 99.14
Neigh   | 0          | 0          | 0          |   0.0 |  0.00
Comm    | 0.050844   | 0.050844   | 0.050844   |   0.0 |  0.05
Output  | 0.83763    | 0.83763    | 0.83763    |   0.0 |  0.75
Modify  | 0.049799   | 0.049799   | 0.049799   |   0.0 |  0.04
Other   |            | 0.01835    |            |       |  0.02

Nlocal:    16 ave 16 max 16 min
Histogram: 1 0 0 0 0 0 0 0 0 0
Nghost:    1151 ave 1151 max 1151 min
Histogram: 1 0 0 0 0 0 0 0 0 0
Neighs:    0 ave 0 max 0 min
Histogram: 1 0 0 0 0 0 0 0 0 0

Total # of neighbors = 0
Ave neighs/atom = 0
Neighbor list builds = 0
Dangerous builds = 0
Total wall time: 0:01:56
