   5   5   0   0
  0.1934148E+03  0.9729233E-09  0.1004192E-08  0.9901968E-09  0.2000000E-14
   50.000000000000000     
  CAR 
 unknown system                          
      2.73189643    -18.96205899  301     -9.12955919      1.00000000
    -18.962  0.0000E+00  0.0000E+00
    -18.890  0.0000E+00  0.0000E+00
    -18.817  0.0000E+00  0.0000E+00
    -18.745  0.0000E+00  0.0000E+00
    -18.673  0.0000E+00  0.0000E+00
    -18.600 -0.4559E-27 -0.3297E-28
    -18.528 -0.1425E-24 -0.1034E-25
    -18.456 -0.3431E-22 -0.2491E-23
    -18.384 -0.6342E-20 -0.4611E-21
    -18.311 -0.8999E-18 -0.6554E-19
    -18.239 -0.9799E-16 -0.7151E-17
    -18.167 -0.8183E-14 -0.5989E-15
    -18.094 -0.5069E-12 -0.3725E-13
    -18.022 -0.2478E-10 -0.1829E-11
    -17.950 -0.9243E-09 -0.6867E-10
    -17.877 -0.2632E-07 -0.1972E-08
    -17.805 -0.5707E-06 -0.4324E-07
    -17.733 -0.9399E-05 -0.7229E-06
    -17.660 -0.1171E-03 -0.9189E-05
    -17.588 -0.1097E-02 -0.8848E-04
    -17.516 -0.7650E-02 -0.6417E-03
    -17.443 -0.3912E-01 -0.3471E-02
    -17.371 -0.1423E+00 -0.1376E-01
    -17.299 -0.3421E+00 -0.3849E-01
    -17.227 -0.4128E+00 -0.6835E-01
    -17.154  0.3759E+00 -0.4116E-01
    -17.082  0.2789E+01  0.1605E+00
    -17.010  0.6214E+01  0.6099E+00
    -16.937  0.8268E+01  0.1208E+01
    -16.865  0.7138E+01  0.1724E+01
    -16.793  0.3849E+01  0.2002E+01
    -16.720  0.9493E+00  0.2071E+01
    -16.648 -0.3032E+00  0.2049E+01
    -16.576 -0.4022E+00  0.2020E+01
    -16.503 -0.1973E+00  0.2006E+01
    -16.431 -0.6112E-01  0.2001E+01
    -16.359 -0.1325E-01  0.2000E+01
    -16.286 -0.2090E-02  0.2000E+01
    -16.214 -0.2446E-03  0.2000E+01
    -16.142 -0.2146E-04  0.2000E+01
    -16.070 -0.1423E-05  0.2000E+01
    -15.997 -0.7152E-07  0.2000E+01
    -15.925 -0.2736E-08  0.2000E+01
    -15.853 -0.7986E-10  0.2000E+01
    -15.780 -0.1779E-11  0.2000E+01
    -15.708 -0.3071E-13  0.2000E+01
    -15.636  0.0000E+00  0.2000E+01
    -15.563  0.0000E+00  0.2000E+01
    -15.491  0.0000E+00  0.2000E+01
    -15.419  0.0000E+00  0.2000E+01
    -15.346  0.0000E+00  0.2000E+01
    -15.274  0.0000E+00  0.2000E+01
    -15.202  0.0000E+00  0.2000E+01
    -15.129  0.0000E+00  0.2000E+01
    -15.057  0.0000E+00  0.2000E+01
    -14.985  0.0000E+00  0.2000E+01
    -14.913  0.0000E+00  0.2000E+01
    -14.840  0.0000E+00  0.2000E+01
    -14.768  0.0000E+00  0.2000E+01
    -14.696  0.0000E+00  0.2000E+01
    -14.623  0.0000E+00  0.2000E+01
    -14.551  0.0000E+00  0.2000E+01
    -14.479  0.0000E+00  0.2000E+01
    -14.406  0.0000E+00  0.2000E+01
    -14.334  0.0000E+00  0.2000E+01
    -14.262  0.0000E+00  0.2000E+01
    -14.189  0.0000E+00  0.2000E+01
    -14.117  0.0000E+00  0.2000E+01
    -14.045  0.0000E+00  0.2000E+01
    -13.972  0.0000E+00  0.2000E+01
    -13.900  0.0000E+00  0.2000E+01
    -13.828  0.0000E+00  0.2000E+01
    -13.756  0.0000E+00  0.2000E+01
    -13.683  0.0000E+00  0.2000E+01
    -13.611  0.0000E+00  0.2000E+01
    -13.539  0.0000E+00  0.2000E+01
    -13.466  0.0000E+00  0.2000E+01
    -13.394  0.0000E+00  0.2000E+01
    -13.322  0.0000E+00  0.2000E+01
    -13.249  0.0000E+00  0.2000E+01
    -13.177  0.0000E+00  0.2000E+01
    -13.105  0.0000E+00  0.2000E+01
    -13.032  0.0000E+00  0.2000E+01
    -12.960  0.0000E+00  0.2000E+01
    -12.888  0.0000E+00  0.2000E+01
    -12.815  0.0000E+00  0.2000E+01
    -12.743  0.0000E+00  0.2000E+01
    -12.671  0.0000E+00  0.2000E+01
    -12.598  0.0000E+00  0.2000E+01
    -12.526  0.0000E+00  0.2000E+01
    -12.454  0.0000E+00  0.2000E+01
    -12.382  0.0000E+00  0.2000E+01
    -12.309  0.0000E+00  0.2000E+01
    -12.237  0.0000E+00  0.2000E+01
    -12.165  0.0000E+00  0.2000E+01
    -12.092  0.0000E+00  0.2000E+01
    -12.020  0.0000E+00  0.2000E+01
    -11.948  0.0000E+00  0.2000E+01
    -11.875  0.0000E+00  0.2000E+01
    -11.803  0.0000E+00  0.2000E+01
    -11.731  0.0000E+00  0.2000E+01
    -11.658  0.0000E+00  0.2000E+01
    -11.586  0.0000E+00  0.2000E+01
    -11.514  0.0000E+00  0.2000E+01
    -11.441  0.0000E+00  0.2000E+01
    -11.369  0.0000E+00  0.2000E+01
    -11.297  0.0000E+00  0.2000E+01
    -11.225  0.0000E+00  0.2000E+01
    -11.152  0.0000E+00  0.2000E+01
    -11.080  0.0000E+00  0.2000E+01
    -11.008 -0.3395E-26  0.2000E+01
    -10.935 -0.9700E-24  0.2000E+01
    -10.863 -0.2133E-21  0.2000E+01
    -10.791 -0.3602E-19  0.2000E+01
    -10.718 -0.4671E-17  0.2000E+01
    -10.646 -0.4647E-15  0.2000E+01
    -10.574 -0.3394E-13  0.2000E+01
    -10.501 -0.2010E-11  0.2000E+01
    -10.429 -0.8971E-10  0.2000E+01
    -10.357 -0.3064E-08  0.2000E+01
    -10.284 -0.7995E-07  0.2000E+01
    -10.212 -0.1592E-05  0.2000E+01
    -10.140 -0.2413E-04  0.2000E+01
    -10.068 -0.2778E-03  0.2000E+01
     -9.995 -0.2419E-02  0.2000E+01
     -9.923 -0.1583E-01  0.1999E+01
     -9.851 -0.7694E-01  0.1993E+01
     -9.778 -0.2717E+00  0.1973E+01
     -9.706 -0.6603E+00  0.1926E+01
     -9.634 -0.9132E+00  0.1860E+01
     -9.561  0.1979E+00  0.1874E+01
     -9.489  0.4446E+01  0.2195E+01
     -9.417  0.1207E+02  0.3068E+01
     -9.344  0.1974E+02  0.4496E+01
     -9.272  0.2221E+02  0.6102E+01
     -9.200  0.1743E+02  0.7362E+01
     -9.127  0.8968E+01  0.8011E+01
     -9.055  0.2194E+01  0.8169E+01
     -8.983 -0.6916E+00  0.8119E+01
     -8.911 -0.9548E+00  0.8050E+01
     -8.838 -0.4899E+00  0.8015E+01
     -8.766 -0.1602E+00  0.8003E+01
     -8.694 -0.3693E-01  0.8001E+01
     -8.621 -0.6235E-02  0.8000E+01
     -8.549 -0.7848E-03  0.8000E+01
     -8.477 -0.7439E-04  0.8000E+01
     -8.404 -0.5343E-05  0.8000E+01
     -8.332 -0.2920E-06  0.8000E+01
     -8.260 -0.1218E-07  0.8000E+01
     -8.187 -0.3882E-09  0.8000E+01
     -8.115 -0.9473E-11  0.8000E+01
     -8.043 -0.1781E-12  0.8000E+01
     -7.970  0.0000E+00  0.8000E+01
     -7.898  0.0000E+00  0.8000E+01
     -7.826  0.0000E+00  0.8000E+01
     -7.754  0.0000E+00  0.8000E+01
     -7.681  0.0000E+00  0.8000E+01
     -7.609  0.0000E+00  0.8000E+01
     -7.537  0.0000E+00  0.8000E+01
     -7.464  0.0000E+00  0.8000E+01
     -7.392  0.0000E+00  0.8000E+01
     -7.320  0.0000E+00  0.8000E+01
     -7.247  0.0000E+00  0.8000E+01
     -7.175  0.0000E+00  0.8000E+01
     -7.103  0.0000E+00  0.8000E+01
     -7.030  0.0000E+00  0.8000E+01
     -6.958  0.0000E+00  0.8000E+01
     -6.886  0.0000E+00  0.8000E+01
     -6.813  0.0000E+00  0.8000E+01
     -6.741  0.0000E+00  0.8000E+01
     -6.669  0.0000E+00  0.8000E+01
     -6.597  0.0000E+00  0.8000E+01
     -6.524  0.0000E+00  0.8000E+01
     -6.452  0.0000E+00  0.8000E+01
     -6.380  0.0000E+00  0.8000E+01
     -6.307  0.0000E+00  0.8000E+01
     -6.235  0.0000E+00  0.8000E+01
     -6.163  0.0000E+00  0.8000E+01
     -6.090  0.0000E+00  0.8000E+01
     -6.018  0.0000E+00  0.8000E+01
     -5.946  0.0000E+00  0.8000E+01
     -5.873  0.0000E+00  0.8000E+01
     -5.801  0.0000E+00  0.8000E+01
     -5.729  0.0000E+00  0.8000E+01
     -5.656  0.0000E+00  0.8000E+01
     -5.584  0.0000E+00  0.8000E+01
     -5.512  0.0000E+00  0.8000E+01
     -5.439  0.0000E+00  0.8000E+01
     -5.367  0.0000E+00  0.8000E+01
     -5.295  0.0000E+00  0.8000E+01
     -5.223  0.0000E+00  0.8000E+01
     -5.150  0.0000E+00  0.8000E+01
     -5.078  0.0000E+00  0.8000E+01
     -5.006  0.0000E+00  0.8000E+01
     -4.933  0.0000E+00  0.8000E+01
     -4.861  0.0000E+00  0.8000E+01
     -4.789  0.0000E+00  0.8000E+01
     -4.716  0.0000E+00  0.8000E+01
     -4.644  0.0000E+00  0.8000E+01
     -4.572  0.0000E+00  0.8000E+01
     -4.499  0.0000E+00  0.8000E+01
     -4.427  0.0000E+00  0.8000E+01
     -4.355  0.0000E+00  0.8000E+01
     -4.282  0.0000E+00  0.8000E+01
     -4.210  0.0000E+00  0.8000E+01
     -4.138  0.0000E+00  0.8000E+01
     -4.066  0.0000E+00  0.8000E+01
     -3.993  0.0000E+00  0.8000E+01
     -3.921  0.0000E+00  0.8000E+01
     -3.849  0.0000E+00  0.8000E+01
     -3.776  0.0000E+00  0.8000E+01
     -3.704  0.0000E+00  0.8000E+01
     -3.632  0.0000E+00  0.8000E+01
     -3.559  0.0000E+00  0.8000E+01
     -3.487  0.0000E+00  0.8000E+01
     -3.415  0.0000E+00  0.8000E+01
     -3.342  0.0000E+00  0.8000E+01
     -3.270  0.0000E+00  0.8000E+01
     -3.198  0.0000E+00  0.8000E+01
     -3.125  0.0000E+00  0.8000E+01
     -3.053  0.0000E+00  0.8000E+01
     -2.981  0.0000E+00  0.8000E+01
     -2.909  0.0000E+00  0.8000E+01
     -2.836  0.0000E+00  0.8000E+01
     -2.764  0.0000E+00  0.8000E+01
     -2.692  0.0000E+00  0.8000E+01
     -2.619  0.0000E+00  0.8000E+01
     -2.547  0.0000E+00  0.8000E+01
     -2.475  0.0000E+00  0.8000E+01
     -2.402  0.0000E+00  0.8000E+01
     -2.330  0.0000E+00  0.8000E+01
     -2.258  0.0000E+00  0.8000E+01
     -2.185  0.0000E+00  0.8000E+01
     -2.113  0.0000E+00  0.8000E+01
     -2.041  0.0000E+00  0.8000E+01
     -1.968 -0.1033E-28  0.8000E+01
     -1.896 -0.1032E-25  0.8000E+01
     -1.824 -0.2797E-23  0.8000E+01
     -1.752 -0.5838E-21  0.8000E+01
     -1.679 -0.9354E-19  0.8000E+01
     -1.607 -0.1151E-16  0.8000E+01
     -1.535 -0.1086E-14  0.8000E+01
     -1.462 -0.7663E-13  0.8000E+01
     -1.390 -0.4211E-11  0.8000E+01
     -1.318 -0.1779E-09  0.8000E+01
     -1.245 -0.5740E-08  0.8000E+01
     -1.173 -0.1412E-06  0.8000E+01
     -1.101 -0.2643E-05  0.8000E+01
     -1.028 -0.3749E-04  0.8000E+01
     -0.956 -0.4011E-03  0.8000E+01
     -0.884 -0.3213E-02  0.8000E+01
     -0.811 -0.1903E-01  0.7998E+01
     -0.739 -0.8154E-01  0.7992E+01
     -0.667 -0.2411E+00  0.7975E+01
     -0.595 -0.4299E+00  0.7944E+01
     -0.522 -0.1608E+00  0.7932E+01
     -0.450  0.1451E+01  0.8037E+01
     -0.378  0.4614E+01  0.8371E+01
     -0.305  0.7645E+01  0.8924E+01
     -0.233  0.8064E+01  0.9507E+01
     -0.161  0.5488E+01  0.9904E+01
     -0.088  0.2125E+01  0.1006E+02
     -0.016  0.8102E-01  0.1006E+02
      0.056 -0.4518E+00  0.1003E+02
      0.129 -0.3656E+00  0.1000E+02
      0.201 -0.3598E+00  0.9978E+01
      0.273 -0.6328E+00  0.9932E+01
      0.346 -0.8538E+00  0.9871E+01
      0.418  0.1046E+00  0.9878E+01
      0.490  0.3880E+01  0.1016E+02
      0.563  0.1091E+02  0.1095E+02
      0.635  0.1853E+02  0.1229E+02
      0.707  0.2191E+02  0.1387E+02
      0.779  0.1831E+02  0.1520E+02
      0.852  0.1028E+02  0.1594E+02
      0.924  0.3072E+01  0.1616E+02
      0.996 -0.4242E+00  0.1613E+02
      1.069 -0.9918E+00  0.1606E+02
      1.141 -0.5649E+00  0.1602E+02
      1.213 -0.1973E+00  0.1600E+02
      1.286 -0.4798E-01  0.1600E+02
      1.358 -0.8491E-02  0.1600E+02
      1.430 -0.1116E-02  0.1600E+02
      1.503 -0.1103E-03  0.1600E+02
      1.575 -0.8245E-05  0.1600E+02
      1.647 -0.4686E-06  0.1600E+02
      1.720 -0.2032E-07  0.1600E+02
      1.792 -0.6734E-09  0.1600E+02
      1.864 -0.1709E-10  0.1600E+02
      1.936 -0.3332E-12  0.1600E+02
      2.009 -0.4606E-14  0.1600E+02
      2.081  0.0000E+00  0.1600E+02
      2.153  0.0000E+00  0.1600E+02
      2.226  0.0000E+00  0.1600E+02
      2.298  0.0000E+00  0.1600E+02
      2.370  0.0000E+00  0.1600E+02
      2.443  0.0000E+00  0.1600E+02
      2.515  0.0000E+00  0.1600E+02
      2.587  0.0000E+00  0.1600E+02
      2.660  0.0000E+00  0.1600E+02
      2.732  0.0000E+00  0.1600E+02
      2.72955518    -18.85347180  301     -8.87972933      1.00000000
    -18.853  0.0000E+00  0.0000E+00
    -18.782  0.0000E+00  0.0000E+00
    -18.710  0.0000E+00  0.0000E+00
    -18.638  0.0000E+00  0.0000E+00
    -18.566  0.0000E+00  0.0000E+00
    -18.494 -0.3944E-27 -0.2837E-28
    -18.422 -0.1206E-24 -0.8704E-26
    -18.350 -0.2847E-22 -0.2057E-23
    -18.278 -0.5176E-20 -0.3745E-21
    -18.206 -0.7243E-18 -0.5249E-19
    -18.134 -0.7799E-16 -0.5663E-17
    -18.062 -0.6457E-14 -0.4702E-15
    -17.990 -0.3986E-12 -0.2915E-13
    -17.918 -0.1939E-10 -0.1424E-11
    -17.846 -0.7232E-09 -0.5345E-10
    -17.774 -0.2065E-07 -0.1539E-08
    -17.702 -0.4503E-06 -0.3394E-07
    -17.630 -0.7481E-05 -0.5722E-06
    -17.558 -0.9431E-04 -0.7357E-05
    -17.487 -0.8970E-03 -0.7189E-04
    -17.415 -0.6382E-02 -0.5310E-03
    -17.343 -0.3345E-01 -0.2938E-02
    -17.271 -0.1257E+00 -0.1198E-01
    -17.199 -0.3173E+00 -0.3481E-01
    -17.127 -0.4311E+00 -0.6583E-01
    -17.055  0.1963E+00 -0.5170E-01
    -16.983  0.2382E+01  0.1197E+00
    -16.911  0.5768E+01  0.5347E+00
    -16.839  0.8157E+01  0.1122E+01
    -16.767  0.7494E+01  0.1661E+01
    -16.695  0.4378E+01  0.1976E+01
    -16.623  0.1298E+01  0.2069E+01
    -16.551 -0.2050E+00  0.2054E+01
    -16.479 -0.4252E+00  0.2024E+01
    -16.407 -0.2314E+00  0.2007E+01
    -16.335 -0.7721E-01  0.2002E+01
    -16.264 -0.1790E-01  0.2000E+01
    -16.192 -0.3014E-02  0.2000E+01
    -16.120 -0.3767E-03  0.2000E+01
    -16.048 -0.3535E-04  0.2000E+01
    -15.976 -0.2509E-05  0.2000E+01
    -15.904 -0.1354E-06  0.2000E+01
    -15.832 -0.5571E-08  0.2000E+01
    -15.760 -0.1753E-09  0.2000E+01
    -15.688 -0.4221E-11  0.2000E+01
    -15.616 -0.8025E-13  0.2000E+01
    -15.544  0.0000E+00  0.2000E+01
    -15.472  0.0000E+00  0.2000E+01
    -15.400  0.0000E+00  0.2000E+01
    -15.328  0.0000E+00  0.2000E+01
    -15.256  0.0000E+00  0.2000E+01
    -15.184  0.0000E+00  0.2000E+01
    -15.112  0.0000E+00  0.2000E+01
    -15.040  0.0000E+00  0.2000E+01
    -14.969  0.0000E+00  0.2000E+01
    -14.897  0.0000E+00  0.2000E+01
    -14.825  0.0000E+00  0.2000E+01
    -14.753  0.0000E+00  0.2000E+01
    -14.681  0.0000E+00  0.2000E+01
    -14.609  0.0000E+00  0.2000E+01
    -14.537  0.0000E+00  0.2000E+01
    -14.465  0.0000E+00  0.2000E+01
    -14.393  0.0000E+00  0.2000E+01
    -14.321  0.0000E+00  0.2000E+01
    -14.249  0.0000E+00  0.2000E+01
    -14.177  0.0000E+00  0.2000E+01
    -14.105  0.0000E+00  0.2000E+01
    -14.033  0.0000E+00  0.2000E+01
    -13.961  0.0000E+00  0.2000E+01
    -13.889  0.0000E+00  0.2000E+01
    -13.817  0.0000E+00  0.2000E+01
    -13.745  0.0000E+00  0.2000E+01
    -13.674  0.0000E+00  0.2000E+01
    -13.602  0.0000E+00  0.2000E+01
    -13.530  0.0000E+00  0.2000E+01
    -13.458  0.0000E+00  0.2000E+01
    -13.386  0.0000E+00  0.2000E+01
    -13.314  0.0000E+00  0.2000E+01
    -13.242  0.0000E+00  0.2000E+01
    -13.170  0.0000E+00  0.2000E+01
    -13.098  0.0000E+00  0.2000E+01
    -13.026  0.0000E+00  0.2000E+01
    -12.954  0.0000E+00  0.2000E+01
    -12.882  0.0000E+00  0.2000E+01
    -12.810  0.0000E+00  0.2000E+01
    -12.738  0.0000E+00  0.2000E+01
    -12.666  0.0000E+00  0.2000E+01
    -12.594  0.0000E+00  0.2000E+01
    -12.522  0.0000E+00  0.2000E+01
    -12.451  0.0000E+00  0.2000E+01
    -12.379  0.0000E+00  0.2000E+01
    -12.307  0.0000E+00  0.2000E+01
    -12.235  0.0000E+00  0.2000E+01
    -12.163  0.0000E+00  0.2000E+01
    -12.091  0.0000E+00  0.2000E+01
    -12.019  0.0000E+00  0.2000E+01
    -11.947  0.0000E+00  0.2000E+01
    -11.875  0.0000E+00  0.2000E+01
    -11.803  0.0000E+00  0.2000E+01
    -11.731  0.0000E+00  0.2000E+01
    -11.659  0.0000E+00  0.2000E+01
    -11.587  0.0000E+00  0.2000E+01
    -11.515  0.0000E+00  0.2000E+01
    -11.443  0.0000E+00  0.2000E+01
    -11.371  0.0000E+00  0.2000E+01
    -11.299  0.0000E+00  0.2000E+01
    -11.227  0.0000E+00  0.2000E+01
    -11.156  0.0000E+00  0.2000E+01
    -11.084 -0.3854E-28  0.2000E+01
    -11.012 -0.1311E-25  0.2000E+01
    -10.940 -0.3433E-23  0.2000E+01
    -10.868 -0.6925E-21  0.2000E+01
    -10.796 -0.1076E-18  0.2000E+01
    -10.724 -0.1287E-16  0.2000E+01
    -10.652 -0.1185E-14  0.2000E+01
    -10.580 -0.8086E-13  0.2000E+01
    -10.508 -0.4422E-11  0.2000E+01
    -10.436 -0.1842E-09  0.2000E+01
    -10.364 -0.5890E-08  0.2000E+01
    -10.292 -0.1443E-06  0.2000E+01
    -10.220 -0.2703E-05  0.2000E+01
    -10.148 -0.3864E-04  0.2000E+01
    -10.076 -0.4199E-03  0.2000E+01
    -10.004 -0.3451E-02  0.2000E+01
     -9.932 -0.2125E-01  0.1998E+01
     -9.861 -0.9650E-01  0.1991E+01
     -9.789 -0.3124E+00  0.1969E+01
     -9.717 -0.6625E+00  0.1921E+01
     -9.645 -0.6302E+00  0.1876E+01
     -9.573  0.1113E+01  0.1956E+01
     -9.501  0.5693E+01  0.2365E+01
     -9.429  0.1177E+02  0.3212E+01
     -9.357  0.1529E+02  0.4312E+01
     -9.285  0.1359E+02  0.5289E+01
     -9.213  0.9057E+01  0.5941E+01
     -9.141  0.6424E+01  0.6403E+01
     -9.069  0.6917E+01  0.6901E+01
     -8.997  0.7513E+01  0.7441E+01
     -8.925  0.5755E+01  0.7855E+01
     -8.853  0.2628E+01  0.8044E+01
     -8.781  0.3417E+00  0.8069E+01
     -8.709 -0.4185E+00  0.8039E+01
     -8.638 -0.3459E+00  0.8014E+01
     -8.566 -0.1453E+00  0.8004E+01
     -8.494 -0.4049E-01  0.8001E+01
     -8.422 -0.8045E-02  0.8000E+01
     -8.350 -0.1175E-02  0.8000E+01
     -8.278 -0.1282E-03  0.8000E+01
     -8.206 -0.1054E-04  0.8000E+01
     -8.134 -0.6575E-06  0.8000E+01
     -8.062 -0.3122E-07  0.8000E+01
     -7.990 -0.1132E-08  0.8000E+01
     -7.918 -0.3141E-10  0.8000E+01
     -7.846 -0.6667E-12  0.8000E+01
     -7.774 -0.1235E-13  0.8000E+01
     -7.702  0.0000E+00  0.8000E+01
     -7.630  0.0000E+00  0.8000E+01
     -7.558  0.0000E+00  0.8000E+01
     -7.486  0.0000E+00  0.8000E+01
     -7.414  0.0000E+00  0.8000E+01
     -7.343  0.0000E+00  0.8000E+01
     -7.271  0.0000E+00  0.8000E+01
     -7.199  0.0000E+00  0.8000E+01
     -7.127  0.0000E+00  0.8000E+01
     -7.055  0.0000E+00  0.8000E+01
     -6.983  0.0000E+00  0.8000E+01
     -6.911  0.0000E+00  0.8000E+01
     -6.839  0.0000E+00  0.8000E+01
     -6.767  0.0000E+00  0.8000E+01
     -6.695  0.0000E+00  0.8000E+01
     -6.623  0.0000E+00  0.8000E+01
     -6.551  0.0000E+00  0.8000E+01
     -6.479  0.0000E+00  0.8000E+01
     -6.407  0.0000E+00  0.8000E+01
     -6.335  0.0000E+00  0.8000E+01
     -6.263  0.0000E+00  0.8000E+01
     -6.191  0.0000E+00  0.8000E+01
     -6.119  0.0000E+00  0.8000E+01
     -6.048  0.0000E+00  0.8000E+01
     -5.976  0.0000E+00  0.8000E+01
     -5.904  0.0000E+00  0.8000E+01
     -5.832  0.0000E+00  0.8000E+01
     -5.760  0.0000E+00  0.8000E+01
     -5.688  0.0000E+00  0.8000E+01
     -5.616  0.0000E+00  0.8000E+01
     -5.544  0.0000E+00  0.8000E+01
     -5.472  0.0000E+00  0.8000E+01
     -5.400  0.0000E+00  0.8000E+01
     -5.328  0.0000E+00  0.8000E+01
     -5.256  0.0000E+00  0.8000E+01
     -5.184  0.0000E+00  0.8000E+01
     -5.112  0.0000E+00  0.8000E+01
     -5.040  0.0000E+00  0.8000E+01
     -4.968  0.0000E+00  0.8000E+01
     -4.896  0.0000E+00  0.8000E+01
     -4.825  0.0000E+00  0.8000E+01
     -4.753  0.0000E+00  0.8000E+01
     -4.681  0.0000E+00  0.8000E+01
     -4.609  0.0000E+00  0.8000E+01
     -4.537  0.0000E+00  0.8000E+01
     -4.465  0.0000E+00  0.8000E+01
     -4.393  0.0000E+00  0.8000E+01
     -4.321  0.0000E+00  0.8000E+01
     -4.249  0.0000E+00  0.8000E+01
     -4.177  0.0000E+00  0.8000E+01
     -4.105  0.0000E+00  0.8000E+01
     -4.033  0.0000E+00  0.8000E+01
     -3.961  0.0000E+00  0.8000E+01
     -3.889  0.0000E+00  0.8000E+01
     -3.817  0.0000E+00  0.8000E+01
     -3.745  0.0000E+00  0.8000E+01
     -3.673  0.0000E+00  0.8000E+01
     -3.601  0.0000E+00  0.8000E+01
     -3.530  0.0000E+00  0.8000E+01
     -3.458  0.0000E+00  0.8000E+01
     -3.386  0.0000E+00  0.8000E+01
     -3.314  0.0000E+00  0.8000E+01
     -3.242  0.0000E+00  0.8000E+01
     -3.170  0.0000E+00  0.8000E+01
     -3.098  0.0000E+00  0.8000E+01
     -3.026  0.0000E+00  0.8000E+01
     -2.954  0.0000E+00  0.8000E+01
     -2.882  0.0000E+00  0.8000E+01
     -2.810  0.0000E+00  0.8000E+01
     -2.738  0.0000E+00  0.8000E+01
     -2.666  0.0000E+00  0.8000E+01
     -2.594  0.0000E+00  0.8000E+01
     -2.522  0.0000E+00  0.8000E+01
     -2.450  0.0000E+00  0.8000E+01
     -2.378  0.0000E+00  0.8000E+01
     -2.306  0.0000E+00  0.8000E+01
     -2.235  0.0000E+00  0.8000E+01
     -2.163  0.0000E+00  0.8000E+01
     -2.091  0.0000E+00  0.8000E+01
     -2.019  0.0000E+00  0.8000E+01
     -1.947 -0.9483E-27  0.8000E+01
     -1.875 -0.2785E-24  0.8000E+01
     -1.803 -0.6318E-22  0.8000E+01
     -1.731 -0.1103E-19  0.8000E+01
     -1.659 -0.1483E-17  0.8000E+01
     -1.587 -0.1534E-15  0.8000E+01
     -1.515 -0.1221E-13  0.8000E+01
     -1.443 -0.7228E-12  0.8000E+01
     -1.371 -0.3380E-10  0.8000E+01
     -1.299 -0.1211E-08  0.8000E+01
     -1.227 -0.3321E-07  0.8000E+01
     -1.155 -0.6953E-06  0.8000E+01
     -1.083 -0.1109E-04  0.8000E+01
     -1.012 -0.1340E-03  0.8000E+01
     -0.940 -0.1222E-02  0.8000E+01
     -0.868 -0.8313E-02  0.7999E+01
     -0.796 -0.4157E-01  0.7996E+01
     -0.724 -0.1480E+00  0.7986E+01
     -0.652 -0.3486E+00  0.7961E+01
     -0.580 -0.4073E+00  0.7931E+01
     -0.508  0.4084E+00  0.7961E+01
     -0.436  0.2840E+01  0.8165E+01
     -0.364  0.6247E+01  0.8614E+01
     -0.292  0.8270E+01  0.9209E+01
     -0.220  0.7137E+01  0.9723E+01
     -0.148  0.3865E+01  0.1000E+02
     -0.076  0.9700E+00  0.1007E+02
     -0.004 -0.2991E+00  0.1005E+02
      0.068 -0.4289E+00  0.1002E+02
      0.140 -0.3055E+00  0.9996E+01
      0.212 -0.3909E+00  0.9968E+01
      0.283 -0.7122E+00  0.9917E+01
      0.355 -0.7600E+00  0.9862E+01
      0.427  0.7563E+00  0.9917E+01
      0.499  0.5308E+01  0.1030E+02
      0.571  0.1268E+02  0.1121E+02
      0.643  0.1963E+02  0.1262E+02
      0.715  0.2155E+02  0.1417E+02
      0.787  0.1680E+02  0.1538E+02
      0.859  0.8692E+01  0.1601E+02
      0.931  0.2173E+01  0.1616E+02
      1.003 -0.6510E+00  0.1612E+02
      1.075 -0.9344E+00  0.1605E+02
      1.147 -0.4875E+00  0.1601E+02
      1.219 -0.1619E+00  0.1600E+02
      1.291 -0.3793E-01  0.1600E+02
      1.363 -0.6518E-02  0.1600E+02
      1.435 -0.8367E-03  0.1600E+02
      1.507 -0.8109E-04  0.1600E+02
      1.578 -0.5972E-05  0.1600E+02
      1.650 -0.3356E-06  0.1600E+02
      1.722 -0.1444E-07  0.1600E+02
      1.794 -0.4767E-09  0.1600E+02
      1.866 -0.1209E-10  0.1600E+02
      1.938 -0.2361E-12  0.1600E+02
      2.010 -0.1543E-14  0.1600E+02
      2.082  0.0000E+00  0.1600E+02
      2.154  0.0000E+00  0.1600E+02
      2.226  0.0000E+00  0.1600E+02
      2.298  0.0000E+00  0.1600E+02
      2.370  0.0000E+00  0.1600E+02
      2.442  0.0000E+00  0.1600E+02
      2.514  0.0000E+00  0.1600E+02
      2.586  0.0000E+00  0.1600E+02
      2.658  0.0000E+00  0.1600E+02
      2.730  0.0000E+00  0.1600E+02
      2.72245833    -18.75378556  301     -8.70432598      1.00000000
    -18.754  0.0000E+00  0.0000E+00
    -18.682  0.0000E+00  0.0000E+00
    -18.611  0.0000E+00  0.0000E+00
    -18.539  0.0000E+00  0.0000E+00
    -18.467  0.0000E+00  0.0000E+00
    -18.396 -0.3427E-27 -0.2454E-28
    -18.324 -0.1026E-24 -0.7369E-26
    -18.253 -0.2377E-22 -0.1709E-23
    -18.181 -0.4253E-20 -0.3062E-21
    -18.109 -0.5872E-18 -0.4234E-19
    -18.038 -0.6253E-16 -0.4519E-17
    -17.966 -0.5135E-14 -0.3721E-15
    -17.895 -0.3156E-12 -0.2297E-13
    -17.823 -0.1529E-10 -0.1117E-11
    -17.752 -0.5701E-09 -0.4193E-10
    -17.680 -0.1632E-07 -0.1210E-08
    -17.608 -0.3578E-06 -0.2682E-07
    -17.537 -0.5992E-05 -0.4558E-06
    -17.465 -0.7640E-04 -0.5925E-05
    -17.394 -0.7374E-03 -0.5871E-04
    -17.322 -0.5343E-02 -0.4412E-03
    -17.250 -0.2867E-01 -0.2494E-02
    -17.179 -0.1110E+00 -0.1044E-01
    -17.107 -0.2931E+00 -0.3142E-01
    -17.036 -0.4388E+00 -0.6283E-01
    -16.964  0.4825E-01 -0.5938E-01
    -16.893  0.2012E+01  0.8469E-01
    -16.821  0.5322E+01  0.4657E+00
    -16.749  0.7988E+01  0.1038E+01
    -16.678  0.7784E+01  0.1595E+01
    -16.606  0.4892E+01  0.1945E+01
    -16.535  0.1676E+01  0.2065E+01
    -16.463 -0.7784E-01  0.2059E+01
    -16.391 -0.4377E+00  0.2028E+01
    -16.320 -0.2663E+00  0.2009E+01
    -16.248 -0.9569E-01  0.2002E+01
    -16.177 -0.2368E-01  0.2000E+01
    -16.105 -0.4248E-02  0.2000E+01
    -16.033 -0.5654E-03  0.2000E+01
    -15.962 -0.5657E-04  0.2000E+01
    -15.890 -0.4289E-05  0.2000E+01
    -15.819 -0.2476E-06  0.2000E+01
    -15.747 -0.1093E-07  0.2000E+01
    -15.676 -0.3694E-09  0.2000E+01
    -15.604 -0.9592E-11  0.2000E+01
    -15.532 -0.1923E-12  0.2000E+01
    -15.461  0.0000E+00  0.2000E+01
    -15.389  0.0000E+00  0.2000E+01
    -15.318  0.0000E+00  0.2000E+01
    -15.246  0.0000E+00  0.2000E+01
    -15.174  0.0000E+00  0.2000E+01
    -15.103  0.0000E+00  0.2000E+01
    -15.031  0.0000E+00  0.2000E+01
    -14.960  0.0000E+00  0.2000E+01
    -14.888  0.0000E+00  0.2000E+01
    -14.816  0.0000E+00  0.2000E+01
    -14.745  0.0000E+00  0.2000E+01
    -14.673  0.0000E+00  0.2000E+01
    -14.602  0.0000E+00  0.2000E+01
    -14.530  0.0000E+00  0.2000E+01
    -14.459  0.0000E+00  0.2000E+01
    -14.387  0.0000E+00  0.2000E+01
    -14.315  0.0000E+00  0.2000E+01
    -14.244  0.0000E+00  0.2000E+01
    -14.172  0.0000E+00  0.2000E+01
    -14.101  0.0000E+00  0.2000E+01
    -14.029  0.0000E+00  0.2000E+01
    -13.957  0.0000E+00  0.2000E+01
    -13.886  0.0000E+00  0.2000E+01
    -13.814  0.0000E+00  0.2000E+01
    -13.743  0.0000E+00  0.2000E+01
    -13.671  0.0000E+00  0.2000E+01
    -13.599  0.0000E+00  0.2000E+01
    -13.528  0.0000E+00  0.2000E+01
    -13.456  0.0000E+00  0.2000E+01
    -13.385  0.0000E+00  0.2000E+01
    -13.313  0.0000E+00  0.2000E+01
    -13.242  0.0000E+00  0.2000E+01
    -13.170  0.0000E+00  0.2000E+01
    -13.098  0.0000E+00  0.2000E+01
    -13.027  0.0000E+00  0.2000E+01
    -12.955  0.0000E+00  0.2000E+01
    -12.884  0.0000E+00  0.2000E+01
    -12.812  0.0000E+00  0.2000E+01
    -12.740  0.0000E+00  0.2000E+01
    -12.669  0.0000E+00  0.2000E+01
    -12.597  0.0000E+00  0.2000E+01
    -12.526  0.0000E+00  0.2000E+01
    -12.454  0.0000E+00  0.2000E+01
    -12.382  0.0000E+00  0.2000E+01
    -12.311  0.0000E+00  0.2000E+01
    -12.239  0.0000E+00  0.2000E+01
    -12.168  0.0000E+00  0.2000E+01
    -12.096  0.0000E+00  0.2000E+01
    -12.025  0.0000E+00  0.2000E+01
    -11.953  0.0000E+00  0.2000E+01
    -11.881  0.0000E+00  0.2000E+01
    -11.810  0.0000E+00  0.2000E+01
    -11.738  0.0000E+00  0.2000E+01
    -11.667  0.0000E+00  0.2000E+01
    -11.595  0.0000E+00  0.2000E+01
    -11.523  0.0000E+00  0.2000E+01
    -11.452  0.0000E+00  0.2000E+01
    -11.380  0.0000E+00  0.2000E+01
    -11.309  0.0000E+00  0.2000E+01
    -11.237  0.0000E+00  0.2000E+01
    -11.166  0.0000E+00  0.2000E+01
    -11.094 -0.1140E-26  0.2000E+01
    -11.022 -0.3235E-24  0.2000E+01
    -10.951 -0.7105E-22  0.2000E+01
    -10.879 -0.1205E-19  0.2000E+01
    -10.808 -0.1576E-17  0.2000E+01
    -10.736 -0.1591E-15  0.2000E+01
    -10.664 -0.1238E-13  0.2000E+01
    -10.593 -0.7189E-12  0.2000E+01
    -10.521 -0.3304E-10  0.2000E+01
    -10.450 -0.1167E-08  0.2000E+01
    -10.378 -0.3162E-07  0.2000E+01
    -10.306 -0.6561E-06  0.2000E+01
    -10.235 -0.1040E-04  0.2000E+01
    -10.163 -0.1254E-03  0.2000E+01
    -10.092 -0.1144E-02  0.2000E+01
    -10.020 -0.7837E-02  0.1999E+01
     -9.949 -0.3977E-01  0.1997E+01
     -9.877 -0.1459E+00  0.1986E+01
     -9.805 -0.3668E+00  0.1960E+01
     -9.734 -0.5317E+00  0.1922E+01
     -9.662  0.1747E-01  0.1923E+01
     -9.591  0.2188E+01  0.2080E+01
     -9.519  0.6076E+01  0.2515E+01
     -9.447  0.1026E+02  0.3249E+01
     -9.376  0.1268E+02  0.4157E+01
     -9.304  0.1207E+02  0.5021E+01
     -9.233  0.8660E+01  0.5641E+01
     -9.161  0.4175E+01  0.5940E+01
     -9.089  0.1180E+01  0.6024E+01
     -9.018  0.1451E+01  0.6128E+01
     -8.946  0.4495E+01  0.6450E+01
     -8.875  0.7561E+01  0.6991E+01
     -8.803  0.7841E+01  0.7553E+01
     -8.732  0.5185E+01  0.7924E+01
     -8.660  0.1917E+01  0.8061E+01
     -8.588  0.1203E-01  0.8062E+01
     -8.517 -0.4394E+00  0.8030E+01
     -8.445 -0.2860E+00  0.8010E+01
     -8.374 -0.1068E+00  0.8002E+01
     -8.302 -0.2727E-01  0.8000E+01
     -8.230 -0.5030E-02  0.8000E+01
     -8.159 -0.6876E-03  0.8000E+01
     -8.087 -0.7058E-04  0.8000E+01
     -8.016 -0.5487E-05  0.8000E+01
     -7.944 -0.3247E-06  0.8000E+01
     -7.872 -0.1468E-07  0.8000E+01
     -7.801 -0.5084E-09  0.8000E+01
     -7.729 -0.1352E-10  0.8000E+01
     -7.658 -0.2730E-12  0.8000E+01
     -7.586 -0.6203E-14  0.8000E+01
     -7.515  0.0000E+00  0.8000E+01
     -7.443  0.0000E+00  0.8000E+01
     -7.371  0.0000E+00  0.8000E+01
     -7.300  0.0000E+00  0.8000E+01
     -7.228  0.0000E+00  0.8000E+01
     -7.157  0.0000E+00  0.8000E+01
     -7.085  0.0000E+00  0.8000E+01
     -7.013  0.0000E+00  0.8000E+01
     -6.942  0.0000E+00  0.8000E+01
     -6.870  0.0000E+00  0.8000E+01
     -6.799  0.0000E+00  0.8000E+01
     -6.727  0.0000E+00  0.8000E+01
     -6.656  0.0000E+00  0.8000E+01
     -6.584  0.0000E+00  0.8000E+01
     -6.512  0.0000E+00  0.8000E+01
     -6.441  0.0000E+00  0.8000E+01
     -6.369  0.0000E+00  0.8000E+01
     -6.298  0.0000E+00  0.8000E+01
     -6.226  0.0000E+00  0.8000E+01
     -6.154  0.0000E+00  0.8000E+01
     -6.083  0.0000E+00  0.8000E+01
     -6.011  0.0000E+00  0.8000E+01
     -5.940  0.0000E+00  0.8000E+01
     -5.868  0.0000E+00  0.8000E+01
     -5.796  0.0000E+00  0.8000E+01
     -5.725  0.0000E+00  0.8000E+01
     -5.653  0.0000E+00  0.8000E+01
     -5.582  0.0000E+00  0.8000E+01
     -5.510  0.0000E+00  0.8000E+01
     -5.439  0.0000E+00  0.8000E+01
     -5.367  0.0000E+00  0.8000E+01
     -5.295  0.0000E+00  0.8000E+01
     -5.224  0.0000E+00  0.8000E+01
     -5.152  0.0000E+00  0.8000E+01
     -5.081  0.0000E+00  0.8000E+01
     -5.009  0.0000E+00  0.8000E+01
     -4.937  0.0000E+00  0.8000E+01
     -4.866  0.0000E+00  0.8000E+01
     -4.794  0.0000E+00  0.8000E+01
     -4.723  0.0000E+00  0.8000E+01
     -4.651  0.0000E+00  0.8000E+01
     -4.579  0.0000E+00  0.8000E+01
     -4.508  0.0000E+00  0.8000E+01
     -4.436  0.0000E+00  0.8000E+01
     -4.365  0.0000E+00  0.8000E+01
     -4.293  0.0000E+00  0.8000E+01
     -4.222  0.0000E+00  0.8000E+01
     -4.150  0.0000E+00  0.8000E+01
     -4.078  0.0000E+00  0.8000E+01
     -4.007  0.0000E+00  0.8000E+01
     -3.935  0.0000E+00  0.8000E+01
     -3.864  0.0000E+00  0.8000E+01
     -3.792  0.0000E+00  0.8000E+01
     -3.720  0.0000E+00  0.8000E+01
     -3.649  0.0000E+00  0.8000E+01
     -3.577  0.0000E+00  0.8000E+01
     -3.506  0.0000E+00  0.8000E+01
     -3.434  0.0000E+00  0.8000E+01
     -3.362  0.0000E+00  0.8000E+01
     -3.291  0.0000E+00  0.8000E+01
     -3.219  0.0000E+00  0.8000E+01
     -3.148  0.0000E+00  0.8000E+01
     -3.076  0.0000E+00  0.8000E+01