    5    5    1    1
  0.1934148E+03  0.9729233E-09  0.1004192E-08  0.9901968E-09  0.2000000E-14
   50.000000000000000     
  CAR 
 unknown system                          
      8      4      8

  0.2500000E+00  0.2500000E+00  0.2500000E+00  0.2500000E+00
    1      -16.715385   1.000000
    2       -9.407533   1.000000
    3       -9.317506   1.000007
    4       -8.799871   0.999922
    5       -0.331313   0.000000
    6        0.566406   0.000000
    7        0.675547   0.000000
    8        0.722007   0.000000

 -0.2500000E+00  0.2500000E+00  0.2500000E+00  0.2500000E+00
    1      -16.715408   1.000000
    2       -9.407537   1.000000
    3       -9.317481   1.000007
    4       -8.800018   1.000083
    5       -0.336916   0.000000
    6        0.558958   0.000000
    7        0.700327   0.000000
    8        0.736957   0.000000

  0.2500000E+00 -0.2500000E+00  0.2500000E+00  0.2500000E+00
    1      -16.715371   1.000000
    2       -9.407576   1.000000
    3       -9.317468   1.000007
    4       -8.799923   0.999979
    5       -0.332530   0.000000
    6        0.562226   0.000000
    7        0.681884   0.000000
    8        0.717644   0.000000

 -0.2500000E+00 -0.2500000E+00  0.2500000E+00  0.2500000E+00
    1      -16.715423   1.000000
    2       -9.407615   1.000000
    3       -9.317455   1.000007
    4       -8.799931   0.999988
    5       -0.334119   0.000000
    6        0.581068   0.000000
    7        0.679729   0.000000
    8        0.708176   0.000000
