       N       E                     dE             d eps       ncg     rms          rms(c)
DAV:   1     0.144131886177E+02    0.14413E+02   -0.20387E+03    96   0.418E+02
DAV:   2    -0.231393143022E+02   -0.37553E+02   -0.37558E+02    64   0.115E+02
DAV:   3    -0.275951370559E+02   -0.44558E+01   -0.44665E+01    72   0.459E+01
DAV:   4    -0.277272224650E+02   -0.13209E+00   -0.13196E+00   128   0.849E+00
DAV:   5    -0.277272645615E+02   -0.42097E-04   -0.42098E-04    96   0.167E-01    0.895E+00
RMM:   6    -0.246867591223E+02    0.30405E+01   -0.56875E+00    64   0.147E+01    0.441E+00
RMM:   7    -0.241688212692E+02    0.51794E+00   -0.13411E+00    64   0.672E+00    0.236E+00
RMM:   8    -0.240357775629E+02    0.13304E+00   -0.14156E-01    64   0.262E+00    0.751E-01
RMM:   9    -0.240159340752E+02    0.19843E-01   -0.19249E-02    64   0.102E+00    0.384E-01
RMM:  10    -0.240137702673E+02    0.21638E-02   -0.63377E-03    64   0.469E-01    0.265E-01
RMM:  11    -0.240118081737E+02    0.19621E-02   -0.47356E-03    64   0.376E-01    0.121E-01
RMM:  12    -0.240089106514E+02    0.28975E-02   -0.15663E-03    64   0.278E-01    0.150E-01
RMM:  13    -0.240102227277E+02   -0.13121E-02   -0.29091E-04    64   0.121E-01    0.422E-02
RMM:  14    -0.240170305586E+02   -0.68078E-02   -0.12731E-03    64   0.202E-01    0.776E-02
RMM:  15    -0.240191982226E+02   -0.21677E-02   -0.39867E-04    64   0.117E-01    0.256E-02
RMM:  16    -0.240201218254E+02   -0.92360E-03   -0.10721E-04    64   0.550E-02    0.180E-02
RMM:  17    -0.240209419823E+02   -0.82016E-03   -0.12067E-04    64   0.575E-02    0.716E-03
RMM:  18    -0.240211144832E+02   -0.17250E-03   -0.14265E-05    64   0.208E-02    0.635E-03
RMM:  19    -0.240211415470E+02   -0.27064E-04   -0.20043E-06    51   0.784E-03    0.269E-03
RMM:  20    -0.240211561216E+02   -0.14575E-04   -0.24037E-06    57   0.952E-03    0.250E-03
RMM:  21    -0.240211581274E+02   -0.20058E-05   -0.45274E-07    48   0.445E-03    0.427E-04
RMM:  22    -0.240211591953E+02   -0.10679E-05   -0.20319E-07    48   0.330E-03    0.524E-04
RMM:  23    -0.240211597292E+02   -0.53389E-06   -0.63595E-08    44   0.191E-03
    1 T=    56. E= -.23992070E+02 F= -.24021160E+02 E0= -.24033717E+02  EK= 0.29089E-01 SP= 0.00E+00 SK= 0.13E-05
       N       E                     dE             d eps       ncg     rms          rms(c)
DAV:   1    -0.240285645976E+02   -0.74054E-02   -0.20354E+00    64   0.132E+01    0.669E-01
RMM:   2    -0.240391251429E+02   -0.10561E-01   -0.16337E-01    64   0.243E+00    0.659E-01
RMM:   3    -0.240424475642E+02   -0.33224E-02   -0.28324E-02    64   0.109E+00    0.752E-01
RMM:   4    -0.240321810402E+02    0.10267E-01   -0.10912E-02    64   0.631E-01    0.545E-01
RMM:   5    -0.240266804681E+02    0.55006E-02   -0.76504E-03    64   0.539E-01    0.391E-01
RMM:   6    -0.240242765525E+02    0.24039E-02   -0.34016E-03    64   0.365E-01    0.280E-01
RMM:   7    -0.240234353489E+02    0.84120E-03   -0.76770E-04    64   0.180E-01    0.231E-01
RMM:   8    -0.240231207764E+02    0.31457E-03   -0.38257E-04    64   0.127E-01    0.211E-01
RMM:   9    -0.240221594683E+02    0.96131E-03   -0.10250E-03    64   0.197E-01    0.144E-01
RMM:  10    -0.240218865935E+02    0.27287E-03   -0.20158E-04    64   0.947E-02    0.120E-01
RMM:  11    -0.240214716444E+02    0.41495E-03   -0.69622E-04    64   0.164E-01    0.682E-02
RMM:  12    -0.240213720060E+02    0.99638E-04   -0.20465E-04    64   0.928E-02    0.430E-02
RMM:  13    -0.240213736016E+02   -0.15956E-05   -0.11366E-04    64   0.664E-02    0.252E-02
RMM:  14    -0.240213741040E+02   -0.50241E-06   -0.34214E-05    64   0.390E-02    0.168E-02
RMM:  15    -0.240213759465E+02   -0.18425E-05   -0.18694E-05    64   0.288E-02    0.739E-03
RMM:  16    -0.240213786335E+02   -0.26870E-05   -0.10407E-05    64   0.204E-02    0.129E-03
RMM:  17    -0.240213818114E+02   -0.31779E-05   -0.10311E-06    48   0.833E-03    0.106E-03
RMM:  18    -0.240213831846E+02   -0.13732E-05   -0.30952E-07    48   0.475E-03    0.702E-04
RMM:  19    -0.240213833519E+02   -0.16725E-06   -0.88104E-08    48   0.251E-03
    2 T=    80. E= -.23979930E+02 F= -.24021383E+02 E0= -.24025948E+02  EK= 0.41316E-01 SP= 0.80E-04 SK= 0.58E-04
       N       E                     dE             d eps       ncg     rms          rms(c)
DAV:   1    -0.240047875975E+02    0.16596E-01   -0.14205E+00    64   0.119E+01    0.424E-01
RMM:   2    -0.240164804620E+02   -0.11693E-01   -0.89783E-02    64   0.206E+00    0.580E-01
RMM:   3    -0.240065073158E+02    0.99731E-02   -0.71421E-02    64   0.160E+00    0.308E-01
RMM:   4    -0.240071373327E+02   -0.63002E-03   -0.15384E-02    64   0.793E-01    0.322E-01
RMM:   5    -0.240049435385E+02    0.21938E-02   -0.57841E-03    64   0.466E-01    0.182E-01
RMM:   6    -0.240044544784E+02    0.48906E-03   -0.99002E-04    64   0.215E-01    0.114E-01
RMM:   7    -0.240040824405E+02    0.37204E-03   -0.12573E-03    64   0.227E-01    0.331E-02
RMM:   8    -0.240040961978E+02   -0.13757E-04   -0.16830E-04    64   0.853E-02    0.138E-02
RMM:   9    -0.240041176898E+02   -0.21492E-04   -0.89112E-05    64   0.621E-02    0.986E-03
RMM:  10    -0.240041240739E+02   -0.63841E-05   -0.51933E-06    64   0.177E-02    0.107E-02
RMM:  11    -0.240041272752E+02   -0.32013E-05   -0.50417E-06    60   0.140E-02    0.436E-03
RMM:  12    -0.240041287259E+02   -0.14506E-05   -0.13620E-06    48   0.784E-03    0.276E-03
RMM:  13    -0.240041298893E+02   -0.11634E-05   -0.27977E-06    60   0.108E-02    0.159E-03
RMM:  14    -0.240041304384E+02   -0.54908E-06   -0.30552E-07    48   0.423E-03
    3 T=    52. E= -.23976561E+02 F= -.24004130E+02 E0= -.24008021E+02  EK= 0.26853E-01 SP= 0.54E-03 SK= 0.18E-03
       N       E                     dE             d eps       ncg     rms          rms(c)
DAV:   1    -0.240118209237E+02   -0.76910E-02   -0.56403E-01    64   0.744E+00    0.415E-01
RMM:   2    -0.240478227419E+02   -0.36002E-01   -0.26992E-01    64   0.308E+00    0.106E+00
RMM:   3    -0.240238145127E+02    0.24008E-01   -0.20699E-02    64   0.939E-01    0.724E-01
RMM:   4    -0.240109747595E+02    0.12840E-01   -0.10213E-01    64   0.183E+00    0.191E-01
RMM:   5    -0.240109242949E+02    0.50465E-04   -0.23177E-03    64   0.379E-01    0.177E-01
RMM:   6    -0.240100991011E+02    0.82519E-03   -0.14034E-03    64   0.242E-01    0.858E-02
RMM:   7    -0.240099163805E+02    0.18272E-03   -0.85719E-04    64   0.184E-01    0.403E-02
RMM:   8    -0.240099177402E+02   -0.13597E-05   -0.27227E-04    64   0.100E-01    0.106E-02
RMM:   9    -0.240099552293E+02   -0.37489E-04   -0.53193E-05    64   0.497E-02    0.131E-02
RMM:  10    -0.240099708214E+02   -0.15592E-04   -0.25177E-05    64   0.313E-02    0.381E-03
RMM:  11    -0.240099793914E+02   -0.85700E-05   -0.22444E-06    52   0.111E-02    0.530E-03
RMM:  12    -0.240099843869E+02   -0.49955E-05   -0.21746E-06    49   0.921E-03    0.197E-03
RMM:  13    -0.240099864459E+02   -0.20591E-05   -0.14397E-06    48   0.868E-03    0.184E-03
RMM:  14    -0.240099872859E+02   -0.83992E-06   -0.31237E-07    48   0.423E-03
    4 T=    83. E= -.23965819E+02 F= -.24009987E+02 E0= -.24013904E+02  EK= 0.42762E-01 SP= 0.10E-02 SK= 0.38E-03
       N       E                     dE             d eps       ncg     rms          rms(c)
DAV:   1    -0.239433575815E+02    0.66629E-01   -0.35785E-01    64   0.616E+00    0.413E-01
RMM:   2    -0.239649598363E+02   -0.21602E-01   -0.94273E-02    64   0.208E+00    0.665E-01
RMM:   3    -0.239479149821E+02    0.17045E-01   -0.81301E-02    64   0.181E+00    0.474E-01
RMM:   4    -0.239452031139E+02    0.27119E-02   -0.78369E-03    64   0.585E-01    0.284E-01
RMM:   5    -0.239427477538E+02    0.24554E-02   -0.11406E-02    64   0.657E-01    0.157E-01
RMM:   6    -0.239425613174E+02    0.18644E-03   -0.38645E-03    64   0.373E-01    0.113E-01
RMM:   7    -0.239426003299E+02   -0.39013E-04   -0.35257E-04    64   0.129E-01    0.835E-02
RMM:   8    -0.239425581314E+02    0.42198E-04   -0.20714E-04    64   0.878E-02    0.563E-02
RMM:   9    -0.239427246398E+02   -0.16651E-03   -0.14266E-04    64   0.824E-02    0.190E-02
RMM:  10    -0.239428626862E+02   -0.13805E-03   -0.41790E-05    64   0.404E-02    0.237E-02
RMM:  11    -0.239429062581E+02   -0.43572E-04   -0.35274E-05    64   0.351E-02    0.123E-02
RMM:  12    -0.239429349111E+02   -0.28653E-04   -0.31249E-05    64   0.347E-02    0.141E-02
RMM:  13    -0.239429446692E+02   -0.97581E-05   -0.46613E-06    60   0.138E-02    0.396E-03
RMM:  14    -0.239429508254E+02   -0.61563E-05   -0.24672E-06    54   0.104E-02    0.432E-03
RMM:  15    -0.239429530552E+02   -0.22297E-05   -0.31729E-07    48   0.450E-03    0.121E-03
RMM:  16    -0.239429540111E+02   -0.95594E-06   -0.16828E-07    48   0.283E-03
    5 T=    63. E= -.23907504E+02 F= -.23942954E+02 E0= -.23951192E+02  EK= 0.32757E-01 SP= 0.19E-02 SK= 0.77E-03
       N       E                     dE             d eps       ncg     rms          rms(c)
DAV:   1    -0.239810586656E+02   -0.38106E-01   -0.16628E+00    64   0.126E+01    0.786E-01
RMM:   2    -0.239936722218E+02   -0.12614E-01   -0.11394E-01    64   0.255E+00    0.905E-01
RMM:   3    -0.239922598761E+02    0.14123E-02   -0.13993E-01    64   0.228E+00    0.857E-01
RMM:   4    -0.239761717662E+02    0.16088E-01   -0.37663E-02    64   0.116E+00    0.314E-01
RMM:   5    -0.239762702638E+02   -0.98498E-04   -0.32286E-03    64   0.416E-01    0.258E-01
RMM:   6    -0.239761661650E+02    0.10410E-03   -0.40390E-04    64   0.146E-01    0.228E-01
RMM:   7    -0.239761833372E+02   -0.17172E-04   -0.17418E-03    64   0.251E-01    0.185E-01
RMM:   8    -0.239758848097E+02    0.29853E-03   -0.51515E-04    64   0.141E-01    0.563E-02
RMM:   9    -0.239759832402E+02   -0.98430E-04   -0.21207E-04    64   0.904E-02    0.549E-02
RMM:  10    -0.239759558089E+02    0.27431E-04   -0.34982E-04    64   0.109E-01    0.695E-03
RMM:  11    -0.239759770368E+02   -0.21228E-04   -0.10489E-05    64   0.262E-02    0.940E-03
RMM:  12    -0.239759973457E+02   -0.20309E-04   -0.35523E-05    64   0.336E-02    0.109E-02
RMM:  13    -0.239759983556E+02   -0.10099E-05   -0.87170E-06    64   0.172E-02    0.174E-03
RMM:  14    -0.239760003701E+02   -0.20145E-05   -0.18572E-06    48   0.967E-03    0.176E-03
RMM:  15    -0.239760014226E+02   -0.10525E-05   -0.53928E-07    48   0.508E-03    0.948E-04
RMM:  16    -0.239760019588E+02   -0.53617E-06   -0.10028E-07    48   0.218E-03
    6 T=   143. E= -.23896968E+02 F= -.23976002E+02 E0= -.23984036E+02  EK= 0.73822E-01 SP= 0.30E-02 SK= 0.22E-02
       N       E                     dE             d eps       ncg     rms          rms(c)
DAV:   1    -0.239643594503E+02    0.11642E-01   -0.11136E+00    64   0.107E+01    0.696E-01
RMM:   2    -0.239587807308E+02    0.55787E-02   -0.73560E-02    64   0.196E+00    0.456E-01
RMM:   3    -0.239559414209E+02    0.28393E-02   -0.29246E-02    64   0.105E+00    0.404E-01
RMM:   4    -0.239567217002E+02   -0.78028E-03   -0.13238E-02    64   0.709E-01    0.345E-01
RMM:   5    -0.239555247299E+02    0.11970E-02   -0.10062E-03    64   0.228E-01    0.176E-01
RMM:   6    -0.239551636855E+02    0.36104E-03   -0.21659E-03    64   0.269E-01    0.130E-01
RMM:   7    -0.239551693598E+02   -0.56743E-05   -0.18741E-03    64   0.263E-01    0.717E-02
RMM:   8    -0.239551307673E+02    0.38593E-04   -0.10641E-04    64   0.737E-02    0.614E-02
RMM:   9    -0.239551899861E+02   -0.59219E-04   -0.40990E-04    64   0.118E-01    0.769E-02
RMM:  10    -0.239551386138E+02    0.51372E-04   -0.70075E-05    64   0.548E-02    0.552E-02
RMM:  11    -0.239551116854E+02    0.26928E-04   -0.68136E-05    64   0.517E-02    0.278E-02
RMM:  12    -0.239551217729E+02   -0.10088E-04   -0.49603E-05    64   0.441E-02    0.123E-02
RMM:  13    -0.239551413645E+02   -0.19592E-04   -0.19471E-05    64   0.289E-02    0.663E-03
RMM:  14    -0.239551475297E+02   -0.61651E-05   -0.11071E-05    64   0.216E-02    0.608E-03
RMM:  15    -0.239551508235E+02   -0.32938E-05   -0.22223E-06    52   0.103E-02    0.223E-03
RMM:  16    -0.239551519107E+02   -0.10873E-05   -0.86509E-07    48   0.732E-03    0.203E-03
RMM:  17    -0.239551527820E+02   -0.87123E-06   -0.45408E-07    48   0.533E-03
    7 T=    92. E= -.23897570E+02 F= -.23955153E+02 E0= -.23966952E+02  EK= 0.47324E-01 SP= 0.52E-02 SK= 0.50E-02
       N       E                     dE             d eps       ncg     rms          rms(c)
DAV:   1    -0.239685219212E+02   -0.13370E-01   -0.75214E-01    64   0.768E+00    0.829E-01
RMM:   2    -0.239792342229E+02   -0.10712E-01   -0.12399E-01    64   0.228E+00    0.708E-01
RMM:   3    -0.239653219648E+02    0.13912E-01   -0.14254E-01    64   0.223E+00    0.600E-01
RMM:   4    -0.239640132899E+02    0.13087E-02   -0.25996E-02    64   0.973E-01    0.715E-01
RMM:   5    -0.239577941346E+02    0.62192E-02   -0.24797E-02    64   0.978E-01    0.395E-01
RMM:   6    -0.239543714775E+02    0.34227E-02   -0.65390E-03    64   0.518E-01    0.152E-01
RMM:   7    -0.239542209749E+02    0.15050E-03   -0.65661E-04    64   0.187E-01    0.871E-02
RMM:   8    -0.239542311762E+02   -0.10201E-04   -0.73692E-04    64   0.165E-01    0.819E-02
RMM:   9    -0.239540689048E+02    0.16227E-03   -0.37339E-04    64   0.117E-01    0.318E-02
RMM:  10    -0.239541984019E+02   -0.12950E-03   -0.20067E-04    64   0.901E-02    0.767E-02
RMM:  11    -0.239541650716E+02    0.33330E-04   -0.11486E-04    64   0.695E-02    0.205E-02
RMM:  12    -0.239542123442E+02   -0.47273E-04   -0.32573E-05    64   0.358E-02    0.262E-02
RMM:  13    -0.239542128976E+02   -0.55342E-06   -0.14263E-05    64   0.239E-02    0.905E-03
RMM:  14    -0.239542175300E+02   -0.46323E-05   -0.55676E-06    64   0.150E-02    0.414E-03
RMM:  15    -0.239542199025E+02   -0.23725E-05   -0.95328E-07    48   0.713E-03    0.325E-03
RMM:  16    -0.239542209363E+02   -0.10338E-05   -0.95581E-07    48   0.711E-03    0.121E-03
RMM:  17    -0.239542214781E+02   -0.54185E-06   -0.38222E-07    48   0.487E-03
    8 T=    96. E= -.23889327E+02 F= -.23954221E+02 E0= -.23964122E+02  EK= 0.49392E-01 SP= 0.80E-02 SK= 0.75E-02
       N       E                     dE             d eps       ncg     rms          rms(c)
DAV:   1    -0.239700674578E+02   -0.15847E-01   -0.14241E+00    64   0.122E+01    0.646E-01
RMM:   2    -0.239851932947E+02   -0.15126E-01   -0.19697E-01    64   0.314E+00    0.114E+00
RMM:   3    -0.240223779293E+02   -0.37185E-01   -0.28724E-01    64   0.338E+00    0.119E+00
RMM:   4    -0.239680943741E+02    0.54284E-01   -0.85037E-02    64   0.183E+00    0.432E-01
RMM:   5    -0.239655301620E+02    0.25642E-02   -0.25404E-02    64   0.966E-01    0.169E-01
RMM:   6    -0.239670994639E+02   -0.15693E-02   -0.38404E-03    64   0.406E-01    0.210E-01
RMM:   7    -0.239679324894E+02   -0.83303E-03   -0.22223E-03    64   0.303E-01    0.225E-01
RMM:   8    -0.239668328284E+02    0.10997E-02   -0.13844E-03    64   0.242E-01    0.130E-01
RMM:   9    -0.239665429664E+02    0.28986E-03   -0.61926E-04    64   0.156E-01    0.812E-02
RMM:  10    -0.239664497730E+02    0.93193E-04   -0.13187E-04    64   0.804E-02    0.610E-02
RMM:  11    -0.239663653093E+02    0.84464E-04   -0.23688E-04    64   0.985E-02    0.361E-02
RMM:  12    -0.239663468552E+02    0.18454E-04   -0.87694E-05    64   0.613E-02    0.248E-02
RMM:  13    -0.239663422186E+02    0.46366E-05   -0.54752E-05    64   0.496E-02    0.138E-02
RMM:  14    -0.239663425555E+02   -0.33693E-06   -0.14063E-05    64   0.258E-02    0.115E-02
RMM:  15    -0.239663402324E+02    0.23231E-05   -0.12930E-05    64   0.230E-02    0.727E-03
RMM:  16    -0.239663390337E+02    0.11987E-05   -0.25566E-06    52   0.115E-02    0.614E-03
RMM:  17    -0.239663374360E+02    0.15977E-05   -0.56270E-06    64   0.162E-02    0.398E-03
RMM:  18    -0.239663375989E+02   -0.16289E-06   -0.18851E-06    52   0.945E-03
    9 T=   101. E= -.23892161E+02 F= -.23966338E+02 E0= -.23973563E+02  EK= 0.52011E-01 SP= 0.11E-01 SK= 0.11E-01
       N       E                     dE             d eps       ncg     rms          rms(c)
DAV:   1    -0.239758322578E+02   -0.94948E-02   -0.88437E-01    64   0.937E+00    0.462E-01
RMM:   2    -0.239734519703E+02    0.23803E-02   -0.44510E-02    64   0.159E+00    0.360E-01
RMM:   3    -0.239770308947E+02   -0.35789E-02   -0.12372E-02    64   0.751E-01    0.436E-01
RMM:   4    -0.239783304938E+02   -0.12996E-02   -0.22535E-02    64   0.955E-01    0.386E-01
RMM:   5    -0.239752694725E+02    0.30610E-02   -0.89254E-03    64   0.584E-01    0.210E-01
RMM:   6    -0.239744167472E+02    0.85273E-03   -0.41725E-03    64   0.393E-01    0.970E-02
RMM:   7    -0.239741218961E+02    0.29485E-03   -0.19745E-03    64   0.286E-01    0.432E-02
RMM:   8    -0.239743573332E+02   -0.23544E-03   -0.22154E-04    64   0.102E-01    0.426E-02
RMM:   9    -0.239743623828E+02   -0.50496E-05   -0.18326E-04    64   0.861E-02    0.184E-02
RMM:  10    -0.239743709683E+02   -0.85856E-05   -0.17510E-05    64   0.279E-02    0.132E-02
RMM:  11    -0.239743778444E+02   -0.68761E-05   -0.11157E-05    64   0.223E-02    0.478E-03
RMM:  12    -0.239743854273E+02   -0.75829E-05   -0.98008E-06    64   0.207E-02    0.399E-03
RMM:  13    -0.239743890234E+02   -0.35960E-05   -0.72566E-07    48   0.657E-03    0.212E-03
RMM:  14    -0.239743900975E+02   -0.10741E-05   -0.75004E-07    48   0.623E-03    0.600E-04
RMM:  15    -0.239743907582E+02   -0.66068E-06   -0.15936E-07    48   0.339E-03
   10 T=   152. E= -.23862700E+02 F= -.23974391E+02 E0= -.23979584E+02  EK= 0.78818E-01 SP= 0.15E-01 SK= 0.17E-01
