 vasp.5.4.4.18Apr17-6-g9f103f2a35 (build Jul 12 2018 13:43:46) complex           
 executed on             LinuxGNU date 2019.06.22  02:17:35
 running on    1 total cores
 distrk:  each k-point on    1 cores,    1 groups
 distr:  one band on NCORES_PER_BAND=   1 cores,    1 groups


--------------------------------------------------------------------------------------------------------


 INCAR:
 POTCAR:    PAW_PBE H 15Jun2001                   
 POTCAR:    PAW_PBE C 08Apr2002                   
 POTCAR:    PAW_PBE H 15Jun2001                   
   VRHFIN =H: ultrasoft test                                                    
   LEXCH  = PE                                                                  
   EATOM  =    12.4884 eV,    0.9179 Ry                                         
                                                                                
   TITEL  = PAW_PBE H 15Jun2001                                                 
   LULTRA =        F    use ultrasoft PP ?                                      
   IUNSCR =        0    unscreen: 0-lin 1-nonlin 2-no                           
   RPACOR =    0.000    partial core radius                                     
   POMASS =    1.000; ZVAL   =    1.000    mass and valenz                      
   RCORE  =    1.100    outmost cutoff radius                                   
   RWIGS  =    0.700; RWIGS  =    0.370    wigner-seitz radius (au A)           
   ENMAX  =  250.000; ENMIN  =  200.000 eV                                      
   RCLOC  =    0.701    cutoff for local pot                                    
   LCOR   =        T    correct aug charges                                     
   LPAW   =        T    paw PP                                                  
   EAUG   =  400.000                                                            
   RMAX   =    1.123    core radius for proj-oper                               
   RAUG   =    1.200    factor for augmentation sphere                          
   RDEP   =    1.112    radius for radial grids                                 
   RDEPT  =    0.926    core radius for aug-charge                              
                                                                                
   Atomic configuration                                                         
    2 entries                                                                   
     n  l   j            E        occ.                                          
     1  0  0.50        -6.4927   1.0000                                         
     2  1  0.50        -3.4015   0.0000                                         
   Description                                                                  
     l       E           TYP  RCUT    TYP  RCUT                                 
     0     -6.4927494     23  1.100                                             
     0      6.8029130     23  1.100                                             
     1     -4.0817478     23  1.100                                             
  local pseudopotential read in
  atomic valenz-charges read in
  non local Contribution for L=           0  read in
    real space projection operators read in
  non local Contribution for L=           0  read in
    real space projection operators read in
  non local Contribution for L=           1  read in
    real space projection operators read in
    PAW grid and wavefunctions read in

   number of l-projection  operators is LMAX  =           3
   number of lm-projection operators is LMMAX =           5

 POTCAR:    PAW_PBE C 08Apr2002                   
   VRHFIN =C: s2p2                                                              
   LEXCH  = PE                                                                  
   EATOM  =   147.1560 eV,   10.8157 Ry                                         
                                                                                
   TITEL  = PAW_PBE C 08Apr2002                                                 
   LULTRA =        F    use ultrasoft PP ?                                      
   IUNSCR =        1    unscreen: 0-lin 1-nonlin 2-no                           
   RPACOR =    1.200    partial core radius                                     
   POMASS =   12.011; ZVAL   =    4.000    mass and valenz                      
   RCORE  =    1.500    outmost cutoff radius                                   
   RWIGS  =    1.630; RWIGS  =    0.863    wigner-seitz radius (au A)           
   ENMAX  =  400.000; ENMIN  =  300.000 eV                                      
   ICORE  =        2    local potential                                         
   LCOR   =        T    correct aug charges                                     
   LPAW   =        T    paw PP                                                  
   EAUG   =  644.873                                                            
   DEXC   =    0.000                                                            
   RMAX   =    1.529    core radius for proj-oper                               
   RAUG   =    1.300    factor for augmentation sphere                          
   RDEP   =    1.501    radius for radial grids                                 
   RDEPT  =    1.300    core radius for aug-charge                              
                                                                                
   Atomic configuration                                                         
    4 entries                                                                   
     n  l   j            E        occ.                                          
     1  0  0.50      -273.3789   2.0000                                         
     2  0  0.50       -13.7508   2.0000                                         
     2  1  0.50        -5.2854   2.0000                                         
     3  2  1.50        -5.4423   0.0000                                         
   Description                                                                  
     l       E           TYP  RCUT    TYP  RCUT                                 
     0    -13.7508458     23  1.200                                             
     0     -8.2022199     23  1.200                                             
     1     -5.2854383     23  1.500                                             
     1     34.0145650     23  1.500                                             
     2     -5.4423304      7  1.500                                             
  local pseudopotential read in
  partial core-charges read in
  partial kinetic energy density read in
  atomic valenz-charges read in
  non local Contribution for L=           0  read in
    real space projection operators read in
  non local Contribution for L=           0  read in
    real space projection operators read in
  non local Contribution for L=           1  read in
    real space projection operators read in
  non local Contribution for L=           1  read in
    real space projection operators read in
    PAW grid and wavefunctions read in

   number of l-projection  operators is LMAX  =           4
   number of lm-projection operators is LMMAX =           8


 ----------------------------------------------------------------------------- 
|                                                                             |
|  ADVICE TO THIS USER RUNNING 'VASP/VAMP'   (HEAR YOUR MASTER'S VOICE ...):  |
|                                                                             |
|      You have a (more or less) 'small supercell' and for smaller cells      |
|      it is recommended  to use the reciprocal-space projection scheme!      |
|      The real space optimization is not  efficient for small cells and it   |
|      is also less accurate ...                                              |
|      Therefore set LREAL=.FALSE. in the  INCAR file                         |
|                                                                             |
 ----------------------------------------------------------------------------- 


 ----------------------------------------------------------------------------- 
|                                                                             |
|           W    W    AA    RRRRR   N    N  II  N    N   GGGG   !!!           |
|           W    W   A  A   R    R  NN   N  II  NN   N  G    G  !!!           |
|           W    W  A    A  R    R  N N  N  II  N N  N  G       !!!           |
|           W WW W  AAAAAA  RRRRR   N  N N  II  N  N N  G  GGG   !            |
|           WW  WW  A    A  R   R   N   NN  II  N   NN  G    G                |
|           W    W  A    A  R    R  N    N  II  N    N   GGGG   !!!           |
|                                                                             |
|     The real-space-projection scheme for the treatment of the nonlocal      |
|     pseudopotentials has been switched on -- but on file POTCAR I have      |
|     not found any entries signalling me that you have ever performed a      |
|     real-space optimization of all nonlocal projectors! BE WARNED that      |
|     a calculation using the real-space-projection scheme together with      |
|     nonlocal projectors which were not real-space-optimized (according      |
|     to the plane-wave-cutoff used in this calculation) might give more      |
|     or less inaccurate results                                              |
|     I hope you know what you are doing                                      |
|                                                                             |
 ----------------------------------------------------------------------------- 

  PAW_PBE H 15Jun2001                   :
 energy of atom  1       EATOM=  -12.4884
 kinetic energy error for atom=    0.0098 (will be added to EATOM!!)
  PAW_PBE C 08Apr2002                   :
 energy of atom  2       EATOM= -147.1560
 kinetic energy error for atom=    0.0288 (will be added to EATOM!!)


 POSCAR:  H  C                                   
  positions in cartesian coordinates
  No initial velocities read in
 exchange correlation table for  LEXCH =        8
   RHO(1)=    0.500       N(1)  =     2000
   RHO(2)=  100.500       N(2)  =     4000



--------------------------------------------------------------------------------------------------------


 ion  position               nearest neighbor table
   1  0.538  0.407  0.360-   5 1.10
   2  0.395  0.480  0.438-   5 1.07
   3  0.552  0.565  0.443-   5 1.09
   4  0.528  0.416  0.539-   5 1.08
   5  0.503  0.467  0.445-   2 1.07   4 1.08   3 1.09   1 1.10


IMPORTANT INFORMATION: All symmetrisations will be switched off!
NOSYMM: (Re-)initialisation of all symmetry stuff for point group C_1.




Automatic generation of k-mesh.
 generate k-points for:    2    2    2
Space group operators:
 irot       det(A)        alpha          n_x          n_y          n_z        tau_x        tau_y        tau_z
    1     1.000000     0.000000     1.000000     0.000000     0.000000     0.000000     0.000000     0.000000
 
 Subroutine IBZKPT returns following result:
 ===========================================
 
 Found      4 irreducible k-points:
 
 Following reciprocal coordinates:
            Coordinates               Weight
  0.250000  0.250000  0.250000      2.000000
 -0.250000  0.250000  0.250000      2.000000
  0.250000 -0.250000  0.250000      2.000000
 -0.250000 -0.250000  0.250000      2.000000
 
 Following cartesian coordinates:
            Coordinates               Weight
  0.025696  0.025318  0.025474      2.000000
 -0.025696  0.024480  0.024519      2.000000
  0.025696 -0.024480  0.025988      2.000000
 -0.025696 -0.025318  0.025033      2.000000
 


--------------------------------------------------------------------------------------------------------




 Dimension of arrays:
   k-points           NKPTS =      4   k-points in BZ     NKDIM =      4   number of bands    NBANDS=      8
   number of dos      NEDOS =    301   number of ions     NIONS =      5
   non local maximal  LDIM  =      4   non local SUM 2l+1 LMDIM =      8
   total plane-waves  NPLWV = 313600
   max r-space proj   IRMAX =    769   max aug-charges    IRDMAX=   4026
   dimension x,y,z NGX =    64 NGY =   70 NGZ =   70
   dimension x,y,z NGXF=   128 NGYF=  140 NGZF=  140
   support grid    NGXF=   128 NGYF=  140 NGZF=  140
   ions per type =               4   1
   NGX,Y,Z   is equivalent  to a cutoff of  10.94, 11.59, 11.75 a.u.
   NGXF,Y,Z  is equivalent  to a cutoff of  21.87, 23.18, 23.50 a.u.

 SYSTEM =  unknown system                          
 POSCAR =   H  C                                   

 Startparameter for this run:
   NWRITE =      2    write-flag & timer
   PREC   = a         normal or accurate (medium, high low for compatibility)
   ISTART =      0    job   : 0-new  1-cont  2-samecut
   ICHARG =      2    charge: 1-file 2-atom 10-const
   ISPIN  =      1    spin polarized calculation?
   LNONCOLLINEAR =      F non collinear calculations
   LSORBIT =      F    spin-orbit coupling
   INIWAV =      1    electr: 0-lowe 1-rand  2-diag
   LASPH  =      F    aspherical Exc in radial PAW
   METAGGA=      F    non-selfconsistent MetaGGA calc.

 Electronic Relaxation 1
   ENCUT  =  400.0 eV  29.40 Ry    5.42 a.u.  15.87 16.38 16.15*2*pi/ulx,y,z
   ENINI  =  400.0     initial cutoff
   ENAUG  =  644.9 eV  augmentation charge cutoff
   NELM   =     60;   NELMIN=  2; NELMDL= -5     # of ELM steps 
   EDIFF  = 0.1E-05   stopping-criterion for ELM
   LREAL  =      T    real-space projection
   NLSPLINE    = F    spline interpolate recip. space projectors
   LCOMPAT=      F    compatible to vasp.4.4
   GGA_COMPAT  = T    GGA compatible to vasp.4.4-vasp.4.6
   LMAXPAW     = -100 max onsite density
   LMAXMIX     =    2 max onsite mixed and CHGCAR
   VOSKOWN=      0    Vosko Wilk Nusair interpolation
   ROPT   =    0.00000   0.00000
 Ionic relaxation
   EDIFFG = 0.1E-04   stopping-criterion for IOM
   NSW    =     10    number of steps for IOM
   NBLOCK =      1;   KBLOCK =      1    inner block; outer block 
   IBRION =      0    ionic relax: 0-MD 1-quasi-New 2-CG
   NFREE  =      0    steps in history (QN), initial steepest desc. (CG)
   ISIF   =      2    stress and relaxation
   IWAVPR =     12    prediction:  0-non 1-charg 2-wave 3-comb
   ISYM   =      0    0-nonsym 1-usesym 2-fastsym
   LCORR  =      T    Harris-Foulkes like correction to forces

   POTIM  = 2.0000    time-step for ionic-motion
   TEIN   =   50.0    initial temperature
   TEBEG  =   50.0;   TEEND  =  50.0 temperature during run
   SMASS  =   0.00    Nose mass-parameter (am)
   estimated Nose-frequenzy (Omega)   =  0.79E+14 period in steps = 40.00 mass=   0.123E-29a.u.
   SCALEE = 1.0000    scale energy and forces
   NPACO  =    256;   APACO  = 16.0  distance and # of slots for P.C.
   PSTRESS=    0.0 pullay stress

  Mass of Ions in am
   POMASS =   1.00 12.01
  Ionic Valenz
   ZVAL   =   1.00  4.00
  Atomic Wigner-Seitz radii
   RWIGS  =  -1.00 -1.00
  virtual crystal weights 
   VCA    =   1.00  1.00
   NELECT =       8.0000    total number of electrons
   NUPDOWN=      -1.0000    fix difference up-down

 DOS related values:
   EMIN   =  10.00;   EMAX   =-10.00  energy-range for DOS
   EFERMI =   0.00
   ISMEAR =     1;   SIGMA  =   0.20  broadening in eV -4-tet -1-fermi 0-gaus

 Electronic relaxation 2 (details)
   IALGO  =     68    algorithm
   LDIAG  =      T    sub-space diagonalisation (order eigenvalues)
   LSUBROT=      F    optimize rotation matrix (better conditioning)
   TURBO    =      0    0=normal 1=particle mesh
   IRESTART =      0    0=no restart 2=restart with 2 vectors
   NREBOOT  =      0    no. of reboots
   NMIN     =      0    reboot dimension
   EREF     =   0.00    reference energy to select bands
   IMIX   =      4    mixing-type and parameters
     AMIX     =   0.40;   BMIX     =  1.00
     AMIX_MAG =   1.60;   BMIX_MAG =  1.00
     AMIN     =   0.10
     WC   =   100.;   INIMIX=   1;  MIXPRE=   1;  MAXMIX=  50

 Intra band minimization:
   WEIMIN = 0.0010     energy-eigenvalue tresh-hold
   EBREAK =  0.31E-07  absolut break condition
   DEPER  =   0.30     relativ break condition  

   TIME   =   0.40     timestep for ELM

  volume/ion in A,a.u.               =     193.41      1305.23
  Fermi-wavevector in a.u.,A,eV,Ry     =   0.331094  0.625677  1.491516  0.109623
  Thomas-Fermi vector in A             =   1.226958

 Write flags
   LWAVE        =      F    write WAVECAR
   LDOWNSAMPLE  =      F    k-point downsampling of WAVECAR
   LCHARG       =      F    write CHGCAR
   LVTOT        =      F    write LOCPOT, total local potential
   LVHAR        =      F    write LOCPOT, Hartree potential only
   LELF         =      F    write electronic localiz. function (ELF)
   LORBIT       =      0    0 simple, 1 ext, 2 COOP (PROOUT), +10 PAW based schemes


 Dipole corrections
   LMONO  =      F    monopole corrections only (constant potential shift)
   LDIPOL =      F    correct potential (dipole corrections)
   IDIPOL =      0    1-x, 2-y, 3-z, 4-all directions 
   EPSILON=  1.0000000 bulk dielectric constant

 Exchange correlation treatment:
   GGA     =    --    GGA type
   LEXCH   =     8    internal setting for exchange type
   VOSKOWN=      0    Vosko Wilk Nusair interpolation
   LHFCALC =     F    Hartree Fock is set to
   LHFONE  =     F    Hartree Fock one center treatment
   AEXX    =    0.0000 exact exchange contribution

 Linear response parameters
   LEPSILON=     F    determine dielectric tensor
   LRPA    =     F    only Hartree local field effects (RPA)
   LNABLA  =     F    use nabla operator in PAW spheres
   LVEL    =     F    velocity operator in full k-point grid
   LINTERFAST=   F  fast interpolation
   KINTER  =     0    interpolate to denser k-point grid
   CSHIFT  =0.1000    complex shift for real part using Kramers Kronig
   OMEGAMAX=  -1.0    maximum frequency
   DEG_THRESHOLD= 0.2000000E-02 threshold for treating states as degnerate
   RTIME   =   -0.100 relaxation time in fs
  (WPLASMAI=    0.000 imaginary part of plasma frequency in eV, 0.658/RTIME)
   DFIELD  = 0.0000000 0.0000000 0.0000000 field for delta impulse in time

 Orbital magnetization related:
   ORBITALMAG=     F  switch on orbital magnetization
   LCHIMAG   =     F  perturbation theory with respect to B field
   DQ        =  0.001000  dq finite difference perturbation B field
   LLRAUG    =     F  two centre corrections for induced B field



--------------------------------------------------------------------------------------------------------


 molecular dynamics for ions
   using nose mass (canonical ensemble)
 charge density and potential will be updated during run
 non-spin polarized calculation
 RMM-DIIS sequential band-by-band and
  variant of blocked Davidson during initial phase
 perform sub-space diagonalisation
    before iterative eigenvector-optimisation
 modified Broyden-mixing scheme, WC =      100.0
 initial mixing is a Kerker type mixing with AMIX =  0.4000 and BMIX =      1.0000
 Hartree-type preconditioning will be used
 using additional bands            4
 real space projection scheme for non local part
 use partial core corrections
 calculate Harris-corrections to forces   (improved forces if not selfconsistent)
 use gradient corrections 
 use of overlap-Matrix (Vanderbilt PP)
 Methfessel and Paxton  Order N= 1 SIGMA  =   0.20


--------------------------------------------------------------------------------------------------------


  energy-cutoff  :      400.00
  volume of cell :      967.07
      direct lattice vectors                 reciprocal lattice vectors
     9.729232559  0.000000000  0.000000000     0.102783030  0.001676598  0.001910579
    -0.163782186 10.040589082  0.000000000     0.000000000  0.099595750 -0.001027855
    -0.185686768  0.102167582  9.899699419     0.000000000 -0.000000000  0.101013168

  length of vectors
     9.729232559 10.041924801  9.901967803     0.102814457  0.099601054  0.101013168



 k-points in units of 2pi/SCALE and weight: read from INCAR                         
   0.02569576  0.02531809  0.02547397       0.250
  -0.02569576  0.02447979  0.02451868       0.250
   0.02569576 -0.02447979  0.02598790       0.250
  -0.02569576 -0.02531809  0.02503261       0.250

 k-points in reciprocal lattice and weights: read from INCAR                         
   0.25000000  0.25000000  0.25000000       0.250
  -0.25000000  0.25000000  0.25000000       0.250
   0.25000000 -0.25000000  0.25000000       0.250
  -0.25000000 -0.25000000  0.25000000       0.250

 position of ions in fractional coordinates (direct lattice) 
   0.53835588  0.40680146  0.36041895
   0.39456425  0.48037069  0.43847758
   0.55221016  0.56548168  0.44265397
   0.52816326  0.41645026  0.53922301
   0.50342114  0.46685603  0.44518332

 position of ions in cartesian coordinates  (Angst):
   5.10423770  4.12134946  3.56803924
   3.67871168  4.86800289  4.34079628
   5.19777030  5.72299411  4.38214123
   4.97028951  4.23649705  5.33814569
   4.73877399  4.73299284  4.40718103



--------------------------------------------------------------------------------------------------------


 k-point  1 :   0.2500 0.2500 0.2500  plane waves:   17554
 k-point  2 :  -0.2500 0.2500 0.2500  plane waves:   17579
 k-point  3 :   0.2500-0.2500 0.2500  plane waves:   17554
 k-point  4 :  -0.2500-0.2500 0.2500  plane waves:   17574

 maximum and minimum number of plane-waves per node :     17579    17554

 maximum number of plane-waves:     17579
 maximum index in each direction: 
   IXMAX=   16   IYMAX=   16   IZMAX=   15
   IXMIN=  -16   IYMIN=  -16   IZMIN=  -16


 serial   3D FFT for wavefunctions
 parallel 3D FFT for charge:
    minimum data exchange during FFTs selected (reduces bandwidth)


 total amount of memory used by VASP MPI-rank0   280314. kBytes
=======================================================================

   base      :      30000. kBytes
   nonlr-proj:        159. kBytes
   fftplans  :      86584. kBytes
   grid      :     154542. kBytes
   one-center:         15. kBytes
   wavefun   :       9014. kBytes

     INWAV:  cpu time    0.0000: real time    0.0000
 Broyden mixing: mesh for mixing (old mesh)
   NGX = 31   NGY = 33   NGZ = 33
  (NGX  =128   NGY  =140   NGZ  =140)
  gives a total of  33759 points

 initial charge density was supplied:
 charge density of overlapping atoms calculated
 number of electron       8.0000000 magnetization 
 keeping initial charge density in first step


--------------------------------------------------------------------------------------------------------


 Maximum index for non-local projection operator          696
 Maximum index for augmentation-charges         3716 (set IRDMAX)


--------------------------------------------------------------------------------------------------------


 First call to EWALD:  gamma=   0.179
 Maximum number of real-space cells 3x 3x 3
 Maximum number of reciprocal cells 3x 3x 3

    FEWALD:  cpu time    0.0007: real time    0.0007


--------------------------------------- Iteration      1(   1)  ---------------------------------------


    POTLOK:  cpu time    1.6587: real time    1.6629
    SETDIJ:  cpu time    0.0065: real time    0.0065
     EDDAV:  cpu time    2.4257: real time    2.4314
       DOS:  cpu time    0.0003: real time    0.0003
    --------------------------------------------
      LOOP:  cpu time    4.0912: real time    4.1011

 eigenvalue-minimisations  :    96
 total energy-change (2. order) : 0.1441319E+02  (-0.2038689E+03)
 number of electron       8.0000000 magnetization 
 augmentation part        8.0000000 magnetization 

 Free energy of the ion-electron system (eV)
  ---------------------------------------------------
  alpha Z        PSCENC =         0.25049867
  Ewald energy   TEWEN  =       129.94629031
  -Hartree energ DENC   =      -243.97510165
  -exchange      EXHF   =         0.00000000
  -V(xc)+E(xc)   XCENC  =        22.07224072
  PAW double counting   =       117.05815612     -117.66307307
  entropy T*S    EENTRO =         0.00289895
  eigenvalues    EBANDS =       -90.32047597
  atomic energy  EATOM  =       197.04175453
  Solvation  Ediel_sol  =         0.00000000
  ---------------------------------------------------
  free energy    TOTEN  =        14.41318862 eV

  energy without entropy =       14.41028966  energy(sigma->0) =       14.41222230


--------------------------------------------------------------------------------------------------------




--------------------------------------- Iteration      1(   2)  ---------------------------------------


     EDDAV:  cpu time    1.7117: real time    1.7159
       DOS:  cpu time    0.0002: real time    0.0002
    --------------------------------------------
      LOOP:  cpu time    1.7119: real time    1.7162

 eigenvalue-minimisations  :    64
 total energy-change (2. order) :-0.3755250E+02  (-0.3755770E+02)
 number of electron       8.0000000 magnetization 
 augmentation part        8.0000000 magnetization 

 Free energy of the ion-electron system (eV)
  ---------------------------------------------------
  alpha Z        PSCENC =         0.25049867
  Ewald energy   TEWEN  =       129.94629031
  -Hartree energ DENC   =      -243.97510165
  -exchange      EXHF   =         0.00000000
  -V(xc)+E(xc)   XCENC  =        22.07224072
  PAW double counting   =       117.05815612     -117.66307307
  entropy T*S    EENTRO =         0.00926343
  eigenvalues    EBANDS =      -127.87934337
  atomic energy  EATOM  =       197.04175453
  Solvation  Ediel_sol  =         0.00000000
  ---------------------------------------------------
  free energy    TOTEN  =       -23.13931430 eV

  energy without entropy =      -23.14857773  energy(sigma->0) =      -23.14240211


--------------------------------------------------------------------------------------------------------




--------------------------------------- Iteration      1(   3)  ---------------------------------------


     EDDAV:  cpu time    1.9045: real time    1.9090
       DOS:  cpu time    0.0002: real time    0.0002
    --------------------------------------------
      LOOP:  cpu time    1.9047: real time    1.9092

 eigenvalue-minimisations  :    72
 total energy-change (2. order) :-0.4455823E+01  (-0.4466516E+01)
 number of electron       8.0000000 magnetization 
 augmentation part        8.0000000 magnetization 

 Free energy of the ion-electron system (eV)
  ---------------------------------------------------
  alpha Z        PSCENC =         0.25049867
  Ewald energy   TEWEN  =       129.94629031
  -Hartree energ DENC   =      -243.97510165
  -exchange      EXHF   =         0.00000000
  -V(xc)+E(xc)   XCENC  =        22.07224072
  PAW double counting   =       117.05815612     -117.66307307
  entropy T*S    EENTRO =         0.03334183
  eigenvalues    EBANDS =      -132.35924452
  atomic energy  EATOM  =       197.04175453
  Solvation  Ediel_sol  =         0.00000000
  ---------------------------------------------------
  free energy    TOTEN  =       -27.59513706 eV

  energy without entropy =      -27.62847888  energy(sigma->0) =      -27.60625100


--------------------------------------------------------------------------------------------------------




--------------------------------------- Iteration      1(   4)  ---------------------------------------


     EDDAV:  cpu time    3.0807: real time    3.0880
       DOS:  cpu time    0.0002: real time    0.0002
    --------------------------------------------
      LOOP:  cpu time    3.0809: real time    3.0882

 eigenvalue-minimisations  :   128
 total energy-change (2. order) :-0.1320854E+00  (-0.1319612E+00)
 number of electron       8.0000000 magnetization 
 augmentation part        8.0000000 magnetization 

 Free energy of the ion-electron system (eV)
  ---------------------------------------------------
  alpha Z        PSCENC =         0.25049867
  Ewald energy   TEWEN  =       129.94629031
  -Hartree energ DENC   =      -243.97510165
  -exchange      EXHF   =         0.00000000
  -V(xc)+E(xc)   XCENC  =        22.07224072
  PAW double counting   =       117.05815612     -117.66307307
  entropy T*S    EENTRO =         0.03302165
  eigenvalues    EBANDS =      -132.49100975
  atomic energy  EATOM  =       197.04175453
  Solvation  Ediel_sol  =         0.00000000
  ---------------------------------------------------
  free energy    TOTEN  =       -27.72722246 eV

  energy without entropy =      -27.76024411  energy(sigma->0) =      -27.73822968


--------------------------------------------------------------------------------------------------------




--------------------------------------- Iteration      1(   5)  ---------------------------------------


     EDDAV:  cpu time    2.3966: real time    2.4023
       DOS:  cpu time    0.0002: real time    0.0002
    CHARGE:  cpu time    0.1542: real time    0.1545
    MIXING:  cpu time    0.0369: real time    0.0370
    --------------------------------------------
      LOOP:  cpu time    2.5879: real time    2.5940

 eigenvalue-minimisations  :    96
 total energy-change (2. order) :-0.4209657E-04  (-0.4209786E-04)
 number of electron       8.0000001 magnetization 
 augmentation part        0.2304155 magnetization 

 Broyden mixing:
  rms(total) = 0.89516E+00    rms(broyden)= 0.89491E+00
  rms(prec ) = 0.12705E+01
  weight for this iteration     100.00

 Free energy of the ion-electron system (eV)
  ---------------------------------------------------
  alpha Z        PSCENC =         0.25049867
  Ewald energy   TEWEN  =       129.94629031
  -Hartree energ DENC   =      -243.97510165
  -exchange      EXHF   =         0.00000000
  -V(xc)+E(xc)   XCENC  =        22.07224072
  PAW double counting   =       117.05815612     -117.66307307
  entropy T*S    EENTRO =         0.03302148
  eigenvalues    EBANDS =      -132.49105167
  atomic energy  EATOM  =       197.04175453
  Solvation  Ediel_sol  =         0.00000000
  ---------------------------------------------------
  free energy    TOTEN  =       -27.72726456 eV

  energy without entropy =      -27.76028604  energy(sigma->0) =      -27.73827172


--------------------------------------------------------------------------------------------------------




--------------------------------------- Iteration      1(   6)  ---------------------------------------


    POTLOK:  cpu time    1.6547: real time    1.6586
    SETDIJ:  cpu time    0.0064: real time    0.0064
    EDDIAG:  cpu time    0.3756: real time    0.3765
  RMM-DIIS:  cpu time    1.2166: real time    1.2195
    ORTHCH:  cpu time    0.0107: real time    0.0107
       DOS:  cpu time    0.0002: real time    0.0002
    CHARGE:  cpu time    0.1428: real time    0.1432
    MIXING:  cpu time    0.0381: real time    0.0382
    --------------------------------------------
      LOOP:  cpu time    3.4452: real time    3.4534

 eigenvalue-minimisations  :    64
 total energy-change (2. order) : 0.3040505E+01  (-0.5687482E+00)
 number of electron       8.0000001 magnetization 
 augmentation part        0.2031068 magnetization 

 Broyden mixing:
  rms(total) = 0.44133E+00    rms(broyden)= 0.44123E+00
  rms(prec ) = 0.57399E+00
  weight for this iteration     100.00

 eigenvalues of (default mixing * dielectric matrix)
  average eigenvalue GAMMA=   1.3102
  1.3102

 Free energy of the ion-electron system (eV)
  ---------------------------------------------------
  alpha Z        PSCENC =         0.25049867
  Ewald energy   TEWEN  =       129.94629031
  -Hartree energ DENC   =      -264.18534226
  -exchange      EXHF   =         0.00000000
  -V(xc)+E(xc)   XCENC  =        23.29923260
  PAW double counting   =       244.47734727     -245.26410266
  entropy T*S    EENTRO =         0.03608129
  eigenvalues    EBANDS =      -110.28851887
  atomic energy  EATOM  =       197.04175453
  Solvation  Ediel_sol  =         0.00000000
  ---------------------------------------------------
  free energy    TOTEN  =       -24.68675912 eV

  energy without entropy =      -24.72284041  energy(sigma->0) =      -24.69878622


--------------------------------------------------------------------------------------------------------




--------------------------------------- Iteration      1(   7)  ---------------------------------------


    POTLOK:  cpu time    1.6549: real time    1.6588
    SETDIJ:  cpu time    0.0063: real time    0.0063
    EDDIAG:  cpu time    0.3937: real time    0.3946
  RMM-DIIS:  cpu time    1.2293: real time    1.2322
    ORTHCH:  cpu time    0.0106: real time    0.0106
       DOS:  cpu time    0.0002: real time    0.0002
    CHARGE:  cpu time    0.1489: real time    0.1493
    MIXING:  cpu time    0.0385: real time    0.0386
    --------------------------------------------
      LOOP:  cpu time    3.4824: real time    3.4906

 eigenvalue-minimisations  :    64
 total energy-change (2. order) : 0.5179379E+00  (-0.1341109E+00)
 number of electron       8.0000001 magnetization 
 augmentation part        0.1921204 magnetization 

 Broyden mixing:
  rms(total) = 0.23638E+00    rms(broyden)= 0.23632E+00
  rms(prec ) = 0.28558E+00
  weight for this iteration     100.00

 eigenvalues of (default mixing * dielectric matrix)
  average eigenvalue GAMMA=   1.7407
  1.4892  1.9921

 Free energy of the ion-electron system (eV)
  ---------------------------------------------------
  alpha Z        PSCENC =         0.25049867
  Ewald energy   TEWEN  =       129.94629031
  -Hartree energ DENC   =      -276.30092215
  -exchange      EXHF   =         0.00000000
  -V(xc)+E(xc)   XCENC  =        24.18475893
  PAW double counting   =       380.81552767     -381.64589310
  entropy T*S    EENTRO =         0.03726031
  eigenvalues    EBANDS =       -98.49809644
  atomic energy  EATOM  =       197.04175453
  Solvation  Ediel_sol  =         0.00000000
  ---------------------------------------------------
  free energy    TOTEN  =       -24.16882127 eV

  energy without entropy =      -24.20608158  energy(sigma->0) =      -24.18124137


--------------------------------------------------------------------------------------------------------




--------------------------------------- Iteration      1(   8)  ---------------------------------------


    POTLOK:  cpu time    1.6396: real time    1.6435
    SETDIJ:  cpu time    0.0064: real time    0.0064
    EDDIAG:  cpu time    0.3763: real time    0.3772
  RMM-DIIS:  cpu time    1.2105: real time    1.2134
    ORTHCH:  cpu time    0.0106: real time    0.0106
       DOS:  cpu time    0.0002: real time    0.0002
    CHARGE:  cpu time    0.1485: real time    0.1488
    MIXING:  cpu time    0.0390: real time    0.0391
    --------------------------------------------
      LOOP:  cpu time    3.4312: real time    3.4393

 eigenvalue-minimisations  :    64
 total energy-change (2. order) : 0.1330437E+00  (-0.1415596E-01)
 number of electron       8.0000001 magnetization 
 augmentation part        0.1906875 magnetization 

 Broyden mixing:
  rms(total) = 0.75147E-01    rms(broyden)= 0.75047E-01
  rms(prec ) = 0.10995E+00
  weight for this iteration     100.00

 eigenvalues of (default mixing * dielectric matrix)
  average eigenvalue GAMMA=   1.4372
  2.2412  1.4606  0.6097

 Free energy of the ion-electron system (eV)
  ---------------------------------------------------
  alpha Z        PSCENC =         0.25049867
  Ewald energy   TEWEN  =       129.94629031
  -Hartree energ DENC   =      -281.16101515
  -exchange      EXHF   =         0.00000000
  -V(xc)+E(xc)   XCENC  =        24.66317554
  PAW double counting   =       484.52646344     -485.32861904
  entropy T*S    EENTRO =         0.03671100
  eigenvalues    EBANDS =       -94.01103686
  atomic energy  EATOM  =       197.04175453
  Solvation  Ediel_sol  =         0.00000000
  ---------------------------------------------------
  free energy    TOTEN  =       -24.03577756 eV

  energy without entropy =      -24.07248856  energy(sigma->0) =      -24.04801456


--------------------------------------------------------------------------------------------------------




--------------------------------------- Iteration      1(   9)  ---------------------------------------


    POTLOK:  cpu time    1.6492: real time    1.6531
    SETDIJ:  cpu time    0.0066: real time    0.0066
    EDDIAG:  cpu time    0.3811: real time    0.3820
  RMM-DIIS:  cpu time    1.2162: real time    1.2191
    ORTHCH:  cpu time    0.0106: real time    0.0106
       DOS:  cpu time    0.0002: real time    0.0002
    CHARGE:  cpu time    0.1573: real time    0.1577
    MIXING:  cpu time    0.0405: real time    0.0406
    --------------------------------------------
      LOOP:  cpu time    3.4616: real time    3.4698

 eigenvalue-minimisations  :    64
 total energy-change (2. order) : 0.1984349E-01  (-0.1924852E-02)
 number of electron       8.0000001 magnetization 
 augmentation part        0.1903044 magnetization 

 Broyden mixing:
  rms(total) = 0.38445E-01    rms(broyden)= 0.38433E-01
  rms(prec ) = 0.62702E-01
  weight for this iteration     100.00

 eigenvalues of (default mixing * dielectric matrix)
  average eigenvalue GAMMA=   1.2801
  2.1847  1.4469  0.7443  0.7443

 Free energy of the ion-electron system (eV)
  ---------------------------------------------------
  alpha Z        PSCENC =         0.25049867
  Ewald energy   TEWEN  =       129.94629031
  -Hartree energ DENC   =      -282.43685361
  -exchange      EXHF   =         0.00000000
  -V(xc)+E(xc)   XCENC  =        24.76404652
  PAW double counting   =       501.17880412     -501.97807615
  entropy T*S    EENTRO =         0.03836556
  eigenvalues    EBANDS =       -92.82076403
  atomic energy  EATOM  =       197.04175453
  Solvation  Ediel_sol  =         0.00000000
  ---------------------------------------------------
  free energy    TOTEN  =       -24.01593408 eV

  energy without entropy =      -24.05429963  energy(sigma->0) =      -24.02872259


--------------------------------------------------------------------------------------------------------




--------------------------------------- Iteration      1(  10)  ---------------------------------------


    POTLOK:  cpu time    1.6416: real time    1.6455
    SETDIJ:  cpu time    0.0062: real time    0.0062
    EDDIAG:  cpu time    0.3841: real time    0.3850
  RMM-DIIS:  cpu time    1.2336: real time    1.2366
    ORTHCH:  cpu time    0.0112: real time    0.0112
       DOS:  cpu time    0.0002: real time    0.0002
    CHARGE:  cpu time    0.1628: real time    0.1632
    MIXING:  cpu time    0.0404: real time    0.0405
    --------------------------------------------
      LOOP:  cpu time    3.4802: real time    3.4884

 eigenvalue-minimisations  :    64
 total energy-change (2. order) : 0.2163808E-02  (-0.6337740E-03)
 number of electron       8.0000001 magnetization 
 augmentation part        0.1898704 magnetization 

 Broyden mixing:
  rms(total) = 0.26482E-01    rms(broyden)= 0.26367E-01
  rms(prec ) = 0.45991E-01
  weight for this iteration     100.00

 eigenvalues of (default mixing * dielectric matrix)
  average eigenvalue GAMMA=   1.2927
  1.9523  1.7643  1.2570  0.7450  0.7450

 Free energy of the ion-electron system (eV)
  ---------------------------------------------------
  alpha Z        PSCENC =         0.25049867
  Ewald energy   TEWEN  =       129.94629031
  -Hartree energ DENC   =      -283.18749727
  -exchange      EXHF   =         0.00000000
  -V(xc)+E(xc)   XCENC  =        24.79296949
  PAW double counting   =       498.19500709     -498.99677012
  entropy T*S    EENTRO =         0.03771708
  eigenvalues    EBANDS =       -92.09374005
  atomic energy  EATOM  =       197.04175453
  Solvation  Ediel_sol  =         0.00000000
  ---------------------------------------------------
  free energy    TOTEN  =       -24.01377027 eV

  energy without entropy =      -24.05148735  energy(sigma->0) =      -24.02634263


--------------------------------------------------------------------------------------------------------




--------------------------------------- Iteration      1(  11)  ---------------------------------------


    POTLOK:  cpu time    1.6334: real time    1.6374
    SETDIJ:  cpu time    0.0064: real time    0.0064
    EDDIAG:  cpu time    0.3724: real time    0.3733
  RMM-DIIS:  cpu time    1.2419: real time    1.2448
    ORTHCH:  cpu time    0.0109: real time    0.0109
       DOS:  cpu time    0.0002: real time    0.0002
    CHARGE:  cpu time    0.1552: real time    0.1556
    MIXING:  cpu time    0.0400: real time    0.0401
    --------------------------------------------
      LOOP:  cpu time    3.4604: real time    3.4687

 eigenvalue-minimisations  :    64
 total energy-change (2. order) : 0.1962094E-02  (-0.4735634E-03)
 number of electron       8.0000001 magnetization 
 augmentation part        0.1893529 magnetization 

 Broyden mixing:
  rms(total) = 0.12130E-01    rms(broyden)= 0.12099E-01
  rms(prec ) = 0.24633E-01
  weight for this iteration     100.00

 eigenvalues of (default mixing * dielectric matrix)
  average eigenvalue GAMMA=   1.4922
  2.6066  2.6066  1.1878  1.1878  0.6823  0.6823

 Free energy of the ion-electron system (eV)
  ---------------------------------------------------
  alpha Z        PSCENC =         0.25049867
  Ewald energy   TEWEN  =       129.94629031
  -Hartree energ DENC   =      -284.37786797
  -exchange      EXHF   =         0.00000000
  -V(xc)+E(xc)   XCENC  =        24.84277180
  PAW double counting   =       495.04106041     -495.84305679
  entropy T*S    EENTRO =         0.03767452
  eigenvalues    EBANDS =       -90.95093366
  atomic energy  EATOM  =       197.04175453
  Solvation  Ediel_sol  =         0.00000000
  ---------------------------------------------------
  free energy    TOTEN  =       -24.01180817 eV

  energy without entropy =      -24.04948269  energy(sigma->0) =      -24.02436635


--------------------------------------------------------------------------------------------------------




--------------------------------------- Iteration      1(  12)  ---------------------------------------


    POTLOK:  cpu time    1.5525: real time    1.5562
    SETDIJ:  cpu time    0.0064: real time    0.0064
    EDDIAG:  cpu time    0.3672: real time    0.3680
  RMM-DIIS:  cpu time    1.2327: real time    1.2357
    ORTHCH:  cpu time    0.0109: real time    0.0110
       DOS:  cpu time    0.0002: real time    0.0002
    CHARGE:  cpu time    0.1513: real time    0.1517
    MIXING:  cpu time    0.0409: real time    0.0410
    --------------------------------------------
      LOOP:  cpu time    3.3622: real time    3.3701

 eigenvalue-minimisations  :    64
 total energy-change (2. order) : 0.2897522E-02  (-0.1566341E-03)
 number of electron       8.0000001 magnetization 
 augmentation part        0.1893407 magnetization 

 Broyden mixing:
  rms(total) = 0.15027E-01    rms(broyden)= 0.15006E-01
  rms(prec ) = 0.22489E-01
  weight for this iteration     100.00

 eigenvalues of (default mixing * dielectric matrix)
  average eigenvalue GAMMA=   1.4368
  3.1239  2.4429  1.1576  1.1576  0.6920  0.6920  0.7914

 Free energy of the ion-electron system (eV)
  ---------------------------------------------------
  alpha Z        PSCENC =         0.25049867
  Ewald energy   TEWEN  =       129.94629031
  -Hartree energ DENC   =      -285.01078884
  -exchange      EXHF   =         0.00000000
  -V(xc)+E(xc)   XCENC  =        24.86521559
  PAW double counting   =       491.36065927     -492.15972231
  entropy T*S    EENTRO =         0.03764646
  eigenvalues    EBANDS =       -90.34046433
  atomic energy  EATOM  =       197.04175453
  Solvation  Ediel_sol  =         0.00000000
  ---------------------------------------------------
  free energy    TOTEN  =       -24.00891065 eV

  energy without entropy =      -24.04655711  energy(sigma->0) =      -24.02145947


--------------------------------------------------------------------------------------------------------




--------------------------------------- Iteration      1(  13)  ---------------------------------------


    POTLOK:  cpu time    1.5296: real time    1.5332
    SETDIJ:  cpu time    0.0064: real time    0.0064
    EDDIAG:  cpu time    0.3582: real time    0.3591
  RMM-DIIS:  cpu time    1.2109: real time    1.2138
    ORTHCH:  cpu time    0.0109: real time    0.0109
       DOS:  cpu time    0.0002: real time    0.0002
    CHARGE:  cpu time    0.1576: real time    0.1580
    MIXING:  cpu time    0.0430: real time    0.0431
    --------------------------------------------
      LOOP:  cpu time    3.3169: real time    3.3247

 eigenvalue-minimisations  :    64
 total energy-change (2. order) :-0.1312076E-02  (-0.2909071E-04)
 number of electron       8.0000001 magnetization 
 augmentation part        0.1893073 magnetization 

 Broyden mixing:
  rms(total) = 0.42248E-02    rms(broyden)= 0.42013E-02
  rms(prec ) = 0.98878E-02
  weight for this iteration     100.00

 eigenvalues of (default mixing * dielectric matrix)
  average eigenvalue GAMMA=   1.6627
  3.9796  2.4271  2.4271  1.2759  0.6840  0.6840  0.9497  0.8745

 Free energy of the ion-electron system (eV)
  ---------------------------------------------------
  alpha Z        PSCENC =         0.25049867
  Ewald energy   TEWEN  =       129.94629031
  -Hartree energ DENC   =      -285.27576885
  -exchange      EXHF   =         0.00000000
  -V(xc)+E(xc)   XCENC  =        24.87728741
  PAW double counting   =       492.10150203     -492.89995941
  entropy T*S    EENTRO =         0.03767318
  eigenvalues    EBANDS =       -90.08950061
  atomic energy  EATOM  =       197.04175453
  Solvation  Ediel_sol  =         0.00000000
  ---------------------------------------------------
  free energy    TOTEN  =       -24.01022273 eV

  energy without entropy =      -24.04789591  energy(sigma->0) =      -24.02278045


--------------------------------------------------------------------------------------------------------




--------------------------------------- Iteration      1(  14)  ---------------------------------------


    POTLOK:  cpu time    1.4515: real time    1.4550
    SETDIJ:  cpu time    0.0063: real time    0.0063
    EDDIAG:  cpu time    0.3511: real time    0.3519
  RMM-DIIS:  cpu time    1.2003: real time    1.2031
    ORTHCH:  cpu time    0.0109: real time    0.0109
       DOS:  cpu time    0.0002: real time    0.0002
    CHARGE:  cpu time    0.1472: real time    0.1475
    MIXING:  cpu time    0.0421: real time    0.0422
    --------------------------------------------
      LOOP:  cpu time    3.2096: real time    3.2171

 eigenvalue-minimisations  :    64
 total energy-change (2. order) :-0.6807831E-02  (-0.1273088E-03)
 number of electron       8.0000001 magnetization 
 augmentation part        0.1892701 magnetization 

 Broyden mixing:
  rms(total) = 0.77614E-02    rms(broyden)= 0.77449E-02
  rms(prec ) = 0.10896E-01
  weight for this iteration     100.00

 eigenvalues of (default mixing * dielectric matrix)
  average eigenvalue GAMMA=   1.7379
  4.6723  2.8846  2.1162  1.4372  1.3234  0.9274  0.9274  0.6761  0.6761

 Free energy of the ion-electron system (eV)
  ---------------------------------------------------
  alpha Z        PSCENC =         0.25049867
  Ewald energy   TEWEN  =       129.94629031
  -Hartree energ DENC   =      -285.53060509
  -exchange      EXHF   =         0.00000000
  -V(xc)+E(xc)   XCENC  =        24.87850004
  PAW double counting   =       491.33357766     -492.13213887
  entropy T*S    EENTRO =         0.03780308
  eigenvalues    EBANDS =       -89.84271088
  atomic energy  EATOM  =       197.04175453
  Solvation  Ediel_sol  =         0.00000000
  ---------------------------------------------------
  free energy    TOTEN  =       -24.01703056 eV

  energy without entropy =      -24.05483364  energy(sigma->0) =      -24.02963158


--------------------------------------------------------------------------------------------------------




--------------------------------------- Iteration      1(  15)  ---------------------------------------


    POTLOK:  cpu time    1.6468: real time    1.6591
    SETDIJ:  cpu time    0.0058: real time    0.0058
    EDDIAG:  cpu time    0.3250: real time    0.3258
  RMM-DIIS:  cpu time    1.2709: real time    1.2740
    ORTHCH:  cpu time    0.0109: real time    0.0109
       DOS:  cpu time    0.0002: real time    0.0002
    CHARGE:  cpu time    0.1808: real time    0.1812
    MIXING:  cpu time    0.0436: real time    0.0437
    --------------------------------------------
      LOOP:  cpu time    3.4839: real time    3.5007

 eigenvalue-minimisations  :    64
 total energy-change (2. order) :-0.2167664E-02  (-0.3986684E-04)
 number of electron       8.0000001 magnetization 
 augmentation part        0.1892411 magnetization 

 Broyden mixing:
  rms(total) = 0.25593E-02    rms(broyden)= 0.25351E-02
  rms(prec ) = 0.38889E-02
  weight for this iteration     100.00

 eigenvalues of (default mixing * dielectric matrix)
  average eigenvalue GAMMA=   1.8114
  5.4254  3.0301  2.3722  1.3837  1.3837  1.2760  0.6758  0.6758  0.9454  0.9454

 Free energy of the ion-electron system (eV)
  ---------------------------------------------------
  alpha Z        PSCENC =         0.25049867
  Ewald energy   TEWEN  =       129.94629031
  -Hartree energ DENC   =      -285.48386226
  -exchange      EXHF   =         0.00000000
  -V(xc)+E(xc)   XCENC  =        24.86954410
  PAW double counting   =       490.39847791     -491.19742495
  entropy T*S    EENTRO =         0.03764134
  eigenvalues    EBANDS =       -89.88211788
  atomic energy  EATOM  =       197.04175453
  Solvation  Ediel_sol  =         0.00000000
  ---------------------------------------------------
  free energy    TOTEN  =       -24.01919822 eV

  energy without entropy =      -24.05683956  energy(sigma->0) =      -24.03174534


--------------------------------------------------------------------------------------------------------




--------------------------------------- Iteration      1(  16)  ---------------------------------------


    POTLOK:  cpu time    1.5154: real time    1.5190
    SETDIJ:  cpu time    0.0064: real time    0.0064
    EDDIAG:  cpu time    0.3661: real time    0.3669
  RMM-DIIS:  cpu time    1.2424: real time    1.2453
    ORTHCH:  cpu time    0.0109: real time    0.0109
       DOS:  cpu time    0.0002: real time    0.0002
    CHARGE:  cpu time    0.1536: real time    0.1540
    MIXING:  cpu time    0.0460: real time    0.0461
    --------------------------------------------
      LOOP:  cpu time    3.3410: real time    3.3489

 eigenvalue-minimisations  :    64
 total energy-change (2. order) :-0.9236028E-03  (-0.1072142E-04)
 number of electron       8.0000001 magnetization 
 augmentation part        0.1892242 magnetization 

 Broyden mixing:
  rms(total) = 0.17973E-02    rms(broyden)= 0.17947E-02
  rms(prec ) = 0.27310E-02
  weight for this iteration     100.00

 eigenvalues of (default mixing * dielectric matrix)
  average eigenvalue GAMMA=   2.0051
  6.6068  4.0147  2.4115  2.4115  0.6754  0.6754  1.2376  1.2376  0.9636  0.9636
  0.8585

 Free energy of the ion-electron system (eV)
  ---------------------------------------------------
  alpha Z        PSCENC =         0.25049867
  Ewald energy   TEWEN  =       129.94629031
  -Hartree energ DENC   =      -285.52176548
  -exchange      EXHF   =         0.00000000
  -V(xc)+E(xc)   XCENC  =        24.87101282
  PAW double counting   =       491.29712238     -492.09575868
  entropy T*S    EENTRO =         0.03769155
  eigenvalues    EBANDS =       -89.84696793
  atomic energy  EATOM  =       197.04175453
  Solvation  Ediel_sol  =         0.00000000
  ---------------------------------------------------
  free energy    TOTEN  =       -24.02012183 eV

  energy without entropy =      -24.05781338  energy(sigma->0) =      -24.03268568


--------------------------------------------------------------------------------------------------------




--------------------------------------- Iteration      1(  17)  ---------------------------------------


    POTLOK:  cpu time    1.4073: real time    1.4106
    SETDIJ:  cpu time    0.0064: real time    0.0064
    EDDIAG:  cpu time    0.4570: real time    0.4581
  RMM-DIIS:  cpu time    1.2278: real time    1.2307
    ORTHCH:  cpu time    0.0109: real time    0.0110
       DOS:  cpu time    0.0003: real time    0.0003
    CHARGE:  cpu time    0.1568: real time    0.1572
    MIXING:  cpu time    0.0474: real time    0.0475
    --------------------------------------------
      LOOP:  cpu time    3.3139: real time    3.3217

 eigenvalue-minimisations  :    64
 total energy-change (2. order) :-0.8201569E-03  (-0.1206678E-04)
 number of electron       8.0000001 magnetization 
 augmentation part        0.1892263 magnetization 

 Broyden mixing:
  rms(total) = 0.71569E-03    rms(broyden)= 0.71116E-03
  rms(prec ) = 0.10969E-02
  weight for this iteration     100.00

 eigenvalues of (default mixing * dielectric matrix)
  average eigenvalue GAMMA=   2.1859
  7.2596  4.5567  3.0344  2.4299  2.3437  0.6754  0.6754  1.2193  1.1566  0.9687
  0.9687  0.9425

 Free energy of the ion-electron system (eV)
  ---------------------------------------------------
  alpha Z        PSCENC =         0.25049867
  Ewald energy   TEWEN  =       129.94629031
  -Hartree energ DENC   =      -285.47567527
  -exchange      EXHF   =         0.00000000
  -V(xc)+E(xc)   XCENC  =        24.86633523
  PAW double counting   =       491.27778372     -492.07640317
  entropy T*S    EENTRO =         0.03766152
  eigenvalues    EBANDS =       -89.88918752
  atomic energy  EATOM  =       197.04175453
  Solvation  Ediel_sol  =         0.00000000
  ---------------------------------------------------
  free energy    TOTEN  =       -24.02094198 eV

  energy without entropy =      -24.05860350  energy(sigma->0) =      -24.03349582


--------------------------------------------------------------------------------------------------------




--------------------------------------- Iteration      1(  18)  ---------------------------------------


    POTLOK:  cpu time    1.4305: real time    1.4339
    SETDIJ:  cpu time    0.0063: real time    0.0063
    EDDIAG:  cpu time    0.3766: real time    0.3775
  RMM-DIIS:  cpu time    1.2690: real time    1.2721
    ORTHCH:  cpu time    0.0105: real time    0.0105
       DOS:  cpu time    0.0002: real time    0.0002
    CHARGE:  cpu time    0.1493: real time    0.1496
    MIXING:  cpu time    0.0479: real time    0.0480
    --------------------------------------------
      LOOP:  cpu time    3.2903: real time    3.2981

 eigenvalue-minimisations  :    64
 total energy-change (2. order) :-0.1725009E-03  (-0.1426513E-05)
 number of electron       8.0000001 magnetization 
 augmentation part        0.1892075 magnetization 

 Broyden mixing:
  rms(total) = 0.63490E-03    rms(broyden)= 0.63475E-03
  rms(prec ) = 0.85907E-03
  weight for this iteration     100.00

 eigenvalues of (default mixing * dielectric matrix)
  average eigenvalue GAMMA=   2.1690
  7.8155  4.9220  3.1529  2.5195  2.2016  0.6754  0.6754  1.2401  1.2401  0.9831
  0.9831  0.8940  0.8940

 Free energy of the ion-electron system (eV)
  ---------------------------------------------------
  alpha Z        PSCENC =         0.25049867
  Ewald energy   TEWEN  =       129.94629031
  -Hartree energ DENC   =      -285.50617010
  -exchange      EXHF   =         0.00000000
  -V(xc)+E(xc)   XCENC  =        24.86807162
  PAW double counting   =       491.16281974     -491.96156540
  entropy T*S    EENTRO =         0.03767035
  eigenvalues    EBANDS =       -89.86048420
  atomic energy  EATOM  =       197.04175453
  Solvation  Ediel_sol  =         0.00000000
  ---------------------------------------------------
  free energy    TOTEN  =       -24.02111448 eV

  energy without entropy =      -24.05878483  energy(sigma->0) =      -24.03367127


--------------------------------------------------------------------------------------------------------




--------------------------------------- Iteration      1(  19)  ---------------------------------------


    POTLOK:  cpu time    1.4577: real time    1.4612
    SETDIJ:  cpu time    0.0064: real time    0.0064
    EDDIAG:  cpu time    0.3600: real time    0.3609
  RMM-DIIS:  cpu time    1.0212: real time    1.0236
    ORTHCH:  cpu time    0.0109: real time    0.0109
       DOS:  cpu time    0.0002: real time    0.0002
    CHARGE:  cpu time    0.1526: real time    0.1530
    MIXING:  cpu time    0.0501: real time    0.0503
    --------------------------------------------
      LOOP:  cpu time    3.0592: real time    3.0665

 eigenvalue-minimisations  :    51
 total energy-change (2. order) :-0.2706387E-04  (-0.2004278E-06)
 number of electron       8.0000001 magnetization 
 augmentation part        0.1892083 magnetization 

 Broyden mixing:
  rms(total) = 0.26854E-03    rms(broyden)= 0.26612E-03
  rms(prec ) = 0.36354E-03
  weight for this iteration     100.00

 eigenvalues of (default mixing * dielectric matrix)
  average eigenvalue GAMMA=   2.2496
  8.1724  5.1630  3.3683  2.6410  2.2993  2.2849  0.6754  0.6754  1.1999  1.1999
  0.9907  0.9907  0.9164  0.9164

 Free energy of the ion-electron system (eV)
  ---------------------------------------------------
  alpha Z        PSCENC =         0.25049867
  Ewald energy   TEWEN  =       129.94629031
  -Hartree energ DENC   =      -285.49704720
  -exchange      EXHF   =         0.00000000
  -V(xc)+E(xc)   XCENC  =        24.86749773
  PAW double counting   =       491.10731752     -491.90600977
  entropy T*S    EENTRO =         0.03767658
  eigenvalues    EBANDS =       -89.86911993
  atomic energy  EATOM  =       197.04175453
  Solvation  Ediel_sol  =         0.00000000
  ---------------------------------------------------
  free energy    TOTEN  =       -24.02114155 eV

  energy without entropy =      -24.05881813  energy(sigma->0) =      -24.03370041


--------------------------------------------------------------------------------------------------------




--------------------------------------- Iteration      1(  20)  ---------------------------------------


    POTLOK:  cpu time    1.5044: real time    1.5080
    SETDIJ:  cpu time    0.0062: real time    0.0063
    EDDIAG:  cpu time    0.3645: real time    0.3654
  RMM-DIIS:  cpu time    1.1084: real time    1.1110
    ORTHCH:  cpu time    0.0106: real time    0.0106
       DOS:  cpu time    0.0002: real time    0.0002
    CHARGE:  cpu time    0.1584: real time    0.1587
    MIXING:  cpu time    0.0495: real time    0.0496
    --------------------------------------------
      LOOP:  cpu time    3.2022: real time    3.2098

 eigenvalue-minimisations  :    57
 total energy-change (2. order) :-0.1457456E-04  (-0.2403659E-06)
 number of electron       8.0000001 magnetization 
 augmentation part        0.1892175 magnetization 

 Broyden mixing:
  rms(total) = 0.24983E-03    rms(broyden)= 0.24943E-03
  rms(prec ) = 0.33360E-03
  weight for this iteration     100.00

 eigenvalues of (default mixing * dielectric matrix)
  average eigenvalue GAMMA=   2.2129
  8.2579  5.3000  3.6749  2.5387  2.5387  2.0177  1.4357  0.6754  0.6754  1.1027
  1.1027  0.9251  0.9251  1.0119  1.0119

 Free energy of the ion-electron system (eV)
  ---------------------------------------------------
  alpha Z        PSCENC =         0.25049867
  Ewald energy   TEWEN  =       129.94629031
  -Hartree energ DENC   =      -285.49193083
  -exchange      EXHF   =         0.00000000
  -V(xc)+E(xc)   XCENC  =        24.86724390
  PAW double counting   =       491.14005070     -491.93866689
  entropy T*S    EENTRO =         0.03767000
  eigenvalues    EBANDS =       -89.87406651
  atomic energy  EATOM  =       197.04175453
  Solvation  Ediel_sol  =         0.00000000
  ---------------------------------------------------
  free energy    TOTEN  =       -24.02115612 eV

  energy without entropy =      -24.05882612  energy(sigma->0) =      -24.03371279


--------------------------------------------------------------------------------------------------------




--------------------------------------- Iteration      1(  21)  ---------------------------------------


    POTLOK:  cpu time    1.5317: real time    1.5354
    SETDIJ:  cpu time    0.0066: real time    0.0066
    EDDIAG:  cpu time    0.3708: real time    0.3717
  RMM-DIIS:  cpu time    0.9788: real time    0.9811
    ORTHCH:  cpu time    0.0107: real time    0.0107
       DOS:  cpu time    0.0002: real time    0.0002
    CHARGE:  cpu time    0.1552: real time    0.1556
    MIXING:  cpu time    0.0503: real time    0.0504
    --------------------------------------------
      LOOP:  cpu time    3.1042: real time    3.1116

 eigenvalue-minimisations  :    48
 total energy-change (2. order) :-0.2005772E-05  (-0.4527430E-07)
 number of electron       8.0000001 magnetization 
 augmentation part        0.1892149 magnetization 

 Broyden mixing:
  rms(total) = 0.42705E-04    rms(broyden)= 0.42159E-04
  rms(prec ) = 0.55578E-04
  weight for this iteration     100.00

 eigenvalues of (default mixing * dielectric matrix)
  average eigenvalue GAMMA=   2.1880
  8.3940  5.3130  3.9502  2.5916  2.3037  2.3037  1.4957  0.6754  0.6754  1.2066
  1.2066  1.0421  1.0421  0.9586  0.9586  0.8908

 Free energy of the ion-electron system (eV)
  ---------------------------------------------------
  alpha Z        PSCENC =         0.25049867
  Ewald energy   TEWEN  =       129.94629031
  -Hartree energ DENC   =      -285.49770013
  -exchange      EXHF   =         0.00000000
  -V(xc)+E(xc)   XCENC  =        24.86752141
  PAW double counting   =       491.15293329     -491.95160688
  entropy T*S    EENTRO =         0.03767252
  eigenvalues    EBANDS =       -89.86852186
  atomic energy  EATOM  =       197.04175453
  Solvation  Ediel_sol  =         0.00000000
  ---------------------------------------------------
  free energy    TOTEN  =       -24.02115813 eV

  energy without entropy =      -24.05883065  energy(sigma->0) =      -24.03371564


--------------------------------------------------------------------------------------------------------




--------------------------------------- Iteration      1(  22)  ---------------------------------------


    POTLOK:  cpu time    1.7420: real time    1.7475
    SETDIJ:  cpu time    0.0064: real time    0.0064
    EDDIAG:  cpu time    0.3716: real time    0.3725
  RMM-DIIS:  cpu time    0.9690: real time    0.9713
    ORTHCH:  cpu time    0.0109: real time    0.0109
       DOS:  cpu time    0.0002: real time    0.0002
    CHARGE:  cpu time    0.1665: real time    0.1669
    MIXING:  cpu time    0.0518: real time    0.0519
    --------------------------------------------
      LOOP:  cpu time    3.3184: real time    3.3277

 eigenvalue-minimisations  :    48
 total energy-change (2. order) :-0.1067944E-05  (-0.2031946E-07)
 number of electron       8.0000001 magnetization 
 augmentation part        0.1892130 magnetization 

 Broyden mixing:
  rms(total) = 0.52356E-04    rms(broyden)= 0.52332E-04
  rms(prec ) = 0.69317E-04
  weight for this iteration     100.00

 eigenvalues of (default mixing * dielectric matrix)
  average eigenvalue GAMMA=   2.2331
  8.3938  5.4791  3.7635  3.6995  2.4452  2.4452  1.6385  1.6385  0.6754  0.6754
  1.1640  1.1640  0.9975  0.9975  0.9054  0.9398  0.9398

 Free energy of the ion-electron system (eV)
  ---------------------------------------------------
  alpha Z        PSCENC =         0.25049867
  Ewald energy   TEWEN  =       129.94629031
  -Hartree energ DENC   =      -285.49777180
  -exchange      EXHF   =         0.00000000
  -V(xc)+E(xc)   XCENC  =        24.86746355
  PAW double counting   =       491.13080514     -491.92949293
  entropy T*S    EENTRO =         0.03767256
  eigenvalues    EBANDS =       -89.86837923
  atomic energy  EATOM  =       197.04175453
  Solvation  Ediel_sol  =         0.00000000
  ---------------------------------------------------
  free energy    TOTEN  =       -24.02115920 eV

  energy without entropy =      -24.05883176  energy(sigma->0) =      -24.03371672


--------------------------------------------------------------------------------------------------------




--------------------------------------- Iteration      1(  23)  ---------------------------------------


    POTLOK:  cpu time    1.6414: real time    1.6453
    SETDIJ:  cpu time    0.0099: real time    0.0099
    EDDIAG:  cpu time    0.3566: real time    0.3574
  RMM-DIIS:  cpu time    0.9430: real time    0.9452
    ORTHCH:  cpu time    0.0110: real time    0.0110
       DOS:  cpu time    0.0002: real time    0.0002
    --------------------------------------------
      LOOP:  cpu time    2.9621: real time    2.9691

 eigenvalue-minimisations  :    44
 total energy-change (2. order) :-0.5338876E-06  (-0.6359511E-08)
 number of electron       8.0000001 magnetization 
 augmentation part        0.1892130 magnetization 

 Free energy of the ion-electron system (eV)
  ---------------------------------------------------
  alpha Z        PSCENC =         0.25049867
  Ewald energy   TEWEN  =       129.94629031
  -Hartree energ DENC   =      -285.49528179
  -exchange      EXHF   =         0.00000000
  -V(xc)+E(xc)   XCENC  =        24.86734811
  PAW double counting   =       491.13814218     -491.93680682
  entropy T*S    EENTRO =         0.03767245
  eigenvalues    EBANDS =       -89.87077737
  atomic energy  EATOM  =       197.04175453
  Solvation  Ediel_sol  =         0.00000000
  ---------------------------------------------------
  free energy    TOTEN  =       -24.02115973 eV

  energy without entropy =      -24.05883218  energy(sigma->0) =      -24.03371721


--------------------------------------------------------------------------------------------------------




 average (electrostatic) potential at core
  the test charge radii are     0.5201  0.6991
  (the norm of the test charge is              1.0000)
       1 -41.4338       2 -41.6638       3 -41.5675       4 -41.5526       5 -57.8806



 E-fermi :  -9.1296     XC(G=0):  -0.7149     alpha+bet : -0.2178


 k-point     1 :       0.2500    0.2500    0.2500
  band No.  band energies     occupation 
      1     -16.9620      2.00000
      2      -9.3940      2.06837
      3      -9.3067      2.01774
      4      -9.2679      1.91392
      5      -0.2935      0.00000
      6       0.5861      0.00000
      7       0.6874      0.00000
      8       0.7085      0.00000

 k-point     2 :      -0.2500    0.2500    0.2500
  band No.  band energies     occupation 
      1     -16.9621      2.00000
      2      -9.3941      2.06834
      3      -9.3068      2.01788
      4      -9.2679      1.91393
      5      -0.3008      0.00000
      6       0.5924      0.00000
      7       0.7010      0.00000
      8       0.7319      0.00000

 k-point     3 :       0.2500   -0.2500    0.2500
  band No.  band energies     occupation 
      1     -16.9620      2.00000
      2      -9.3940      2.06835
      3      -9.3067      2.01768
      4      -9.2678      1.91368
      5      -0.2952      0.00000
      6       0.5850      0.00000
      7       0.6852      0.00000
      8       0.7191      0.00000

 k-point     4 :      -0.2500   -0.2500    0.2500
  band No.  band energies     occupation 
      1     -16.9621      2.00000
      2      -9.3941      2.06834
      3      -9.3068      2.01779
      4      -9.2679      1.91397
      5      -0.2954      0.00000
      6       0.5846      0.00000
      7       0.6920      0.00000
      8       0.7168      0.00000


--------------------------------------------------------------------------------------------------------


 soft charge-density along one line, spin component           1
         0         1         2         3         4         5         6         7         8         9
 total charge-density along one line

 pseudopotential strength for first ion, spin component:           1
 -2.340  -4.032  -0.001  -0.002   0.001
 -4.032  -6.861  -0.003  -0.004   0.002
 -0.001  -0.003  -0.338   0.002  -0.001
 -0.002  -0.004   0.002  -0.336  -0.001
  0.001   0.002  -0.001  -0.001  -0.339
 total augmentation occupancy for first ion, spin component:           1
  3.095  -0.473   0.237   0.368  -0.132
 -0.473   0.087  -0.038  -0.057   0.021
  0.237  -0.038   0.023   0.024  -0.008
  0.368  -0.057   0.024   0.049  -0.013
 -0.132   0.021  -0.008  -0.013   0.014


------------------------ aborting loop because EDIFF is reached ----------------------------------------


    CHARGE:  cpu time    0.1489: real time    0.1492
    FORLOC:  cpu time    0.1057: real time    0.1059
    FORNL :  cpu time    0.5175: real time    0.5188
    STRESS:  cpu time    1.9131: real time    1.9177
    FORCOR:  cpu time    1.6243: real time    1.6282
    FORHAR:  cpu time    0.5367: real time    0.5380
    MIXING:  cpu time    0.0537: real time    0.0538
    OFIELD:  cpu time    0.0000: real time    0.0000

  FORCE on cell =-STRESS in cart. coord.  units (eV):
  Direction    XX          YY          ZZ          XY          YZ          ZX
  --------------------------------------------------------------------------------------
  Alpha Z     0.25050     0.25050     0.25050
  Ewald      44.83134    42.51726    42.59766    -1.86079    -0.33845    -0.95999
  Hartree    96.71577    93.92500    94.85571    -0.90978     0.02015    -0.78533
  E(xc)     -27.35565   -27.33677   -27.34727    -0.00892     0.00050    -0.00727
  Local    -200.01236  -195.21162  -196.08722     2.90026     0.37250     2.03533
  n-local   -15.67553   -15.47481   -15.84745     0.13324     0.14812     0.39483
  augment     0.11133     0.11746     0.11338    -0.00164    -0.00061    -0.00365
  Kinetic   102.34289   101.98093   101.45619    -0.51469    -0.71952    -0.32160
  Fock        0.00000     0.00000     0.00000     0.00000     0.00000     0.00000
  -------------------------------------------------------------------------------------
  Total       1.20829     0.76794    -0.00851    -0.26232    -0.51730     0.35231
  in kB       2.00181     1.27227    -0.01409    -0.43459    -0.85703     0.58369
  external pressure =        1.09 kB  Pullay stress =        0.00 kB

  kinetic pressure (ideal gas correction) =      0.03 kB
  total pressure  =      1.12 kB
  Total+kin.     2.016       1.305       0.025      -0.427      -0.879       0.585

 VOLUME and BASIS-vectors are now :
 -----------------------------------------------------------------------------
  energy-cutoff  :      400.00
  volume of cell :      967.07
      direct lattice vectors                 reciprocal lattice vectors
     9.729232559  0.000000000  0.000000000     0.102783030  0.001676598  0.001910579
    -0.163782186 10.040589082  0.000000000     0.000000000  0.099595750 -0.001027855
    -0.185686768  0.102167582  9.899699419     0.000000000 -0.000000000  0.101013168

  length of vectors
     9.729232559 10.041924801  9.901967803     0.102814457  0.099601054  0.101013168


 FORCES acting on ions
    electron-ion (+dipol)            ewald-force                    non-local-force                 convergence-correction
 -----------------------------------------------------------------------------------------------
   -.173E+02 0.293E+02 0.404E+02   0.193E+02 -.323E+02 -.443E+02   -.204E+01 0.282E+01 0.366E+01   0.283E-04 -.516E-04 -.600E-04
   0.537E+02 -.657E+01 0.357E+01   -.604E+02 0.754E+01 -.392E+01   0.553E+01 -.497E+00 0.603E+00   -.725E-04 0.562E-05 -.898E-05
   -.226E+02 -.482E+02 0.108E+01   0.250E+02 0.535E+02 -.140E+01   -.204E+01 -.480E+01 0.260E+00   0.428E-04 0.759E-04 0.168E-05
   -.117E+02 0.246E+02 -.464E+02   0.130E+02 -.277E+02 0.517E+02   -.204E+01 0.247E+01 -.482E+01   0.282E-04 -.433E-04 0.728E-04
   -.261E+01 0.779E+00 0.183E+01   0.303E+01 -.107E+01 -.209E+01   -.735E+00 0.116E+01 0.298E+00   0.117E-03 -.295E-04 -.233E-04
 -----------------------------------------------------------------------------------------------
   -.585E+00 -.421E-01 0.468E+00   0.000E+00 -.355E-14 0.000E+00   -.132E+01 0.115E+01 0.696E-02   0.144E-03 -.429E-04 -.179E-04


 POSITION                                       TOTAL-FORCE (eV/Angst)
 -----------------------------------------------------------------------------------
      5.10424      4.12135      3.56804        -0.084418     -0.099995     -0.243958
      3.67871      4.86800      4.34080        -1.163284      0.473700      0.248060
      5.19777      5.72299      4.38214         0.359274      0.444387     -0.060091
      4.97029      4.23650      5.33815        -0.703323     -0.580722      0.487352
      4.73877      4.73299      4.40718        -0.314715      0.870586      0.043927
 -----------------------------------------------------------------------------------
    total drift:                               -1.906466      1.107956      0.475290


--------------------------------------------------------------------------------------------------------



  FREE ENERGIE OF THE ION-ELECTRON SYSTEM (eV)
  ---------------------------------------------------
  free  energy   TOTEN  =       -24.02115973 eV

  energy  without entropy=      -24.05883218  energy(sigma->0) =      -24.03371721



--------------------------------------------------------------------------------------------------------


    POTLOK:  cpu time    1.6798: real time    1.6841


--------------------------------------------------------------------------------------------------------


           RANDOM_SEED =         578496000                0                0
           RANDOM_SEED =         578496000               30                0
   IONSTEP:  cpu time    0.0016: real time    0.0018

  ENERGY OF THE ELECTRON-ION-THERMOSTAT SYSTEM (eV)
  ---------------------------------------------------
% ion-electron   TOTEN  =       -24.021160  see above
  kinetic energy EKIN   =         0.029089
  kin. lattice  EKIN_LAT=         0.000000  (temperature   56.26 K)
  nose potential ES     =         0.000000
  nose kinetic   EPS    =         0.000001
  ---------------------------------------------------
  total energy   ETOTAL =       -23.992070 eV

  maximum distance moved by ions :      0.50E-02


 mean value of Nose-termostat <S>:     1.002 mean value of <T> :    56.260
 mean temperature <T/S>/<1/S>  :    56.260

    WAVPRE:  cpu time    0.4252: real time    0.4305
    FEWALD:  cpu time    0.0003: real time    0.0003
    ORTHCH:  cpu time    0.1851: real time    0.1855
     LOOP+:  cpu time   80.3033: real time   80.5100


--------------------------------------- Iteration      2(   1)  ---------------------------------------


    POTLOK:  cpu time    1.6444: real time    1.6487
    SETDIJ:  cpu time    0.0066: real time    0.0066
     EDDAV:  cpu time    1.7224: real time    1.7265
       DOS:  cpu time    0.0002: real time    0.0002
    CHARGE:  cpu time    0.1462: real time    0.1465
    MIXING:  cpu time    0.0405: real time    0.0406
    --------------------------------------------
      LOOP:  cpu time    3.5604: real time    3.5692

 eigenvalue-minimisations  :    64
 total energy-change (2. order) :-0.7405402E-02  (-0.2035409E+00)
 number of electron       8.0000002 magnetization 
 augmentation part        0.1843736 magnetization 

 Broyden mixing:
  rms(total) = 0.66943E-01    rms(broyden)= 0.66876E-01
  rms(prec ) = 0.80923E-01
  weight for this iteration     100.00

 Free energy of the ion-electron system (eV)
  ---------------------------------------------------
  alpha Z        PSCENC =         0.25049867
  Ewald energy   TEWEN  =       126.43596412
  -Hartree energ DENC   =      -283.46357348
  -exchange      EXHF   =         0.00000000
  -V(xc)+E(xc)   XCENC  =        24.76382841
  PAW double counting   =       491.14288892     -491.94155189
  entropy T*S    EENTRO =         0.01246981
  eigenvalues    EBANDS =       -88.27084368
  atomic energy  EATOM  =       197.04175453
  Solvation  Ediel_sol  =         0.00000000
  ---------------------------------------------------
  free energy    TOTEN  =       -24.02856460 eV

  energy without entropy =      -24.04103441  energy(sigma->0) =      -24.03272120


--------------------------------------------------------------------------------------------------------




--------------------------------------- Iteration      2(   2)  ---------------------------------------


    POTLOK:  cpu time    1.4000: real time    1.4033
    SETDIJ:  cpu time    0.0066: real time    0.0066
    EDDIAG:  cpu time    0.3689: real time    0.3698
  RMM-DIIS:  cpu time    1.2208: real time    1.2236
    ORTHCH:  cpu time    0.0109: real time    0.0109
       DOS:  cpu time    0.0002: real time    0.0002
    CHARGE:  cpu time    0.1516: real time    0.1520
    MIXING:  cpu time    0.0567: real time    0.0568
    --------------------------------------------
      LOOP:  cpu time    3.2156: real time    3.2232

 eigenvalue-minimisations  :    64
 total energy-change (2. order) :-0.1056055E-01  (-0.1633698E-01)
 number of electron       8.0000002 magnetization 
 augmentation part        0.1871385 magnetization 

 Broyden mixing:
  rms(total) = 0.65905E-01    rms(broyden)= 0.65894E-01
  rms(prec ) = 0.88343E-01
  weight for this iteration     100.00

 eigenvalues of (default mixing * dielectric matrix)
  average eigenvalue GAMMA=   2.1820
  8.3834  5.5324  4.1397  3.3849  2.5199  2.2096  2.1475  2.0399  1.6181  0.6754
  0.6754  1.1970  1.1970  1.0536  1.0536  0.9267  0.9267  0.8882  0.8882

 Free energy of the ion-electron system (eV)
  ---------------------------------------------------
  alpha Z        PSCENC =         0.25049867
  Ewald energy   TEWEN  =       126.43596412
  -Hartree energ DENC   =      -280.12453102
  -exchange      EXHF   =         0.00000000
  -V(xc)+E(xc)   XCENC  =        24.56099118
  PAW double counting   =       465.77700723     -466.55270541
  entropy T*S    EENTRO =         0.01402708
  eigenvalues    EBANDS =       -91.44213152
  atomic energy  EATOM  =       197.04175453
  Solvation  Ediel_sol  =         0.00000000
  ---------------------------------------------------
  free energy    TOTEN  =       -24.03912514 eV

  energy without entropy =      -24.05315222  energy(sigma->0) =      -24.04380084


--------------------------------------------------------------------------------------------------------




--------------------------------------- Iteration      2(   3)  ---------------------------------------


    POTLOK:  cpu time    1.4614: real time    1.4648
    SETDIJ:  cpu time    0.0063: real time    0.0063
    EDDIAG:  cpu time    0.3805: real time    0.3814
  RMM-DIIS:  cpu time    1.2222: real time    1.2250
    ORTHCH:  cpu time    0.0109: real time    0.0109
       DOS:  cpu time    0.0002: real time    0.0002
    CHARGE:  cpu time    0.1503: real time    0.1506
    MIXING:  cpu time    0.0556: real time    0.0557
    --------------------------------------------
      LOOP:  cpu time    3.2873: real time    3.2950

 eigenvalue-minimisations  :    64
 total energy-change (2. order) :-0.3322421E-02  (-0.2832397E-02)
 number of electron       8.0000002 magnetization 
 augmentation part        0.1864302 magnetization 

 Broyden mixing:
  rms(total) = 0.75237E-01    rms(broyden)= 0.75234E-01
  rms(prec ) = 0.99467E-01
  weight for this iteration     100.00

 eigenvalues of (default mixing * dielectric matrix)
  average eigenvalue GAMMA=   2.1422
  8.3841  5.5315  4.1424  3.3835  2.5220  2.5220  2.0991  2.0991  1.5895  0.6754
  0.6754  1.2029  1.2029  1.0550  1.0550  0.9279  0.9279  0.8923  0.8923  1.0635

 Free energy of the ion-electron system (eV)
  ---------------------------------------------------
  alpha Z        PSCENC =         0.25049867
[...]
  rms(prec ) = 0.63588E-03
  weight for this iteration     100.00

 eigenvalues of (default mixing * dielectric matrix)
  average eigenvalue GAMMA=   2.3252
  5.4163  4.9037  4.9037  4.2335  3.6241  3.6241  3.6936  1.5351  1.5351  0.5172
  0.7342  0.7342  3.0769  3.0769  0.7741  1.3818  1.3818  0.9206  0.9206  0.9497
  2.5266  2.5266  1.2586  1.2586  1.6335  1.6335  1.6779  3.0122  2.5366  2.5366
  1.9369  1.9369  1.9878  2.1356  2.1356  2.3708  2.3708  2.2867  2.7867  2.7277
  2.7277  2.6053  2.6053  2.6555  2.6156  2.5362

 Free energy of the ion-electron system (eV)
  ---------------------------------------------------
  alpha Z        PSCENC =         0.25049867
  Ewald energy   TEWEN  =       129.48320527
  -Hartree energ DENC   =      -284.97201584
  -exchange      EXHF   =         0.00000000
  -V(xc)+E(xc)   XCENC  =        24.84087561
  PAW double counting   =       482.87283461     -483.67014240
  entropy T*S    EENTRO =         0.01564495
  eigenvalues    EBANDS =       -89.83703325
  atomic energy  EATOM  =       197.04175453
  Solvation  Ediel_sol  =         0.00000000
  ---------------------------------------------------
  free energy    TOTEN  =       -23.97437784 eV

  energy without entropy =      -23.99002280  energy(sigma->0) =      -23.97959283


--------------------------------------------------------------------------------------------------------




--------------------------------------- Iteration     10(  12)  ---------------------------------------


    POTLOK:  cpu time    1.4892: real time    1.4928
    SETDIJ:  cpu time    0.0064: real time    0.0064
    EDDIAG:  cpu time    0.3301: real time    0.3309
  RMM-DIIS:  cpu time    1.2037: real time    1.2066
    ORTHCH:  cpu time    0.0106: real time    0.0107
       DOS:  cpu time    0.0002: real time    0.0002
    CHARGE:  cpu time    0.1472: real time    0.1476
    MIXING:  cpu time    0.1256: real time    0.1259
    --------------------------------------------
      LOOP:  cpu time    3.3132: real time    3.3211

 eigenvalue-minimisations  :    64
 total energy-change (2. order) :-0.7582908E-05  (-0.9800818E-06)
 number of electron       7.9999997 magnetization 
 augmentation part        0.1891093 magnetization 

 Broyden mixing:
  rms(total) = 0.39931E-03    rms(broyden)= 0.39882E-03
  rms(prec ) = 0.50846E-03
  weight for this iteration     100.00

 eigenvalues of (default mixing * dielectric matrix)
  average eigenvalue GAMMA=   2.3410
  5.5133  4.7571  4.7571  4.7361  3.8404  3.8404  1.5646  1.5646  0.5118  0.7833
  0.7833  0.7563  0.7563  1.3743  1.3743  3.4254  3.4254  3.1089  3.1089  1.0002
  1.0002  1.0121  2.6479  2.6479  1.2581  1.3493  1.5976  1.5976  1.5903  2.9886
  2.4301  2.4301  2.0229  2.0229  2.0784  2.3673  2.3673  2.2018  2.2986  2.6479
  2.6479  2.7830  2.7418  2.6989  2.5153  2.5153  2.5842

 Free energy of the ion-electron system (eV)
  ---------------------------------------------------
  alpha Z        PSCENC =         0.25049867
  Ewald energy   TEWEN  =       129.48320527
  -Hartree energ DENC   =      -284.97096383
  -exchange      EXHF   =         0.00000000
  -V(xc)+E(xc)   XCENC  =        24.84082251
  PAW double counting   =       482.88308753     -483.68036811
  entropy T*S    EENTRO =         0.01549056
  eigenvalues    EBANDS =       -89.83791256
  atomic energy  EATOM  =       197.04175453
  Solvation  Ediel_sol  =         0.00000000
  ---------------------------------------------------
  free energy    TOTEN  =       -23.97438543 eV

  energy without entropy =      -23.98987599  energy(sigma->0) =      -23.97954895


--------------------------------------------------------------------------------------------------------




--------------------------------------- Iteration     10(  13)  ---------------------------------------


    POTLOK:  cpu time    1.4845: real time    1.4880
    SETDIJ:  cpu time    0.0062: real time    0.0062
    EDDIAG:  cpu time    0.3144: real time    0.3151
  RMM-DIIS:  cpu time    0.9368: real time    0.9390
    ORTHCH:  cpu time    0.0110: real time    0.0111
       DOS:  cpu time    0.0002: real time    0.0002
    CHARGE:  cpu time    0.1462: real time    0.1466
    MIXING:  cpu time    0.1410: real time    0.1413
    --------------------------------------------
      LOOP:  cpu time    3.0403: real time    3.0475

 eigenvalue-minimisations  :    48
 total energy-change (2. order) :-0.3596050E-05  (-0.7256586E-07)
 number of electron       7.9999997 magnetization 
 augmentation part        0.1891084 magnetization 

 Broyden mixing:
  rms(total) = 0.21219E-03    rms(broyden)= 0.21217E-03
  rms(prec ) = 0.26776E-03
  weight for this iteration     100.00

 eigenvalues of (default mixing * dielectric matrix)
  average eigenvalue GAMMA=   2.3307
  5.4479  5.3593  4.5929  4.5929  3.7134  3.7134  3.1093  3.1093  1.5594  1.5594
  0.5137  0.6436  0.6436  3.4681  3.4681  0.8097  0.8097  1.4391  1.4391  0.9724
  0.9724  1.1173  1.1173  1.3206  1.3206  1.3036  2.6789  2.6789  1.7611  1.7611
  2.5032  2.5032  2.9798  2.0232  2.0784  2.0784  2.2329  2.4939  2.4939  2.7808
  2.7727  2.6459  2.6459  2.6878  2.5855  2.5028  2.5028  2.3671

 Free energy of the ion-electron system (eV)
  ---------------------------------------------------
  alpha Z        PSCENC =         0.25049867
  Ewald energy   TEWEN  =       129.48320527
  -Hartree energ DENC   =      -284.97213920
  -exchange      EXHF   =         0.00000000
  -V(xc)+E(xc)   XCENC  =        24.84088547
  PAW double counting   =       482.87657913     -483.67387341
  entropy T*S    EENTRO =         0.01552692
  eigenvalues    EBANDS =       -89.83682640
  atomic energy  EATOM  =       197.04175453
  Solvation  Ediel_sol  =         0.00000000
  ---------------------------------------------------
  free energy    TOTEN  =       -23.97438902 eV

  energy without entropy =      -23.98991594  energy(sigma->0) =      -23.97956466


--------------------------------------------------------------------------------------------------------




--------------------------------------- Iteration     10(  14)  ---------------------------------------


    POTLOK:  cpu time    1.5215: real time    1.5251
    SETDIJ:  cpu time    0.0064: real time    0.0064
    EDDIAG:  cpu time    0.3257: real time    0.3265
  RMM-DIIS:  cpu time    0.9230: real time    0.9252
    ORTHCH:  cpu time    0.0110: real time    0.0110
       DOS:  cpu time    0.0002: real time    0.0002
    CHARGE:  cpu time    0.1391: real time    0.1394
    MIXING:  cpu time    0.1111: real time    0.1114
    --------------------------------------------
      LOOP:  cpu time    3.0379: real time    3.0451

 eigenvalue-minimisations  :    48
 total energy-change (2. order) :-0.1074116E-05  (-0.7500384E-07)
 number of electron       7.9999997 magnetization 
 augmentation part        0.1891082 magnetization 

 Broyden mixing:
  rms(total) = 0.60041E-04    rms(broyden)= 0.59846E-04
  rms(prec ) = 0.75519E-04
  weight for this iteration     100.00

 eigenvalues of (default mixing * dielectric matrix)
  average eigenvalue GAMMA=   2.3370
  5.1343  5.1343  5.4444  5.3813  3.6631  3.6631  1.6189  1.6189  0.5102  0.5102
  3.4620  3.4620  0.7527  0.7527  0.8001  0.8001  1.3820  1.3820  1.0405  1.1274
  1.1274  1.2735  1.2735  1.1908  3.2119  3.2119  2.6367  2.6367  1.6043  1.7944
  1.7944  2.5160  2.5160  2.9733  2.0597  2.0597  2.1045  2.6984  2.6984  2.2348
  2.7633  2.6791  2.6791  2.4157  2.4157  2.4328  2.5557  2.6915  2.6248

 Free energy of the ion-electron system (eV)
  ---------------------------------------------------
  alpha Z        PSCENC =         0.25049867
  Ewald energy   TEWEN  =       129.48320527
  -Hartree energ DENC   =      -284.97203845
  -exchange      EXHF   =         0.00000000
  -V(xc)+E(xc)   XCENC  =        24.84087106
  PAW double counting   =       482.87661991     -483.67391609
  entropy T*S    EENTRO =         0.01556787
  eigenvalues    EBANDS =       -89.83695287
  atomic energy  EATOM  =       197.04175453
  Solvation  Ediel_sol  =         0.00000000
  ---------------------------------------------------
  free energy    TOTEN  =       -23.97439010 eV

  energy without entropy =      -23.98995797  energy(sigma->0) =      -23.97957939


--------------------------------------------------------------------------------------------------------




--------------------------------------- Iteration     10(  15)  ---------------------------------------


    POTLOK:  cpu time    1.6915: real time    1.6956
    SETDIJ:  cpu time    0.0062: real time    0.0062
    EDDIAG:  cpu time    0.3292: real time    0.3300
  RMM-DIIS:  cpu time    0.9210: real time    0.9232
    ORTHCH:  cpu time    0.0103: real time    0.0103
       DOS:  cpu time    0.0002: real time    0.0002
    --------------------------------------------
      LOOP:  cpu time    2.9584: real time    2.9655

 eigenvalue-minimisations  :    48
 total energy-change (2. order) :-0.6606813E-06  (-0.1593608E-07)
 number of electron       7.9999997 magnetization 
 augmentation part        0.1891082 magnetization 

 Free energy of the ion-electron system (eV)
  ---------------------------------------------------
  alpha Z        PSCENC =         0.25049867
  Ewald energy   TEWEN  =       129.48320527
  -Hartree energ DENC   =      -284.97229167
  -exchange      EXHF   =         0.00000000
  -V(xc)+E(xc)   XCENC  =        24.84088016
  PAW double counting   =       482.87742878     -483.67472939
  entropy T*S    EENTRO =         0.01558045
  eigenvalues    EBANDS =       -89.83671755
  atomic energy  EATOM  =       197.04175453
  Solvation  Ediel_sol  =         0.00000000
  ---------------------------------------------------
  free energy    TOTEN  =       -23.97439076 eV

  energy without entropy =      -23.98997120  energy(sigma->0) =      -23.97958424


--------------------------------------------------------------------------------------------------------




 average (electrostatic) potential at core
  the test charge radii are     0.5201  0.6991
  (the norm of the test charge is              1.0000)
       1 -41.2978       2 -41.9551       3 -41.2716       4 -41.7253       5 -57.9101



 E-fermi :  -8.8309     XC(G=0):  -0.7199     alpha+bet : -0.2178


 k-point     1 :       0.2500    0.2500    0.2500
  band No.  band energies     occupation 
      1     -16.9612      2.00000
      2      -9.7206      2.00000
      3      -9.2413      2.01347
      4      -8.9935      1.98650
      5      -0.2993      0.00000
      6       0.5711      0.00000
      7       0.6839      0.00000
      8       0.7157      0.00000

 k-point     2 :      -0.2500    0.2500    0.2500
  band No.  band energies     occupation 
      1     -16.9612      2.00000
      2      -9.7207      2.00000
      3      -9.2414      2.01346
      4      -8.9935      1.98661
      5      -0.3070      0.00000
      6       0.5888      0.00000
      7       0.6951      0.00000
      8       0.7279      0.00000

 k-point     3 :       0.2500   -0.2500    0.2500
  band No.  band energies     occupation 
      1     -16.9612      2.00000
      2      -9.7206      2.00000
      3      -9.2413      2.01347
      4      -8.9935      1.98644
      5      -0.3019      0.00000
      6       0.5748      0.00000
      7       0.6830      0.00000
      8       0.7240      0.00000

 k-point     4 :      -0.2500   -0.2500    0.2500
  band No.  band energies     occupation 
      1     -16.9612      2.00000
      2      -9.7207      2.00000
      3      -9.2413      2.01347
      4      -8.9935      1.98657
      5      -0.3015      0.00000
      6       0.5802      0.00000
      7       0.6909      0.00000
      8       0.7073      0.00000


--------------------------------------------------------------------------------------------------------


 soft charge-density along one line, spin component           1
         0         1         2         3         4         5         6         7         8         9
 total charge-density along one line

 pseudopotential strength for first ion, spin component:           1
 -2.339  -4.029  -0.001  -0.001   0.001
 -4.029  -6.857  -0.003  -0.004   0.002
 -0.001  -0.003  -0.338   0.002  -0.001
 -0.001  -0.004   0.002  -0.337  -0.001
  0.001   0.002  -0.001  -0.001  -0.339
 total augmentation occupancy for first ion, spin component:           1
  3.344  -0.576   0.267   0.292  -0.169
 -0.576   0.113  -0.046  -0.052   0.029
  0.267  -0.046   0.028   0.020  -0.012
  0.292  -0.052   0.020   0.029  -0.013
 -0.169   0.029  -0.012  -0.013   0.017


------------------------ aborting loop because EDIFF is reached ----------------------------------------


    CHARGE:  cpu time    0.1397: real time    0.1401
    FORLOC:  cpu time    0.1071: real time    0.1074
    FORNL :  cpu time    0.4877: real time    0.4889
    STRESS:  cpu time    1.6935: real time    1.6975
    FORCOR:  cpu time    1.5884: real time    1.5922
    FORHAR:  cpu time    0.5205: real time    0.5217
    MIXING:  cpu time    0.1206: real time    0.1209
    OFIELD:  cpu time    0.0000: real time    0.0000

  FORCE on cell =-STRESS in cart. coord.  units (eV):
  Direction    XX          YY          ZZ          XY          YZ          ZX
  --------------------------------------------------------------------------------------
  Alpha Z     0.25050     0.25050     0.25050
  Ewald      46.14616    41.62687    41.71014    -4.59001     0.38864     5.72075
  Hartree    96.33636    94.15704    94.47891    -1.01330     0.78964     0.95963
  E(xc)     -27.33070   -27.29982   -27.32465    -0.01561     0.01109     0.02359
  Local    -200.20941  -195.04771  -195.05973     4.52895    -1.62139    -5.28456
  n-local   -15.73472   -15.81378   -15.98367     0.00709     0.23809    -0.11876
  augment     0.10557     0.12651     0.12131     0.00975     0.00537    -0.01220
  Kinetic   102.24946   101.04406   102.04522     0.72503    -0.33078    -1.03305
  Fock        0.00000     0.00000     0.00000     0.00000     0.00000     0.00000
  -------------------------------------------------------------------------------------
  Total       1.81322    -0.95634     0.23803    -0.34812    -0.51935     0.25540
  in kB       3.00401    -1.58439     0.39434    -0.57674    -0.86042     0.42312
  external pressure =        0.60 kB  Pullay stress =        0.00 kB

  kinetic pressure (ideal gas correction) =      0.05 kB
  total pressure  =      0.65 kB
  Total+kin.     3.030      -1.521       0.448      -0.584      -0.859       0.402

 VOLUME and BASIS-vectors are now :
 -----------------------------------------------------------------------------
  energy-cutoff  :      400.00
  volume of cell :      967.07
      direct lattice vectors                 reciprocal lattice vectors
     9.729232559  0.000000000  0.000000000     0.102783030  0.001676598  0.001910579
    -0.163782186 10.040589082  0.000000000     0.000000000  0.099595750 -0.001027855
    -0.185686768  0.102167582  9.899699419     0.000000000 -0.000000000  0.101013168

  length of vectors
     9.729232559 10.041924801  9.901967803     0.102814457  0.099601054  0.101013168


 FORCES acting on ions
    electron-ion (+dipol)            ewald-force                    non-local-force                 convergence-correction
 -----------------------------------------------------------------------------------------------
   -.186E+02 0.307E+02 0.379E+02   0.204E+02 -.333E+02 -.413E+02   -.189E+01 0.257E+01 0.305E+01   0.432E-05 -.313E-05 0.642E-05
   0.539E+02 -.824E+01 0.852E+01   -.619E+02 0.928E+01 -.960E+01   0.546E+01 -.641E+00 0.574E+00   0.529E-04 0.388E-04 -.532E-04
   -.228E+02 -.468E+02 0.652E+00   0.248E+02 0.507E+02 -.817E+00   -.216E+01 -.458E+01 -.196E+00   0.278E-04 0.124E-04 0.511E-05
   -.123E+02 0.233E+02 -.472E+02   0.136E+02 -.262E+02 0.531E+02   -.209E+01 0.263E+01 -.501E+01   0.845E-04 0.324E-04 -.361E-04
   -.208E+01 0.504E+00 0.928E+00   0.308E+01 -.420E+00 -.138E+01   0.627E+00 0.176E+01 -.150E+00   0.641E-03 0.852E-03 -.421E-03
 -----------------------------------------------------------------------------------------------
   -.191E+01 -.412E+00 0.769E+00   -.178E-14 0.000E+00 0.000E+00   -.559E-01 0.174E+01 -.173E+01   0.811E-03 0.932E-03 -.499E-03


 POSITION                                       TOTAL-FORCE (eV/Angst)
 -----------------------------------------------------------------------------------
      5.13119      4.07649      3.60097        -0.178335     -0.041047     -0.413446
      3.70994      4.88926      4.24725        -2.542865      0.407085     -0.508012
      5.22257      5.73809      4.39649        -0.077786     -0.633772     -0.360054
      4.97851      4.27035      5.34603        -0.800466     -0.249701      0.926489
      4.73118      4.73088      4.41038         1.630082      1.846109     -0.604814
 -----------------------------------------------------------------------------------
    total drift:                               -1.969370      1.328675     -0.959837


--------------------------------------------------------------------------------------------------------



  FREE ENERGIE OF THE ION-ELECTRON SYSTEM (eV)
  ---------------------------------------------------
  free  energy   TOTEN  =       -23.97439076 eV

  energy  without entropy=      -23.98997120  energy(sigma->0) =      -23.97958424

 d Force = 0.1006146E-01[-0.336E-02, 0.235E-01]  d Energy = 0.8053159E-02 0.201E-02
 d Force =-0.5124720E+00[-0.494E+00,-0.531E+00]  d Ewald  =-0.5132168E+00 0.745E-03


--------------------------------------------------------------------------------------------------------


    POTLOK:  cpu time    1.6145: real time    1.6183


--------------------------------------------------------------------------------------------------------


           RANDOM_SEED =         578496000               30                0
   IONSTEP:  cpu time    0.0001: real time    0.0001

  ENERGY OF THE ELECTRON-ION-THERMOSTAT SYSTEM (eV)
  ---------------------------------------------------
% ion-electron   TOTEN  =       -23.974391  see above
  kinetic energy EKIN   =         0.078818
  kin. lattice  EKIN_LAT=         0.000000  (temperature  152.44 K)
  nose potential ES     =         0.015392
  nose kinetic   EPS    =         0.017481
  ---------------------------------------------------
  total energy   ETOTAL =       -23.862700 eV

  maximum distance moved by ions :      0.92E-02


 mean value of Nose-termostat <S>:     1.492 mean value of <T> :   152.439
 mean temperature <T/S>/<1/S>  :   152.439

    WAVPRE:  cpu time    0.4415: real time    0.4498
    FEWALD:  cpu time    0.0004: real time    0.0004
    ORTHCH:  cpu time    0.1822: real time    0.1826
 Prediction of Wavefunctions ALPHA= 2.021 BETA=-1.456
    POTLOK:  cpu time    1.4723: real time    1.4758
    EDDIAG:  cpu time    0.3457: real time    0.3465
     LOOP+:  cpu time   58.0357: real time   58.1864
    4ORBIT:  cpu time    0.0000: real time    0.0000

 total amount of memory used by VASP MPI-rank0   298342. kBytes
=======================================================================

   base      :      30000. kBytes
   nonlr-proj:        159. kBytes
   fftplans  :      86584. kBytes
   grid      :     154542. kBytes
   one-center:         15. kBytes
   wavefun   :      27042. kBytes

  
  
 General timing and accounting informations for this job:
 ========================================================
  
                  Total CPU time used (sec):      636.361
                            User time (sec):      622.339
                          System time (sec):       14.022
                         Elapsed time (sec):      638.035
  
                   Maximum memory used (kb):      464556.
                   Average memory used (kb):           0.
  
                          Minor page faults:      2913001
                          Major page faults:            0
                 Voluntary context switches:          479
