<?xml version="1.0" encoding="ISO-8859-1"?>
<modeling>
 <generator>
  <i name="program" type="string">vasp </i>
  <i name="version" type="string">5.4.4.18Apr17-6-g9f103f2a35  </i>
  <i name="subversion" type="string">(build Jul 12 2018 13:43:46) complex            parallel </i>
  <i name="platform" type="string">LinuxGNU </i>
  <i name="date" type="string">2019 06 22 </i>
  <i name="time" type="string">02:17:35 </i>
 </generator>
 <incar>
  <i type="int" name="ISTART">     0</i>
  <i type="string" name="PREC">a</i>
  <i type="string" name="ALGO">fast</i>
  <i type="int" name="MAXMIX">    50</i>
  <i type="int" name="ICHARG">     2</i>
  <i type="int" name="IBRION">     0</i>
  <i name="EDIFF">      0.00000100</i>
  <i type="int" name="NSW">    10</i>
  <i type="int" name="ISIF">     2</i>
  <i type="int" name="ISYM">     0</i>
  <i type="int" name="NBLOCK">     1</i>
  <i type="int" name="KBLOCK">   100</i>
  <i name="ENCUT">    400.00000000</i>
  <i name="POTIM">      2.00000000</i>
  <i name="TEBEG">     50.00000000</i>
  <i name="TEEND">     50.00000000</i>
  <i name="SMASS">      0.00000000</i>
  <i type="logical" name="LREAL"> T  </i>
  <i type="int" name="ISMEAR">     1</i>
  <i name="SIGMA">      0.20000000</i>
  <i name="KSPACING">      0.50000000</i>
  <i type="logical" name="KGAMMA"> F  </i>
  <i name="PSTRESS">      0.00000000</i>
  <i type="logical" name="LWAVE"> F  </i>
  <i type="logical" name="LCHARG"> F  </i>
  <v type="int" name="KPOINT_BSE">    -1     0     0     0</v>
 </incar>
 <structure name="primitive_cell" >
  <crystal>
   <varray name="basis" >
    <v>       9.72923256       0.00000000       0.00000000 </v>
    <v>      -0.16378219      10.04058908       0.00000000 </v>
    <v>      -0.18568677       0.10216758       9.89969942 </v>
   </varray>
   <i name="volume">    967.07417649 </i>
   <varray name="rec_basis" >
    <v>       0.10278303       0.00167660       0.00191058 </v>
    <v>       0.00000000       0.09959575      -0.00102786 </v>
    <v>       0.00000000      -0.00000000       0.10101317 </v>
   </varray>
  </crystal>
  <varray name="positions" >
   <v>      -0.46164412       0.40680146       0.36041895 </v>
   <v>      -0.49657886       0.46685603       0.44518332 </v>
   <v>      -0.47183674       0.41645026      -0.46077699 </v>
   <v>       0.39456425       0.48037069       0.43847758 </v>
   <v>      -0.44778984      -0.43451832       0.44265397 </v>
  </varray>
 </structure>
 <varray name="primitive_index" >
  <v type="int" >        1 </v>
  <v type="int" >        5 </v>
  <v type="int" >        4 </v>
  <v type="int" >        2 </v>
  <v type="int" >        3 </v>
 </varray>
 <kpoints>
  <generation param="Monkhorst-Pack">
   <v type="int" name="divisions">       2        2        2 </v>
   <v name="usershift">      0.00000000       0.00000000       0.00000000 </v>
   <v name="genvec1">      0.50000000      -0.00000000       0.00000000 </v>
   <v name="genvec2">      0.00000000       0.50000000       0.00000000 </v>
   <v name="genvec3">      0.00000000       0.00000000       0.50000000 </v>
   <v name="shift">      0.50000000       0.50000000       0.50000000 </v>
  </generation>
  <varray name="kpointlist" >
   <v>       0.25000000       0.25000000       0.25000000 </v>
   <v>      -0.25000000       0.25000000       0.25000000 </v>
   <v>       0.25000000      -0.25000000       0.25000000 </v>
   <v>      -0.25000000      -0.25000000       0.25000000 </v>
  </varray>
  <varray name="weights" >
   <v>       0.25000000 </v>
   <v>       0.25000000 </v>
   <v>       0.25000000 </v>
   <v>       0.25000000 </v>
  </varray>
 </kpoints>
 <parameters>
  <separator name="general" >
   <i type="string" name="SYSTEM">unknown system</i>
   <i type="logical" name="LCOMPAT"> F  </i>
  </separator>
  <separator name="electronic" >
   <i type="string" name="PREC">a</i>
   <i name="ENMAX">    400.00000000</i>
   <i name="ENAUG">    644.87300000</i>
   <i name="EDIFF">      0.00000100</i>
   <i type="int" name="IALGO">    68</i>
   <i type="int" name="IWAVPR">    12</i>
   <i type="int" name="NBANDS">     8</i>
   <i name="NELECT">      8.00000000</i>
   <i type="int" name="TURBO">     0</i>
   <i type="int" name="IRESTART">     0</i>
   <i type="int" name="NREBOOT">     0</i>
   <i type="int" name="NMIN">     0</i>
   <i name="EREF">      0.00000000</i>
   <separator name="electronic smearing" >
    <i type="int" name="ISMEAR">     1</i>
    <i name="SIGMA">      0.20000000</i>
    <i name="KSPACING">      0.50000000</i>
    <i type="logical" name="KGAMMA"> F  </i>
   </separator>
   <separator name="electronic projectors" >
    <i type="logical" name="LREAL"> T  </i>
    <v name="ROPT">      0.00000000      0.00000000</v>
    <i type="int" name="LMAXPAW">  -100</i>
    <i type="int" name="LMAXMIX">     2</i>
    <i type="logical" name="NLSPLINE"> F  </i>
   </separator>
   <separator name="electronic startup" >
    <i type="int" name="ISTART">     0</i>
    <i type="int" name="ICHARG">     2</i>
    <i type="int" name="INIWAV">     1</i>
   </separator>
   <separator name="electronic spin" >
    <i type="int" name="ISPIN">     1</i>
    <i type="logical" name="LNONCOLLINEAR"> F  </i>
    <v name="MAGMOM">      1.00000000      1.00000000      1.00000000      1.00000000      1.00000000</v>
    <i name="NUPDOWN">     -1.00000000</i>
    <i type="logical" name="LSORBIT"> F  </i>
    <v name="SAXIS">      0.00000000      0.00000000      1.00000000</v>
    <i type="logical" name="LSPIRAL"> F  </i>
    <v name="QSPIRAL">      0.00000000      0.00000000      0.00000000</v>
    <i type="logical" name="LZEROZ"> F  </i>
   </separator>
   <separator name="electronic exchange-correlation" >
    <i type="logical" name="LASPH"> F  </i>
    <i type="logical" name="LMETAGGA"> F  </i>
   </separator>
   <separator name="electronic convergence" >
    <i type="int" name="NELM">    60</i>
    <i type="int" name="NELMDL">    -5</i>
    <i type="int" name="NELMIN">     2</i>
    <i name="ENINI">    400.00000000</i>
    <separator name="electronic convergence detail" >
     <i type="logical" name="LDIAG"> T  </i>
     <i type="logical" name="LSUBROT"> F  </i>
     <i name="WEIMIN">      0.00100000</i>
     <i name="EBREAK">      0.00000003</i>
     <i name="DEPER">      0.30000000</i>
     <i type="int" name="NRMM">     4</i>
     <i name="TIME">      0.40000000</i>
    </separator>
   </separator>
   <separator name="electronic mixer" >
    <i name="AMIX">      0.40000000</i>
    <i name="BMIX">      1.00000000</i>
    <i name="AMIN">      0.10000000</i>
    <i name="AMIX_MAG">      1.60000000</i>
    <i name="BMIX_MAG">      1.00000000</i>
    <separator name="electronic mixer details" >
     <i type="int" name="IMIX">     4</i>
     <i type="logical" name="MIXFIRST"> F  </i>
     <i type="int" name="MAXMIX">    50</i>
     <i name="WC">    100.00000000</i>
     <i type="int" name="INIMIX">     1</i>
     <i type="int" name="MIXPRE">     1</i>
     <i type="int" name="MREMOVE">     5</i>
    </separator>
   </separator>
   <separator name="electronic dipolcorrection" >
    <i type="logical" name="LDIPOL"> F  </i>
    <i type="logical" name="LMONO"> F  </i>
    <i type="int" name="IDIPOL">     0</i>
    <i name="EPSILON">      1.00000000</i>
    <v name="DIPOL">   -100.00000000   -100.00000000   -100.00000000</v>
    <i name="EFIELD">      0.00000000</i>
   </separator>
  </separator>
  <separator name="grids" >
   <i type="int" name="NGX">    64</i>
   <i type="int" name="NGY">    70</i>
   <i type="int" name="NGZ">    70</i>
   <i type="int" name="NGXF">   128</i>
   <i type="int" name="NGYF">   140</i>
   <i type="int" name="NGZF">   140</i>
   <i type="logical" name="ADDGRID"> F  </i>
  </separator>
  <separator name="ionic" >
   <i type="int" name="NSW">    10</i>
   <i type="int" name="IBRION">     0</i>
   <i type="int" name="MDALGO">     0</i>
   <i type="int" name="ISIF">     2</i>
   <i name="PSTRESS">      0.00000000</i>
   <i name="EDIFFG">      0.00001000</i>
   <i type="int" name="NFREE">     0</i>
   <i name="POTIM">      2.00000000</i>
   <i name="SMASS">      0.00170876</i>
   <i name="SCALEE">      1.00000000</i>
  </separator>
  <separator name="ionic md" >
   <i name="TEBEG">     50.00000000</i>
   <i name="TEEND">     50.00000000</i>
   <i type="int" name="NBLOCK">     1</i>
   <i type="int" name="KBLOCK">     1</i>
   <i type="int" name="NPACO">   256</i>
   <i name="APACO">     16.00000000</i>
  </separator>
  <separator name="symmetry" >
   <i type="int" name="ISYM">     0</i>
   <i name="SYMPREC">      0.00001000</i>
  </separator>
  <separator name="dos" >
   <i type="int" name="LORBIT">     0</i>
   <v name="RWIGS">     -1.00000000     -1.00000000</v>
   <i type="int" name="NEDOS">   301</i>
   <i name="EMIN">     10.00000000</i>
   <i name="EMAX">    -10.00000000</i>
   <i name="EFERMI">      0.00000000</i>
  </separator>
  <separator name="writing" >
   <i type="int" name="NWRITE">     2</i>
   <i type="logical" name="LWAVE"> F  </i>
   <i type="logical" name="LDOWNSAMPLE"> F  </i>
   <i type="logical" name="LCHARG"> F  </i>
   <i type="logical" name="LPARD"> F  </i>
   <i type="logical" name="LVTOT"> F  </i>
   <i type="logical" name="LVHAR"> F  </i>
   <i type="logical" name="LELF"> F  </i>
   <i type="logical" name="LOPTICS"> F  </i>
   <v name="STM">      0.00000000      0.00000000      0.00000000      0.00000000      0.00000000      0.00000000      0.00000000</v>
  </separator>
  <separator name="performance" >
   <i type="int" name="NPAR">     1</i>
   <i type="int" name="NSIM">     4</i>
   <i type="int" name="NBLK">    -1</i>
   <i type="logical" name="LPLANE"> T  </i>
   <i type="logical" name="LSCALAPACK"> T  </i>
   <i type="logical" name="LSCAAWARE"> F  </i>
   <i type="logical" name="LSCALU"> F  </i>
   <i type="logical" name="LASYNC"> F  </i>
   <i type="logical" name="LORBITALREAL"> F  </i>
  </separator>
  <separator name="miscellaneous" >
   <i type="int" name="IDIOT">     3</i>
   <i type="int" name="ISPECIAL">     0</i>
   <i type="logical" name="LMUSIC"> F  </i>
   <v name="POMASS">      1.00000000     12.01100000</v>
   <v name="DARWINR">      0.00000000      0.00000000</v>
   <v name="DARWINV">      1.00000000      1.00000000</v>
   <i type="logical" name="LCORR"> T  </i>
  </separator>
  <i type="logical" name="GGA_COMPAT"> T  </i>
  <i type="logical" name="LBERRY"> F  </i>
  <i type="int" name="ICORELEVEL">     0</i>
  <i type="logical" name="LDAU"> F  </i>
  <i type="int" name="I_CONSTRAINED_M">     0</i>
  <separator name="electronic exchange-correlation" >
   <i type="string" name="GGA">--</i>
   <i type="int" name="VOSKOWN">     0</i>
   <i type="logical" name="LHFCALC"> F  </i>
   <i type="string" name="PRECFOCK"></i>
   <i type="logical" name="LSYMGRAD"> F  </i>
   <i type="logical" name="LHFONE"> F  </i>
   <i type="logical" name="LRHFCALC"> F  </i>
   <i type="logical" name="LTHOMAS"> F  </i>
   <i type="logical" name="LMODELHF"> F  </i>
   <i name="ENCUT4O">     -1.00000000</i>
   <i type="int" name="EXXOEP">     0</i>
   <i type="int" name="FOURORBIT">     0</i>
   <i name="AEXX">      0.00000000</i>
   <i name="HFALPHA">      0.00000000</i>
   <i name="MCALPHA">      0.00000000</i>
   <i name="ALDAX">      1.00000000</i>
   <i name="AGGAX">      1.00000000</i>
   <i name="ALDAC">      1.00000000</i>
   <i name="AGGAC">      1.00000000</i>
   <i type="int" name="NKREDX">     1</i>
   <i type="int" name="NKREDY">     1</i>
   <i type="int" name="NKREDZ">     1</i>
   <i type="logical" name="SHIFTRED"> F  </i>
   <i type="logical" name="ODDONLY"> F  </i>
   <i type="logical" name="EVENONLY"> F  </i>
   <i type="int" name="LMAXFOCK">     0</i>
   <i type="int" name="NMAXFOCKAE">     0</i>
   <i type="logical" name="LFOCKAEDFT"> F  </i>
   <i name="HFSCREEN">      0.00000000</i>
   <i name="HFSCREENC">      0.00000000</i>
   <i type="int" name="NBANDSGWLOW">     0</i>
  </separator>
  <separator name="vdW DFT" >
   <i type="logical" name="LUSE_VDW"> F  </i>
   <i name="Zab_VDW">     -0.84910000</i>
   <i name="PARAM1">      0.12340000</i>
   <i name="PARAM2">      1.00000000</i>
   <i name="PARAM3">      0.00000000</i>
  </separator>
  <separator name="model GW" >
   <i type="int" name="MODEL_GW">     0</i>
   <i name="MODEL_EPS0">    116.04890118</i>
   <i name="MODEL_ALPHA">      1.00000000</i>
  </separator>
  <separator name="linear response parameters" >
   <i type="logical" name="LEPSILON"> F  </i>
   <i type="logical" name="LRPA"> F  </i>
   <i type="logical" name="LNABLA"> F  </i>
   <i type="logical" name="LVEL"> F  </i>
   <i type="int" name="KINTER">     0</i>
   <i name="CSHIFT">      0.10000000</i>
   <i name="OMEGAMAX">     -1.00000000</i>
   <i name="DEG_THRESHOLD">      0.00200000</i>
   <i name="RTIME">     -0.10000000</i>
   <i name="WPLASMAI">      0.00000000</i>
   <v name="DFIELD">      0.00000000      0.00000000      0.00000000</v>
   <v name="WPLASMA">      0.00000000      0.00000000      0.00000000      0.00000000      0.00000000      0.00000000      0.00000000      0.00000000      0.00000000</v>
  </separator>
  <separator name="orbital magnetization" >
   <i type="logical" name="NUCIND"> F  </i>
   <v name="MAGPOS">      0.00000000      0.00000000      0.00000000</v>
   <i type="logical" name="LNICSALL"> T  </i>
   <i type="logical" name="ORBITALMAG"> F  </i>
   <i type="logical" name="LMAGBLOCH"> F  </i>
   <i type="logical" name="LCHIMAG"> F  </i>
   <i type="logical" name="LGAUGE"> T  </i>
   <i type="int" name="MAGATOM">     0</i>
   <v name="MAGDIPOL">      0.00000000      0.00000000      0.00000000</v>
   <v name="AVECCONST">      0.00000000      0.00000000      0.00000000</v>
  </separator>
  <separator name="response functions" >
   <i type="logical" name="LADDER"> F  </i>
   <i type="logical" name="LRPAFORCE"> F  </i>
   <i type="logical" name="LFXC"> F  </i>
   <i type="logical" name="LHARTREE"> T  </i>
   <i type="int" name="IBSE">     0</i>
   <v type="int" name="KPOINT">    -1     0     0     0</v>
   <i type="logical" name="LTCTE"> F  </i>
   <i type="logical" name="LTETE"> F  </i>
   <i type="logical" name="LTRIPLET"> F  </i>
   <i type="logical" name="LFXCEPS"> F  </i>
   <i type="logical" name="LFXHEG"> F  </i>
   <i type="int" name="NATURALO">     2</i>
   <i type="logical" name="L2ORDER"> F  </i>
   <i type="logical" name="LMP2LT"> F  </i>
   <i type="logical" name="LUSEW"> F  </i>
   <i name="ENCUTGW">     -2.00000000</i>
   <i name="ENCUTGWSOFT">     -2.00000000</i>
   <i name="ENCUTLF">     -1.00000000</i>
   <i type="int" name="LMAXMP2">    -1</i>
   <i name="SCISSOR">      0.00000000</i>
   <i type="int" name="NOMEGA">     0</i>
   <i type="int" name="NOMEGAR">     0</i>
   <i type="int" name="NBANDSGW">    -1</i>
   <i type="int" name="NBANDSO">    -1</i>
   <i type="int" name="NBANDSV">    -1</i>
   <i type="int" name="NELM">     1</i>
   <i type="int" name="NELMHF">     1</i>
   <i type="int" name="DIM">     3</i>
   <i type="int" name="ANTIRES">     0</i>
   <i name="OMEGAMAX">    -30.00000000</i>
   <i name="OMEGAMIN">    -30.00000000</i>
   <i name="OMEGATL">   -200.00000000</i>
   <i type="int" name="OMEGAGRID">   140</i>
   <i name="CSHIFT">     -0.10000000</i>
   <i type="logical" name="SELFENERGY"> F  </i>
   <i type="logical" name="LSPECTRAL"> F  </i>
   <i type="logical" name="LSPECTRALGW"> F  </i>
   <i type="logical" name="LSINGLES"> F  </i>
   <i type="logical" name="LFERMIGW"> F  </i>
   <i type="logical" name="ODDONLYGW"> F  </i>
   <i type="logical" name="EVENONLYGW"> F  </i>
   <i type="int" name="NKREDLFX">     1</i>
   <i type="int" name="NKREDLFY">     1</i>
   <i type="int" name="NKREDLFZ">     1</i>
   <i type="int" name="MAXMEM">  2800</i>
   <i type="int" name="TELESCOPE">     0</i>
   <i type="int" name="TAUPAR">     1</i>
   <i type="int" name="OMEGAPAR">    -1</i>
   <i name="LAMBDA">      1.00000000</i>
  </separator>
  <separator name="External order field" >
   <i name="OFIELD_KAPPA">      0.00000000</i>
   <v name="OFIELD_K">      0.00000000      0.00000000      0.00000000</v>
   <i name="OFIELD_Q6_NEAR">      0.00000000</i>
   <i name="OFIELD_Q6_FAR">      0.00000000</i>
   <i name="OFIELD_A">      0.00000000</i>
  </separator>
 </parameters>
 <atominfo>
  <atoms>       5 </atoms>
  <types>       2 </types>
  <array name="atoms" >
   <dimension dim="1">ion</dimension>
   <field type="string">element</field>
   <field type="int">atomtype</field>
   <set>
    <rc><c>H </c><c>   1</c></rc>
    <rc><c>H </c><c>   1</c></rc>
    <rc><c>H </c><c>   1</c></rc>
    <rc><c>H </c><c>   1</c></rc>
    <rc><c>C </c><c>   2</c></rc>
   </set>
  </array>
  <array name="atomtypes" >
   <dimension dim="1">type</dimension>
   <field type="int">atomspertype</field>
   <field type="string">element</field>
   <field>mass</field>
   <field>valence</field>
   <field type="string">pseudopotential</field>
   <set>
    <rc><c>   4</c><c>H </c><c>      1.00000000</c><c>      1.00000000</c><c>  PAW_PBE H 15Jun2001                   </c></rc>
    <rc><c>   1</c><c>C </c><c>     12.01100000</c><c>      4.00000000</c><c>  PAW_PBE C 08Apr2002                   </c></rc>
   </set>
  </array>
 </atominfo>
 <structure name="initialpos" >
  <crystal>
   <varray name="basis" >
    <v>       9.72923256       0.00000000       0.00000000 </v>
    <v>      -0.16378219      10.04058908       0.00000000 </v>
    <v>      -0.18568677       0.10216758       9.89969942 </v>
   </varray>
   <i name="volume">    967.07417649 </i>
   <varray name="rec_basis" >
    <v>       0.10278303       0.00167660       0.00191058 </v>
    <v>       0.00000000       0.09959575      -0.00102786 </v>
    <v>       0.00000000      -0.00000000       0.10101317 </v>
   </varray>
  </crystal>
  <varray name="positions" >
   <v>       0.53835588       0.40680146       0.36041895 </v>
   <v>       0.39456425       0.48037069       0.43847758 </v>
   <v>       0.55221016       0.56548168       0.44265397 </v>
   <v>       0.52816326       0.41645026       0.53922301 </v>
   <v>       0.50342114       0.46685603       0.44518332 </v>
  </varray>
  <varray name="velocities" >
   <v>      -0.00066833       0.00060839      -0.00113701 </v>
   <v>       0.00051486      -0.00097079       0.00261146 </v>
   <v>      -0.00153760      -0.00205183       0.00082720 </v>
   <v>      -0.00045692       0.00140341      -0.00012211 </v>
   <v>       0.00017884       0.00008416      -0.00018146 </v>
  </varray>
 </structure>
 <calculation>
  <scstep>
   <time name="dav">    2.43    2.43</time>
   <time name="total">    4.09    4.10</time>
   <energy>
    <i name="alphaZ">      0.25049867 </i>
    <i name="ewald">    129.94629031 </i>
    <i name="hartreedc">   -243.97510165 </i>
    <i name="XCdc">     22.07224072 </i>
    <i name="pawpsdc">    117.05815612 </i>
    <i name="pawaedc">   -117.66307307 </i>
    <i name="eentropy">      0.00289895 </i>
    <i name="bandstr">    -90.32047597 </i>
    <i name="atom">    197.04175453 </i>
    <i name="e_fr_energy">     14.41318862 </i>
    <i name="e_wo_entrp">     14.41028966 </i>
    <i name="e_0_energy">     14.41222230 </i>
   </energy>
  </scstep>
  <scstep>
   <time name="dav">    1.71    1.72</time>
   <time name="total">    1.71    1.72</time>
   <energy>
    <i name="e_fr_energy">    -23.13931430 </i>
    <i name="e_wo_entrp">    -23.14857773 </i>
    <i name="e_0_energy">    -23.14240211 </i>
   </energy>
  </scstep>
  <scstep>
   <time name="dav">    1.90    1.91</time>
   <time name="total">    1.90    1.91</time>
   <energy>
    <i name="e_fr_energy">    -27.59513706 </i>
    <i name="e_wo_entrp">    -27.62847888 </i>
    <i name="e_0_energy">    -27.60625100 </i>
   </energy>
  </scstep>
  <scstep>
   <time name="dav">    3.08    3.09</time>
   <time name="total">    3.08    3.09</time>
   <energy>
    <i name="e_fr_energy">    -27.72722246 </i>
    <i name="e_wo_entrp">    -27.76024411 </i>
    <i name="e_0_energy">    -27.73822968 </i>
   </energy>
  </scstep>
  <scstep>
   <time name="dav">    2.40    2.40</time>
   <time name="total">    2.59    2.59</time>
   <energy>
    <i name="e_fr_energy">    -27.72726456 </i>
    <i name="e_wo_entrp">    -27.76028604 </i>
    <i name="e_0_energy">    -27.73827172 </i>
   </energy>
  </scstep>
  <scstep>
   <time name="diag">    0.38    0.38</time>
   <time name="diis">    1.22    1.22</time>
   <time name="orth">    0.01    0.01</time>
   <time name="total">    3.45    3.45</time>
   <energy>
    <i name="e_fr_energy">    -24.68675912 </i>
    <i name="e_wo_entrp">    -24.72284041 </i>
    <i name="e_0_energy">    -24.69878622 </i>
   </energy>
  </scstep>
  <scstep>
   <time name="diag">    0.39    0.39</time>
   <time name="diis">    1.23    1.23</time>
   <time name="orth">    0.01    0.01</time>
   <time name="total">    3.48    3.49</time>
   <energy>
    <i name="e_fr_energy">    -24.16882127 </i>
    <i name="e_wo_entrp">    -24.20608158 </i>
    <i name="e_0_energy">    -24.18124137 </i>
   </energy>
  </scstep>
  <scstep>
   <time name="diag">    0.38    0.38</time>
   <time name="diis">    1.21    1.21</time>
   <time name="orth">    0.01    0.01</time>
   <time name="total">    3.43    3.44</time>
   <energy>
    <i name="e_fr_energy">    -24.03577756 </i>
    <i name="e_wo_entrp">    -24.07248856 </i>
    <i name="e_0_energy">    -24.04801456 </i>
   </energy>
  </scstep>
  <scstep>
   <time name="diag">    0.38    0.38</time>
   <time name="diis">    1.22    1.22</time>
   <time name="orth">    0.01    0.01</time>
   <time name="total">    3.46    3.47</time>
   <energy>
    <i name="e_fr_energy">    -24.01593408 </i>
    <i name="e_wo_entrp">    -24.05429963 </i>
    <i name="e_0_energy">    -24.02872259 </i>
   </energy>
  </scstep>
  <scstep>
   <time name="diag">    0.38    0.39</time>
   <time name="diis">    1.23    1.24</time>
   <time name="orth">    0.01    0.01</time>
   <time name="total">    3.48    3.49</time>
   <energy>
    <i name="e_fr_energy">    -24.01377027 </i>
    <i name="e_wo_entrp">    -24.05148735 </i>
    <i name="e_0_energy">    -24.02634263 </i>
   </energy>
  </scstep>
  <scstep>
   <time name="diag">    0.37    0.37</time>
   <time name="diis">    1.24    1.24</time>
   <time name="orth">    0.01    0.01</time>
   <time name="total">    3.46    3.47</time>
   <energy>
    <i name="e_fr_energy">    -24.01180817 </i>
    <i name="e_wo_entrp">    -24.04948269 </i>
    <i name="e_0_energy">    -24.02436635 </i>
   </energy>
  </scstep>
  <scstep>
   <time name="diag">    0.37    0.37</time>
   <time name="diis">    1.23    1.24</time>
   <time name="orth">    0.01    0.01</time>
   <time name="total">    3.36    3.37</time>
   <energy>
    <i name="e_fr_energy">    -24.00891065 </i>
    <i name="e_wo_entrp">    -24.04655711 </i>
    <i name="e_0_energy">    -24.02145947 </i>
   </energy>
  </scstep>
  <scstep>
   <time name="diag">    0.36    0.36</time>
   <time name="diis">    1.21    1.21</time>
   <time name="orth">    0.01    0.01</time>
   <time name="total">    3.32    3.32</time>
   <energy>
    <i name="e_fr_energy">    -24.01022273 </i>
    <i name="e_wo_entrp">    -24.04789591 </i>
    <i name="e_0_energy">    -24.02278045 </i>
   </energy>
  </scstep>
  <scstep>
   <time name="diag">    0.35    0.35</time>
   <time name="diis">    1.20    1.20</time>
   <time name="orth">    0.01    0.01</time>
   <time name="total">    3.21    3.22</time>
   <energy>
    <i name="e_fr_energy">    -24.01703056 </i>
    <i name="e_wo_entrp">    -24.05483364 </i>
    <i name="e_0_energy">    -24.02963158 </i>
   </energy>
  </scstep>
  <scstep>
   <time name="diag">    0.32    0.33</time>
   <time name="diis">    1.27    1.27</time>
   <time name="orth">    0.01    0.01</time>
   <time name="total">    3.48    3.50</time>
   <energy>
    <i name="e_fr_energy">    -24.01919822 </i>
    <i name="e_wo_entrp">    -24.05683956 </i>
    <i name="e_0_energy">    -24.03174534 </i>
   </energy>
  </scstep>
  <scstep>
   <time name="diag">    0.37    0.37</time>
   <time name="diis">    1.24    1.25</time>
   <time name="orth">    0.01    0.01</time>
   <time name="total">    3.34    3.35</time>
   <energy>
    <i name="e_fr_energy">    -24.02012183 </i>
    <i name="e_wo_entrp">    -24.05781338 </i>
    <i name="e_0_energy">    -24.03268568 </i>
   </energy>
  </scstep>
  <scstep>
   <time name="diag">    0.46    0.46</time>
   <time name="diis">    1.23    1.23</time>
   <time name="orth">    0.01    0.01</time>
   <time name="total">    3.31    3.32</time>
   <energy>
    <i name="e_fr_energy">    -24.02094198 </i>
    <i name="e_wo_entrp">    -24.05860350 </i>
    <i name="e_0_energy">    -24.03349582 </i>
   </energy>
  </scstep>
  <scstep>
   <time name="diag">    0.38    0.38</time>
   <time name="diis">    1.27    1.27</time>
   <time name="orth">    0.01    0.01</time>
   <time name="total">    3.29    3.30</time>
   <energy>
    <i name="e_fr_energy">    -24.02111448 </i>
    <i name="e_wo_entrp">    -24.05878483 </i>
    <i name="e_0_energy">    -24.03367127 </i>
   </energy>
  </scstep>
  <scstep>
   <time name="diag">    0.36    0.36</time>
   <time name="diis">    1.02    1.02</time>
   <time name="orth">    0.01    0.01</time>
   <time name="total">    3.06    3.07</time>
   <energy>
    <i name="e_fr_energy">    -24.02114155 </i>
    <i name="e_wo_entrp">    -24.05881813 </i>
    <i name="e_0_energy">    -24.03370041 </i>
   </energy>
  </scstep>
  <scstep>
   <time name="diag">    0.36    0.37</time>
   <time name="diis">    1.11    1.11</time>
   <time name="orth">    0.01    0.01</time>
   <time name="total">    3.20    3.21</time>
   <energy>
    <i name="e_fr_energy">    -24.02115612 </i>
    <i name="e_wo_entrp">    -24.05882612 </i>
    <i name="e_0_energy">    -24.03371279 </i>
   </energy>
  </scstep>
  <scstep>
   <time name="diag">    0.37    0.37</time>
   <time name="diis">    0.98    0.98</time>
   <time name="orth">    0.01    0.01</time>
   <time name="total">    3.10    3.11</time>
   <energy>
    <i name="e_fr_energy">    -24.02115813 </i>
    <i name="e_wo_entrp">    -24.05883065 </i>
    <i name="e_0_energy">    -24.03371564 </i>
   </energy>
  </scstep>
  <scstep>
   <time name="diag">    0.37    0.37</time>
   <time name="diis">    0.97    0.97</time>
   <time name="orth">    0.01    0.01</time>
   <time name="total">    3.32    3.33</time>
   <energy>
    <i name="e_fr_energy">    -24.02115920 </i>
    <i name="e_wo_entrp">    -24.05883176 </i>
    <i name="e_0_energy">    -24.03371672 </i>
   </energy>
  </scstep>
  <scstep>
   <time name="diag">    0.36    0.36</time>
   <time name="diis">    0.94    0.95</time>
   <time name="orth">    0.01    0.01</time>
   <time name="total">    2.96    2.97</time>
   <energy>
    <i name="alphaZ">      0.25049867 </i>
    <i name="ewald">    129.94629031 </i>
    <i name="hartreedc">   -285.49528179 </i>
    <i name="XCdc">     24.86734811 </i>
    <i name="pawpsdc">    491.13814218 </i>
    <i name="pawaedc">   -491.93680682 </i>
    <i name="eentropy">      0.03767245 </i>
    <i name="bandstr">    -89.87077737 </i>
    <i name="atom">    197.04175453 </i>
    <i name="e_fr_energy">    -24.02115973 </i>
    <i name="e_wo_entrp">    -24.05883218 </i>
    <i name="e_0_energy">    -24.03371721 </i>
   </energy>
  </scstep>
  <structure>
   <crystal>
    <varray name="basis" >
     <v>       9.72923256       0.00000000       0.00000000 </v>
     <v>      -0.16378219      10.04058908       0.00000000 </v>
     <v>      -0.18568677       0.10216758       9.89969942 </v>
    </varray>
    <i name="volume">    967.07417649 </i>
    <varray name="rec_basis" >
     <v>       0.10278303       0.00167660       0.00191058 </v>
     <v>       0.00000000       0.09959575      -0.00102786 </v>
     <v>       0.00000000      -0.00000000       0.10101317 </v>
    </varray>
   </crystal>
   <varray name="positions" >
    <v>       0.53835588       0.40680146       0.36041895 </v>
    <v>       0.39456425       0.48037069       0.43847758 </v>
    <v>       0.55221016       0.56548168       0.44265397 </v>
    <v>       0.52816326       0.41645026       0.53922301 </v>
    <v>       0.50342114       0.46685603       0.44518332 </v>
   </varray>
  </structure>
  <varray name="forces" >
   <v>      -0.08441765      -0.09999494      -0.24395805 </v>
   <v>      -1.16328427       0.47370000       0.24806018 </v>
   <v>       0.35927361       0.44438724      -0.06009087 </v>
   <v>      -0.70332265      -0.58072243       0.48735191 </v>
   <v>      -0.31471464       0.87058612       0.04392703 </v>
  </varray>
  <varray name="stress" >
   <v>       2.00181264      -0.43458905       0.58368810 </v>
   <v>      -0.43458905       1.27227211      -0.85702993 </v>
   <v>       0.58368810      -0.85702992      -0.01409319 </v>
  </varray>
  <energy>
   <i name="e_fr_energy">    -24.02115973 </i>
   <i name="e_wo_entrp">    -24.03371721 </i>
   <i name="e_0_energy">      0.03767245 </i>
   <i name="kinetic">      0.02908894 </i>
   <i name="lattice kinetic">      0.00000000 </i>
   <i name="nosepot">      0.00000000 </i>
   <i name="nosekinetic">      0.00000125 </i>
   <i name="total">    -23.99206953 </i>
  </energy>
  <dos>
   <i name="efermi">     -9.12955919 </i>
   <total>
    <array>
     <dimension dim="1">gridpoints</dimension>
     <dimension dim="2">spin</dimension>
     <field>energy</field>
     <field>total</field>
     <field>integrated</field>
     <set>
      <set comment="spin 1">
       <r>   -18.9621     0.0000     0.0000 </r>
       <r>   -18.8897     0.0000     0.0000 </r>
       <r>   -18.8174     0.0000     0.0000 </r>
       <r>   -18.7451     0.0000     0.0000 </r>
       <r>   -18.6728     0.0000     0.0000 </r>
       <r>   -18.6005    -0.0000    -0.0000 </r>
       <r>   -18.5282    -0.0000    -0.0000 </r>
       <r>   -18.4559    -0.0000    -0.0000 </r>
       <r>   -18.3836    -0.0000    -0.0000 </r>
       <r>   -18.3112    -0.0000    -0.0000 </r>
       <r>   -18.2389    -0.0000    -0.0000 </r>
       <r>   -18.1666    -0.0000    -0.0000 </r>
       <r>   -18.0943    -0.0000    -0.0000 </r>
       <r>   -18.0220    -0.0000    -0.0000 </r>
       <r>   -17.9497    -0.0000    -0.0000 </r>
       <r>   -17.8774    -0.0000    -0.0000 </r>
       <r>   -17.8050    -0.0000    -0.0000 </r>
       <r>   -17.7327    -0.0000    -0.0000 </r>
       <r>   -17.6604    -0.0001    -0.0000 </r>
       <r>   -17.5881    -0.0011    -0.0001 </r>
       <r>   -17.5158    -0.0076    -0.0006 </r>
       <r>   -17.4435    -0.0391    -0.0035 </r>
       <r>   -17.3712    -0.1423    -0.0138 </r>
       <r>   -17.2989    -0.3421    -0.0385 </r>
       <r>   -17.2265    -0.4128    -0.0683 </r>
       <r>   -17.1542     0.3759    -0.0412 </r>
       <r>   -17.0819     2.7894     0.1605 </r>
       <r>   -17.0096     6.2135     0.6099 </r>
       <r>   -16.9373     8.2676     1.2077 </r>
       <r>   -16.8650     7.1378     1.7239 </r>
       <r>   -16.7927     3.8486     2.0022 </r>
       <r>   -16.7204     0.9493     2.0708 </r>
       <r>   -16.6480    -0.3032     2.0489 </r>
       <r>   -16.5757    -0.4022     2.0198 </r>
       <r>   -16.5034    -0.1973     2.0055 </r>
       <r>   -16.4311    -0.0611     2.0011 </r>
       <r>   -16.3588    -0.0132     2.0002 </r>
       <r>   -16.2865    -0.0021     2.0000 </r>
       <r>   -16.2142    -0.0002     2.0000 </r>
       <r>   -16.1418    -0.0000     2.0000 </r>
       <r>   -16.0695    -0.0000     2.0000 </r>
       <r>   -15.9972    -0.0000     2.0000 </r>
       <r>   -15.9249    -0.0000     2.0000 </r>
       <r>   -15.8526    -0.0000     2.0000 </r>
       <r>   -15.7803    -0.0000     2.0000 </r>
       <r>   -15.7080    -0.0000     2.0000 </r>
       <r>   -15.6357     0.0000     2.0000 </r>
       <r>   -15.5633     0.0000     2.0000 </r>
       <r>   -15.4910     0.0000     2.0000 </r>
       <r>   -15.4187     0.0000     2.0000 </r>
       <r>   -15.3464     0.0000     2.0000 </r>
       <r>   -15.2741     0.0000     2.0000 </r>
       <r>   -15.2018     0.0000     2.0000 </r>
       <r>   -15.1295     0.0000     2.0000 </r>
       <r>   -15.0571     0.0000     2.0000 </r>
       <r>   -14.9848     0.0000     2.0000 </r>
       <r>   -14.9125     0.0000     2.0000 </r>
       <r>   -14.8402     0.0000     2.0000 </r>
       <r>   -14.7679     0.0000     2.0000 </r>
       <r>   -14.6956     0.0000     2.0000 </r>
       <r>   -14.6233     0.0000     2.0000 </r>
       <r>   -14.5510     0.0000     2.0000 </r>
       <r>   -14.4786     0.0000     2.0000 </r>
       <r>   -14.4063     0.0000     2.0000 </r>
       <r>   -14.3340     0.0000     2.0000 </r>
       <r>   -14.2617     0.0000     2.0000 </r>
       <r>   -14.1894     0.0000     2.0000 </r>
       <r>   -14.1171     0.0000     2.0000 </r>
       <r>   -14.0448     0.0000     2.0000 </r>
       <r>   -13.9724     0.0000     2.0000 </r>
       <r>   -13.9001     0.0000     2.0000 </r>
       <r>   -13.8278     0.0000     2.0000 </r>
       <r>   -13.7555     0.0000     2.0000 </r>
       <r>   -13.6832     0.0000     2.0000 </r>
       <r>   -13.6109     0.0000     2.0000 </r>
       <r>   -13.5386     0.0000     2.0000 </r>
       <r>   -13.4663     0.0000     2.0000 </r>
       <r>   -13.3939     0.0000     2.0000 </r>
       <r>   -13.3216     0.0000     2.0000 </r>
       <r>   -13.2493     0.0000     2.0000 </r>
       <r>   -13.1770     0.0000     2.0000 </r>
       <r>   -13.1047     0.0000     2.0000 </r>
       <r>   -13.0324     0.0000     2.0000 </r>
       <r>   -12.9601     0.0000     2.0000 </r>
       <r>   -12.8878     0.0000     2.0000 </r>
       <r>   -12.8154     0.0000     2.0000 </r>
       <r>   -12.7431     0.0000     2.0000 </r>
       <r>   -12.6708     0.0000     2.0000 </r>
       <r>   -12.5985     0.0000     2.0000 </r>
       <r>   -12.5262     0.0000     2.0000 </r>
       <r>   -12.4539     0.0000     2.0000 </r>
       <r>   -12.3816     0.0000     2.0000 </r>
       <r>   -12.3092     0.0000     2.0000 </r>
       <r>   -12.2369     0.0000     2.0000 </r>
       <r>   -12.1646     0.0000     2.0000 </r>
       <r>   -12.0923     0.0000     2.0000 </r>
       <r>   -12.0200     0.0000     2.0000 </r>
       <r>   -11.9477     0.0000     2.0000 </r>
       <r>   -11.8754     0.0000     2.0000 </r>
       <r>   -11.8031     0.0000     2.0000 </r>
       <r>   -11.7307     0.0000     2.0000 </r>
       <r>   -11.6584     0.0000     2.0000 </r>
       <r>   -11.5861     0.0000     2.0000 </r>
       <r>   -11.5138     0.0000     2.0000 </r>
       <r>   -11.4415     0.0000     2.0000 </r>
       <r>   -11.3692     0.0000     2.0000 </r>
       <r>   -11.2969     0.0000     2.0000 </r>
       <r>   -11.2245     0.0000     2.0000 </r>
       <r>   -11.1522     0.0000     2.0000 </r>
       <r>   -11.0799     0.0000     2.0000 </r>
       <r>   -11.0076    -0.0000     2.0000 </r>
       <r>   -10.9353    -0.0000     2.0000 </r>
       <r>   -10.8630    -0.0000     2.0000 </r>
       <r>   -10.7907    -0.0000     2.0000 </r>
       <r>   -10.7184    -0.0000     2.0000 </r>
       <r>   -10.6460    -0.0000     2.0000 </r>
       <r>   -10.5737    -0.0000     2.0000 </r>
       <r>   -10.5014    -0.0000     2.0000 </r>
       <r>   -10.4291    -0.0000     2.0000 </r>
       <r>   -10.3568    -0.0000     2.0000 </r>
       <r>   -10.2845    -0.0000     2.0000 </r>
       <r>   -10.2122    -0.0000     2.0000 </r>
       <r>   -10.1399    -0.0000     2.0000 </r>
       <r>   -10.0675    -0.0003     2.0000 </r>
       <r>    -9.9952    -0.0024     1.9998 </r>
       <r>    -9.9229    -0.0158     1.9987 </r>
       <r>    -9.8506    -0.0769     1.9931 </r>
       <r>    -9.7783    -0.2717     1.9734 </r>
       <r>    -9.7060    -0.6603     1.9257 </r>
       <r>    -9.6337    -0.9132     1.8597 </r>
       <r>    -9.5613     0.1979     1.8740 </r>
       <r>    -9.4890     4.4462     2.1955 </r>
       <r>    -9.4167    12.0700     3.0683 </r>
       <r>    -9.3444    19.7380     4.4956 </r>
       <r>    -9.2721    22.2092     6.1016 </r>
       <r>    -9.1998    17.4306     7.3621 </r>
       <r>    -9.1275     8.9679     8.0106 </r>
       <r>    -9.0552     2.1938     8.1692 </r>
       <r>    -8.9828    -0.6916     8.1192 </r>
       <r>    -8.9105    -0.9548     8.0502 </r>
       <r>    -8.8382    -0.4899     8.0148 </r>
       <r>    -8.7659    -0.1602     8.0032 </r>
       <r>    -8.6936    -0.0369     8.0005 </r>
       <r>    -8.6213    -0.0062     8.0001 </r>
       <r>    -8.5490    -0.0008     8.0000 </r>
       <r>    -8.4766    -0.0001     8.0000 </r>
       <r>    -8.4043    -0.0000     8.0000 </r>
       <r>    -8.3320    -0.0000     8.0000 </r>
       <r>    -8.2597    -0.0000     8.0000 </r>
       <r>    -8.1874    -0.0000     8.0000 </r>
       <r>    -8.1151    -0.0000     8.0000 </r>
       <r>    -8.0428    -0.0000     8.0000 </r>
       <r>    -7.9705     0.0000     8.0000 </r>
       <r>    -7.8981     0.0000     8.0000 </r>
       <r>    -7.8258     0.0000     8.0000 </r>
       <r>    -7.7535     0.0000     8.0000 </r>
       <r>    -7.6812     0.0000     8.0000 </r>
       <r>    -7.6089     0.0000     8.0000 </r>
       <r>    -7.5366     0.0000     8.0000 </r>
       <r>    -7.4643     0.0000     8.0000 </r>
       <r>    -7.3919     0.0000     8.0000 </r>
       <r>    -7.3196     0.0000     8.0000 </r>
       <r>    -7.2473     0.0000     8.0000 </r>
       <r>    -7.1750     0.0000     8.0000 </r>
       <r>    -7.1027     0.0000     8.0000 </r>
       <r>    -7.0304     0.0000     8.0000 </r>
       <r>    -6.9581     0.0000     8.0000 </r>
       <r>    -6.8858     0.0000     8.0000 </r>
       <r>    -6.8134     0.0000     8.0000 </r>
       <r>    -6.7411     0.0000     8.0000 </r>
       <r>    -6.6688     0.0000     8.0000 </r>
       <r>    -6.5965     0.0000     8.0000 </r>
       <r>    -6.5242     0.0000     8.0000 </r>
       <r>    -6.4519     0.0000     8.0000 </r>
       <r>    -6.3796     0.0000     8.0000 </r>
       <r>    -6.3073     0.0000     8.0000 </r>
       <r>    -6.2349     0.0000     8.0000 </r>
       <r>    -6.1626     0.0000     8.0000 </r>
       <r>    -6.0903     0.0000     8.0000 </r>
       <r>    -6.0180     0.0000     8.0000 </r>
       <r>    -5.9457     0.0000     8.0000 </r>
       <r>    -5.8734     0.0000     8.0000 </r>
       <r>    -5.8011     0.0000     8.0000 </r>
       <r>    -5.7287     0.0000     8.0000 </r>
       <r>    -5.6564     0.0000     8.0000 </r>
       <r>    -5.5841     0.0000     8.0000 </r>
       <r>    -5.5118     0.0000     8.0000 </r>
       <r>    -5.4395     0.0000     8.0000 </r>
       <r>    -5.3672     0.0000     8.0000 </r>
       <r>    -5.2949     0.0000     8.0000 </r>
       <r>    -5.2226     0.0000     8.0000 </r>
       <r>    -5.1502     0.0000     8.0000 </r>
       <r>    -5.0779     0.0000     8.0000 </r>
       <r>    -5.0056     0.0000     8.0000 </r>
       <r>    -4.9333     0.0000     8.0000 </r>
       <r>    -4.8610     0.0000     8.0000 </r>
       <r>    -4.7887     0.0000     8.0000 </r>
       <r>    -4.7164     0.0000     8.0000 </r>
       <r>    -4.6440     0.0000     8.0000 </r>
       <r>    -4.5717     0.0000     8.0000 </r>
       <r>    -4.4994     0.0000     8.0000 </r>
       <r>    -4.4271     0.0000     8.0000 </r>
       <r>    -4.3548     0.0000     8.0000 </r>
       <r>    -4.2825     0.0000     8.0000 </r>
       <r>    -4.2102     0.0000     8.0000 </r>
       <r>    -4.1379     0.0000     8.0000 </r>
       <r>    -4.0655     0.0000     8.0000 </r>
       <r>    -3.9932     0.0000     8.0000 </r>
       <r>    -3.9209     0.0000     8.0000 </r>
       <r>    -3.8486     0.0000     8.0000 </r>
       <r>    -3.7763     0.0000     8.0000 </r>
       <r>    -3.7040     0.0000     8.0000 </r>
       <r>    -3.6317     0.0000     8.0000 </r>
       <r>    -3.5594     0.0000     8.0000 </r>
       <r>    -3.4870     0.0000     8.0000 </r>
       <r>    -3.4147     0.0000     8.0000 </r>
       <r>    -3.3424     0.0000     8.0000 </r>
       <r>    -3.2701     0.0000     8.0000 </r>
       <r>    -3.1978     0.0000     8.0000 </r>
       <r>    -3.1255     0.0000     8.0000 </r>
       <r>    -3.0532     0.0000     8.0000 </r>
       <r>    -2.9808     0.0000     8.0000 </r>
       <r>    -2.9085     0.0000     8.0000 </r>
       <r>    -2.8362     0.0000     8.0000 </r>
       <r>    -2.7639     0.0000     8.0000 </r>
       <r>    -2.6916     0.0000     8.0000 </r>
       <r>    -2.6193     0.0000     8.0000 </r>
       <r>    -2.5470     0.0000     8.0000 </r>
       <r>    -2.4747     0.0000     8.0000 </r>
       <r>    -2.4023     0.0000     8.0000 </r>
       <r>    -2.3300     0.0000     8.0000 </r>
       <r>    -2.2577     0.0000     8.0000 </r>
       <r>    -2.1854     0.0000     8.0000 </r>
       <r>    -2.1131     0.0000     8.0000 </r>
       <r>    -2.0408     0.0000     8.0000 </r>
       <r>    -1.9685    -0.0000     8.0000 </r>
       <r>    -1.8961    -0.0000     8.0000 </r>
       <r>    -1.8238    -0.0000     8.0000 </r>
       <r>    -1.7515    -0.0000     8.0000 </r>
       <r>    -1.6792    -0.0000     8.0000 </r>
       <r>    -1.6069    -0.0000     8.0000 </r>
       <r>    -1.5346    -0.0000     8.0000 </r>
       <r>    -1.4623    -0.0000     8.0000 </r>
       <r>    -1.3900    -0.0000     8.0000 </r>
       <r>    -1.3176    -0.0000     8.0000 </r>
       <r>    -1.2453    -0.0000     8.0000 </r>
       <r>    -1.1730    -0.0000     8.0000 </r>
       <r>    -1.1007    -0.0000     8.0000 </r>
       <r>    -1.0284    -0.0000     8.0000 </r>
       <r>    -0.9561    -0.0004     8.0000 </r>
       <r>    -0.8838    -0.0032     7.9997 </r>
       <r>    -0.8114    -0.0190     7.9984 </r>
       <r>    -0.7391    -0.0815     7.9925 </r>
       <r>    -0.6668    -0.2411     7.9750 </r>
       <r>    -0.5945    -0.4299     7.9439 </r>
       <r>    -0.5222    -0.1608     7.9323 </r>
       <r>    -0.4499     1.4507     8.0372 </r>
       <r>    -0.3776     4.6141     8.3709 </r>
       <r>    -0.3053     7.6451     8.9237 </r>
       <r>    -0.2329     8.0642     9.5069 </r>
       <r>    -0.1606     5.4881     9.9037 </r>
       <r>    -0.0883     2.1250    10.0574 </r>
       <r>    -0.0160     0.0810    10.0633 </r>
       <r>     0.0563    -0.4518    10.0306 </r>
       <r>     0.1286    -0.3656    10.0041 </r>
       <r>     0.2009    -0.3598     9.9781 </r>
       <r>     0.2732    -0.6328     9.9324 </r>
       <r>     0.3456    -0.8538     9.8706 </r>
       <r>     0.4179     0.1046     9.8782 </r>
       <r>     0.4902     3.8801    10.1588 </r>
       <r>     0.5625    10.9106    10.9478 </r>
       <r>     0.6348    18.5344    12.2880 </r>
       <r>     0.7071    21.9051    13.8721 </r>
       <r>     0.7794    18.3093    15.1961 </r>
       <r>     0.8518    10.2808    15.9395 </r>
       <r>     0.9241     3.0724    16.1617 </r>
       <r>     0.9964    -0.4242    16.1310 </r>
       <r>     1.0687    -0.9918    16.0593 </r>
       <r>     1.1410    -0.5649    16.0184 </r>
       <r>     1.2133    -0.1973    16.0042 </r>
       <r>     1.2856    -0.0480    16.0007 </r>
       <r>     1.3579    -0.0085    16.0001 </r>
       <r>     1.4303    -0.0011    16.0000 </r>
       <r>     1.5026    -0.0001    16.0000 </r>
       <r>     1.5749    -0.0000    16.0000 </r>
       <r>     1.6472    -0.0000    16.0000 </r>
       <r>     1.7195    -0.0000    16.0000 </r>
       <r>     1.7918    -0.0000    16.0000 </r>
       <r>     1.8641    -0.0000    16.0000 </r>
       <r>     1.9365    -0.0000    16.0000 </r>
       <r>     2.0088    -0.0000    16.0000 </r>
       <r>     2.0811     0.0000    16.0000 </r>
       <r>     2.1534     0.0000    16.0000 </r>
       <r>     2.2257     0.0000    16.0000 </r>
       <r>     2.2980     0.0000    16.0000 </r>
       <r>     2.3703     0.0000    16.0000 </r>
       <r>     2.4426     0.0000    16.0000 </r>
       <r>     2.5150     0.0000    16.0000 </r>
       <r>     2.5873     0.0000    16.0000 </r>
       <r>     2.6596     0.0000    16.0000 </r>
       <r>     2.7319     0.0000    16.0000 </r>
      </set>
     </set>
    </array>
   </total>
  </dos>
  <time name="totalsc">   80.30   80.51</time>
 </calculation>
 <calculation>
  <scstep>
   <time name="dav">    1.72    1.73</time>
   <time name="total">    3.56    3.57</time>
   <energy>
    <i name="alphaZ">      0.25049867 </i>
    <i name="ewald">    126.43596412 </i>
    <i name="hartreedc">   -283.46357348 </i>
    <i name="XCdc">     24.76382841 </i>
    <i name="pawpsdc">    491.14288892 </i>
    <i name="pawaedc">   -491.94155189 </i>
    <i name="eentropy">      0.01246981 </i>
    <i name="bandstr">    -88.27084368 </i>
    <i name="atom">    197.04175453 </i>
    <i name="e_fr_energy">    -24.02856460 </i>
    <i name="e_wo_entrp">    -24.04103441 </i>
    <i name="e_0_energy">    -24.03272120 </i>
   </energy>
  </scstep>
  <scstep>
   <time name="diag">    0.37    0.37</time>
   <time name="diis">    1.22    1.22</time>
   <time name="orth">    0.01    0.01</time>
   <time name="total">    3.22    3.22</time>
   <energy>
    <i name="e_fr_energy">    -24.03912514 </i>
    <i name="e_wo_entrp">    -24.05315222 </i>
    <i name="e_0_energy">    -24.04380084 </i>
   </energy>
  </scstep>
  <scstep>
   <time name="diag">    0.38    0.38</time>
   <time name="diis">    1.22    1.23</time>
   <time name="orth">    0.01    0.01</time>
   <time name="total">    3.29    3.30</time>
   <energy>
    <i name="e_fr_energy">    -24.04244756 </i>
    <i name="e_wo_entrp">    -24.05776154 </i>
    <i name="e_0_energy">    -24.04755222 </i>
   </energy>
  </scstep>
  <scstep>
   <time name="diag">    0.38    0.38</time>
   <time name="diis">    1.21    1.21</time>
   <time name="orth">    0.01    0.01</time>
   <time name="total">    3.27    3.28</time>
   <energy>
    <i name="e_fr_energy">    -24.03218104 </i>
    <i name="e_wo_entrp">    -24.04904375 </i>
    <i name="e_0_energy">    -24.03780194 </i>
   </energy>
  </scstep>
  <scstep>
   <time name="diag">    0.37    0.38</time>
   <time name="diis">    1.22    1.23</time>
   <time name="orth">    0.01    0.01</time>
   <time name="total">    3.25    3.26</time>
   <energy>
    <i name="e_fr_energy">    -24.02668047 </i>
    <i name="e_wo_entrp">    -24.04383960 </i>
    <i name="e_0_energy">    -24.03240018 </i>
   </energy>
  </scstep>
  <scstep>
   <time name="diag">    0.37    0.37</time>
   <time name="diis">    1.26    1.26</time>
   <time name="orth">    0.01    0.01</time>
   <time name="total">    3.31    3.32</time>
   <energy>
    <i name="e_fr_energy">    -24.02427655 </i>
    <i name="e_wo_entrp">    -24.04087974 </i>
    <i name="e_0_energy">    -24.02981095 </i>
   </energy>
  </scstep>
  <scstep>
   <time name="diag">    0.37    0.37</time>
   <time name="diis">    1.25    1.25</time>
   <time name="orth">    0.01    0.01</time>
   <time name="total">    3.31    3.32</time>
   <energy>
    <i name="e_fr_energy">    -24.02343535 </i>
    <i name="e_wo_entrp">    -24.03953630 </i>
    <i name="e_0_energy">    -24.02880233 </i>
   </energy>
  </scstep>
  <scstep>
   <time name="diag">    0.36    0.36</time>
   <time name="diis">    1.22    1.22</time>
   <time name="orth">    0.01    0.01</time>
   <time name="total">    3.28    3.29</time>
   <energy>
    <i name="e_fr_energy">    -24.02312078 </i>
    <i name="e_wo_entrp">    -24.03872793 </i>
    <i name="e_0_energy">    -24.02832316 </i>
   </energy>
  </scstep>
  <scstep>
   <time name="diag">    0.35    0.35</time>
   <time name="diis">    1.27    1.28</time>
   <time name="orth">    0.01    0.01</time>
   <time name="total">    3.39    3.40</time>
   <energy>
    <i name="e_fr_energy">    -24.02215947 </i>
    <i name="e_wo_entrp">    -24.03702932 </i>
    <i name="e_0_energy">    -24.02711609 </i>
   </energy>
  </scstep>
  <scstep>
   <time name="diag">    0.36    0.36</time>
   <time name="diis">    1.24    1.24</time>
   <time name="orth">    0.01    0.01</time>
   <time name="total">    3.42    3.43</time>
   <energy>
    <i name="e_fr_energy">    -24.02188659 </i>
    <i name="e_wo_entrp">    -24.03650316 </i>
    <i name="e_0_energy">    -24.02675878 </i>
   </energy>
  </scstep>
  <scstep>
   <time name="diag">    0.36    0.36</time>
   <time name="diis">    1.21    1.21</time>
   <time name="orth">    0.01    0.01</time>
   <time name="total">    3.38    3.39</time>
   <energy>
    <i name="e_fr_energy">    -24.02147164 </i>
    <i name="e_wo_entrp">    -24.03552517 </i>
    <i name="e_0_energy">    -24.02615615 </i>
   </energy>
  </scstep>
  <scstep>
   <time name="diag">    0.37    0.37</time>
   <time name="diis">    1.23    1.23</time>
   <time name="orth">    0.01    0.01</time>
   <time name="total">    3.41    3.42</time>
   <energy>
    <i name="e_fr_energy">    -24.02137201 </i>
    <i name="e_wo_entrp">    -24.03524604 </i>
    <i name="e_0_energy">    -24.02599668 </i>
   </energy>
  </scstep>
  <scstep>
   <time name="diag">    0.38    0.39</time>
   <time name="diis">    1.22    1.22</time>
   <time name="orth">    0.01    0.01</time>
   <time name="total">    3.40    3.41</time>
   <energy>
    <i name="e_fr_energy">    -24.02137360 </i>
    <i name="e_wo_entrp">    -24.03521267 </i>
    <i name="e_0_energy">    -24.02598662 </i>
   </energy>
  </scstep>
  <scstep>
   <time name="diag">    0.37    0.37</time>
   <time name="diis">    1.23    1.24</time>
   <time name="orth">    0.01    0.01</time>
   <time name="total">    3.34    3.35</time>
   <energy>
    <i name="e_fr_energy">    -24.02137410 </i>
    <i name="e_wo_entrp">    -24.03515375 </i>
    <i name="e_0_energy">    -24.02596732 </i>
   </energy>
  </scstep>
  <scstep>
   <time name="diag">    0.37    0.37</time>
   <time name="diis">    1.24    1.24</time>
   <time name="orth">    0.01    0.01</time>
   <time name="total">    3.35    3.36</time>
   <energy>
    <i name="e_fr_energy">    -24.02137595 </i>
    <i name="e_wo_entrp">    -24.03509302 </i>
    <i name="e_0_energy">    -24.02594830 </i>
   </energy>
  </scstep>
  <scstep>
   <time name="diag">    0.38    0.38</time>
   <time name="diis">    1.22    1.22</time>
   <time name="orth">    0.01    0.01</time>
   <time name="total">    3.35    3.36</time>
   <energy>
    <i name="e_fr_energy">    -24.02137863 </i>
    <i name="e_wo_entrp">    -24.03506770 </i>
    <i name="e_0_energy">    -24.02594165 </i>
   </energy>
  </scstep>
  <scstep>
   <time name="diag">    0.35    0.35</time>
   <time name="diis">    0.96    0.97</time>
   <time name="orth">    0.01    0.01</time>
   <time name="total">    3.07    3.08</time>
   <energy>
    <i name="e_fr_energy">    -24.02138181 </i>
    <i name="e_wo_entrp">    -24.03507176 </i>
    <i name="e_0_energy">    -24.02594513 </i>
   </energy>
  </scstep>
  <scstep>
   <time name="diag">    0.37    0.38</time>
   <time name="diis">    0.96    0.96</time>
   <time name="orth">    0.01    0.01</time>
   <time name="total">    3.13    3.14</time>
   <energy>
    <i name="e_fr_energy">    -24.02138318 </i>
    <i name="e_wo_entrp">    -24.03507669 </i>
    <i name="e_0_energy">    -24.02594769 </i>
   </energy>
  </scstep>
  <scstep>
   <time name="diag">    0.37    0.37</time>
   <time name="diis">    0.96    0.96</time>
   <time name="orth">    0.01    0.01</time>
   <time name="total">    2.92    2.92</time>
   <energy>
    <i name="alphaZ">      0.25049867 </i>
    <i name="ewald">    126.43596412 </i>
    <i name="hartreedc">   -282.36015353 </i>
    <i name="XCdc">     24.70026989 </i>
    <i name="pawpsdc">    467.68644077 </i>
    <i name="pawaedc">   -468.47170476 </i>
    <i name="eentropy">      0.01369342 </i>
    <i name="bandstr">    -89.31814645 </i>
    <i name="atom">    197.04175453 </i>
    <i name="e_fr_energy">    -24.02138335 </i>
    <i name="e_wo_entrp">    -24.03507677 </i>
    <i name="e_0_energy">    -24.02594783 </i>
   </energy>
  </scstep>
  <structure>
   <crystal>
    <varray name="basis" >
     <v>       9.72923256       0.00000000       0.00000000 </v>
     <v>      -0.16378219      10.04058908       0.00000000 </v>
     <v>      -0.18568677       0.10216758       9.89969942 </v>
    </varray>
    <i name="volume">    967.07417649 </i>
    <varray name="rec_basis" >
     <v>       0.10278303       0.00167660       0.00191058 </v>
     <v>       0.00000000       0.09959575      -0.00102786 </v>
     <v>       0.00000000      -0.00000000       0.10101317 </v>
    </varray>
   </crystal>
   <varray name="positions" >
    <v>       0.53779437       0.40677013       0.35821642 </v>
    <v>       0.39098036       0.48094621       0.44193803 </v>
    <v>       0.55258818       0.56487659       0.44313067 </v>
    <v>       0.52538167       0.41533723       0.54088452 </v>
    <v>       0.50396639       0.46695377       0.44490057 </v>
   </varray>
  </structure>
  <varray name="forces" >
   <v>      -0.16367094       0.11892987       0.48494949 </v>
   <v>       0.65125931      -0.87539274      -0.31635408 </v>
   <v>       0.46760003       0.61962146      -0.11987809 </v>
   <v>       0.32718665      -0.03740601       0.26477006 </v>
   <v>      -1.06972327       0.40292357      -0.18449039 </v>
  </varray>
  <varray name="stress" >
   <v>      -0.47965024       0.81582417       1.30634330 </v>
   <v>       0.81582418       0.57493182      -0.27515622 </v>
   <v>       1.30634330      -0.27515622      -1.07028380 </v>
  </varray>
  <energy>
   <i name="e_fr_energy">    -24.02138335 </i>
   <i name="e_wo_entrp">    -24.02594783 </i>
   <i name="e_0_energy">      0.01369342 </i>
   <i name="kinetic">      0.04131598 </i>
   <i name="lattice kinetic">      0.00000000 </i>
   <i name="nosepot">      0.00007983 </i>
   <i name="nosekinetic">      0.00005768 </i>
   <i name="total">    -23.97992986 </i>
  </energy>
  <dos>
   <i name="efermi">     -8.87972933 </i>
   <total>
    <array>
     <dimension dim="1">gridpoints</dimension>
     <dimension dim="2">spin</dimension>
     <field>energy</field>
     <field>total</field>
     <field>integrated</field>
     <set>
      <set comment="spin 1">
       <r>   -18.8535     0.0000     0.0000 </r>
       <r>   -18.7815     0.0000     0.0000 </r>
       <r>   -18.7096     0.0000     0.0000 </r>
       <r>   -18.6376     0.0000     0.0000 </r>
       <r>   -18.5657     0.0000     0.0000 </r>
       <r>   -18.4938    -0.0000    -0.0000 </r>
       <r>   -18.4218    -0.0000    -0.0000 </r>
       <r>   -18.3499    -0.0000    -0.0000 </r>
       <r>   -18.2779    -0.0000    -0.0000 </r>
       <r>   -18.2060    -0.0000    -0.0000 </r>
       <r>   -18.1340    -0.0000    -0.0000 </r>
       <r>   -18.0621    -0.0000    -0.0000 </r>
       <r>   -17.9902    -0.0000    -0.0000 </r>
       <r>   -17.9182    -0.0000    -0.0000 </r>
       <r>   -17.8463    -0.0000    -0.0000 </r>
       <r>   -17.7743    -0.0000    -0.0000 </r>
       <r>   -17.7024    -0.0000    -0.0000 </r>
       <r>   -17.6304    -0.0000    -0.0000 </r>
       <r>   -17.5585    -0.0001    -0.0000 </r>
       <r>   -17.4865    -0.0009    -0.0001 </r>
       <r>   -17.4146    -0.0064    -0.0005 </r>
       <r>   -17.3427    -0.0335    -0.0029 </r>
       <r>   -17.2707    -0.1257    -0.0120 </r>
       <r>   -17.1988    -0.3173    -0.0348 </r>
       <r>   -17.1268    -0.4311    -0.0658 </r>
       <r>   -17.0549     0.1963    -0.0517 </r>
       <r>   -16.9829     2.3823     0.1197 </r>
       <r>   -16.9110     5.7685     0.5347 </r>
       <r>   -16.8391     8.1573     1.1216 </r>
       <r>   -16.7671     7.4937     1.6607 </r>
       <r>   -16.6952     4.3782     1.9757 </r>
       <r>   -16.6232     1.2985     2.0691 </r>
       <r>   -16.5513    -0.2050     2.0543 </r>
       <r>   -16.4793    -0.4252     2.0237 </r>
       <r>   -16.4074    -0.2314     2.0071 </r>
       <r>   -16.3355    -0.0772     2.0015 </r>
       <r>   -16.2635    -0.0179     2.0002 </r>
       <r>   -16.1916    -0.0030     2.0000 </r>
       <r>   -16.1196    -0.0004     2.0000 </r>
       <r>   -16.0477    -0.0000     2.0000 </r>
       <r>   -15.9757    -0.0000     2.0000 </r>
       <r>   -15.9038    -0.0000     2.0000 </r>
       <r>   -15.8318    -0.0000     2.0000 </r>
       <r>   -15.7599    -0.0000     2.0000 </r>
       <r>   -15.6880    -0.0000     2.0000 </r>
       <r>   -15.6160    -0.0000     2.0000 </r>
       <r>   -15.5441     0.0000     2.0000 </r>
       <r>   -15.4721     0.0000     2.0000 </r>
       <r>   -15.4002     0.0000     2.0000 </r>
       <r>   -15.3282     0.0000     2.0000 </r>
       <r>   -15.2563     0.0000     2.0000 </r>
       <r>   -15.1844     0.0000     2.0000 </r>
       <r>   -15.1124     0.0000     2.0000 </r>
       <r>   -15.0405     0.0000     2.0000 </r>
       <r>   -14.9685     0.0000     2.0000 </r>
       <r>   -14.8966     0.0000     2.0000 </r>
       <r>   -14.8246     0.0000     2.0000 </r>
       <r>   -14.7527     0.0000     2.0000 </r>
       <r>   -14.6808     0.0000     2.0000 </r>
       <r>   -14.6088     0.0000     2.0000 </r>
       <r>   -14.5369     0.0000     2.0000 </r>
       <r>   -14.4649     0.0000     2.0000 </r>
       <r>   -14.3930     0.0000     2.0000 </r>
       <r>   -14.3210     0.0000     2.0000 </r>
       <r>   -14.2491     0.0000     2.0000 </r>
       <r>   -14.1771     0.0000     2.0000 </r>
       <r>   -14.1052     0.0000     2.0000 </r>
       <r>   -14.0333     0.0000     2.0000 </r>
       <r>   -13.9613     0.0000     2.0000 </r>
       <r>   -13.8894     0.0000     2.0000 </r>
       <r>   -13.8174     0.0000     2.0000 </r>
       <r>   -13.7455     0.0000     2.0000 </r>
       <r>   -13.6735     0.0000     2.0000 </r>
       <r>   -13.6016     0.0000     2.0000 </r>
       <r>   -13.5297     0.0000     2.0000 </r>
       <r>   -13.4577     0.0000     2.0000 </r>
       <r>   -13.3858     0.0000     2.0000 </r>
       <r>   -13.3138     0.0000     2.0000 </r>
       <r>   -13.2419     0.0000     2.0000 </r>
       <r>   -13.1699     0.0000     2.0000 </r>
       <r>   -13.0980     0.0000     2.0000 </r>
       <r>   -13.0261     0.0000     2.0000 </r>
       <r>   -12.9541     0.0000     2.0000 </r>
       <r>   -12.8822     0.0000     2.0000 </r>
       <r>   -12.8102     0.0000     2.0000 </r>
       <r>   -12.7383     0.0000     2.0000 </r>
       <r>   -12.6663     0.0000     2.0000 </r>
       <r>   -12.5944     0.0000     2.0000 </r>
       <r>   -12.5225     0.0000     2.0000 </r>
       <r>   -12.4505     0.0000     2.0000 </r>
       <r>   -12.3786     0.0000     2.0000 </r>
       <r>   -12.3066     0.0000     2.0000 </r>
       <r>   -12.2347     0.0000     2.0000 </r>
       <r>   -12.1627     0.0000     2.0000 </r>
       <r>   -12.0908     0.0000     2.0000 </r>
       <r>   -12.0188     0.0000     2.0000 </r>
       <r>   -11.9469     0.0000     2.0000 </r>
       <r>   -11.8750     0.0000     2.0000 </r>
       <r>   -11.8030     0.0000     2.0000 </r>
       <r>   -11.7311     0.0000     2.0000 </r>
       <r>   -11.6591     0.0000     2.0000 </r>
       <r>   -11.5872     0.0000     2.0000 </r>
       <r>   -11.5152     0.0000     2.0000 </r>
       <r>   -11.4433     0.0000     2.0000 </r>
       <r>   -11.3714     0.0000     2.0000 </r>
       <r>   -11.2994     0.0000     2.0000 </r>
       <r>   -11.2275     0.0000     2.0000 </r>
       <r>   -11.1555     0.0000     2.0000 </r>
       <r>   -11.0836    -0.0000     2.0000 </r>
       <r>   -11.0116    -0.0000     2.0000 </r>
       <r>   -10.9397    -0.0000     2.0000 </r>
       <r>   -10.8678    -0.0000     2.0000 </r>
       <r>   -10.7958    -0.0000     2.0000 </r>
       <r>   -10.7239    -0.0000     2.0000 </r>
       <r>   -10.6519    -0.0000     2.0000 </r>
       <r>   -10.5800    -0.0000     2.0000 </r>
       <r>   -10.5080    -0.0000     2.0000 </r>
       <r>   -10.4361    -0.0000     2.0000 </r>
       <r>   -10.3641    -0.0000     2.0000 </r>
       <r>   -10.2922    -0.0000     2.0000 </r>
       <r>   -10.2203    -0.0000     2.0000 </r>
       <r>   -10.1483    -0.0000     2.0000 </r>
       <r>   -10.0764    -0.0004     2.0000 </r>
       <r>   -10.0044    -0.0035     1.9997 </r>
       <r>    -9.9325    -0.0213     1.9982 </r>
       <r>    -9.8605    -0.0965     1.9912 </r>
       <r>    -9.7886    -0.3124     1.9688 </r>
       <r>    -9.7167    -0.6625     1.9211 </r>
       <r>    -9.6447    -0.6302     1.8758 </r>
       <r>    -9.5728     1.1125     1.9558 </r>
       <r>    -9.5008     5.6926     2.3653 </r>
       <r>    -9.4289    11.7656     3.2118 </r>
       <r>    -9.3569    15.2885     4.3117 </r>
       <r>    -9.2850    13.5910     5.2895 </r>
       <r>    -9.2131     9.0567     5.9411 </r>
       <r>    -9.1411     6.4241     6.4032 </r>
       <r>    -9.0692     6.9168     6.9009 </r>
       <r>    -8.9972     7.5129     7.4414 </r>
       <r>    -8.9253     5.7551     7.8554 </r>
       <r>    -8.8533     2.6277     8.0444 </r>
       <r>    -8.7814     0.3417     8.0690 </r>
       <r>    -8.7094    -0.4185     8.0389 </r>
       <r>    -8.6375    -0.3459     8.0140 </r>
       <r>    -8.5656    -0.1453     8.0036 </r>
       <r>    -8.4936    -0.0405     8.0007 </r>
       <r>    -8.4217    -0.0080     8.0001 </r>
       <r>    -8.3497    -0.0012     8.0000 </r>
       <r>    -8.2778    -0.0001     8.0000 </r>
       <r>    -8.2058    -0.0000     8.0000 </r>
       <r>    -8.1339    -0.0000     8.0000 </r>
       <r>    -8.0620    -0.0000     8.0000 </r>
       <r>    -7.9900    -0.0000     8.0000 </r>
       <r>    -7.9181    -0.0000     8.0000 </r>
       <r>    -7.8461    -0.0000     8.0000 </r>
       <r>    -7.7742    -0.0000     8.0000 </r>
       <r>    -7.7022     0.0000     8.0000 </r>
       <r>    -7.6303     0.0000     8.0000 </r>
       <r>    -7.5584     0.0000     8.0000 </r>
       <r>    -7.4864     0.0000     8.0000 </r>
       <r>    -7.4145     0.0000     8.0000 </r>
       <r>    -7.3425     0.0000     8.0000 </r>
       <r>    -7.2706     0.0000     8.0000 </r>
       <r>    -7.1986     0.0000     8.0000 </r>
       <r>    -7.1267     0.0000     8.0000 </r>
       <r>    -7.0548     0.0000     8.0000 </r>
       <r>    -6.9828     0.0000     8.0000 </r>
       <r>    -6.9109     0.0000     8.0000 </r>
       <r>    -6.8389     0.0000     8.0000 </r>
       <r>    -6.7670     0.0000     8.0000 </r>
       <r>    -6.6950     0.0000     8.0000 </r>
       <r>    -6.6231     0.0000     8.0000 </r>
       <r>    -6.5511     0.0000     8.0000 </r>
       <r>    -6.4792     0.0000     8.0000 </r>
       <r>    -6.4073     0.0000     8.0000 </r>
       <r>    -6.3353     0.0000     8.0000 </r>
       <r>    -6.2634     0.0000     8.0000 </r>
       <r>    -6.1914     0.0000     8.0000 </r>
       <r>    -6.1195     0.0000     8.0000 </r>
       <r>    -6.0475     0.0000     8.0000 </r>
       <r>    -5.9756     0.0000     8.0000 </r>
       <r>    -5.9037     0.0000     8.0000 </r>
       <r>    -5.8317     0.0000     8.0000 </r>
       <r>    -5.7598     0.0000     8.0000 </r>
       <r>    -5.6878     0.0000     8.0000 </r>
       <r>    -5.6159     0.0000     8.0000 </r>
       <r>    -5.5439     0.0000     8.0000 </r>
       <r>    -5.4720     0.0000     8.0000 </r>
       <r>    -5.4001     0.0000     8.0000 </r>
       <r>    -5.3281     0.0000     8.0000 </r>
       <r>    -5.2562     0.0000     8.0000 </r>
       <r>    -5.1842     0.0000     8.0000 </r>
       <r>    -5.1123     0.0000     8.0000 </r>
       <r>    -5.0403     0.0000     8.0000 </r>
       <r>    -4.9684     0.0000     8.0000 </r>
       <r>    -4.8964     0.0000     8.0000 </r>
       <r>    -4.8245     0.0000     8.0000 </r>
       <r>    -4.7526     0.0000     8.0000 </r>
       <r>    -4.6806     0.0000     8.0000 </r>
       <r>    -4.6087     0.0000     8.0000 </r>
       <r>    -4.5367     0.0000     8.0000 </r>
       <r>    -4.4648     0.0000     8.0000 </r>
       <r>    -4.3928     0.0000     8.0000 </r>
       <r>    -4.3209     0.0000     8.0000 </r>
       <r>    -4.2490     0.0000     8.0000 </r>
       <r>    -4.1770     0.0000     8.0000 </r>
       <r>    -4.1051     0.0000     8.0000 </r>
       <r>    -4.0331     0.0000     8.0000 </r>
       <r>    -3.9612     0.0000     8.0000 </r>
       <r>    -3.8892     0.0000     8.0000 </r>
       <r>    -3.8173     0.0000     8.0000 </r>
       <r>    -3.7454     0.0000     8.0000 </r>
       <r>    -3.6734     0.0000     8.0000 </r>
       <r>    -3.6015     0.0000     8.0000 </r>
       <r>    -3.5295     0.0000     8.0000 </r>
       <r>    -3.4576     0.0000     8.0000 </r>
       <r>    -3.3856     0.0000     8.0000 </r>
       <r>    -3.3137     0.0000     8.0000 </r>
       <r>    -3.2417     0.0000     8.0000 </r>
       <r>    -3.1698     0.0000     8.0000 </r>
       <r>    -3.0979     0.0000     8.0000 </r>
       <r>    -3.0259     0.0000     8.0000 </r>
       <r>    -2.9540     0.0000     8.0000 </r>
       <r>    -2.8820     0.0000     8.0000 </r>
       <r>    -2.8101     0.0000     8.0000 </r>
       <r>    -2.7381     0.0000     8.0000 </r>
       <r>    -2.6662     0.0000     8.0000 </r>
       <r>    -2.5943     0.0000     8.0000 </r>
       <r>    -2.5223     0.0000     8.0000 </r>
       <r>    -2.4504     0.0000     8.0000 </r>
       <r>    -2.3784     0.0000     8.0000 </r>
       <r>    -2.3065     0.0000     8.0000 </r>
       <r>    -2.2345     0.0000     8.0000 </r>
       <r>    -2.1626     0.0000     8.0000 </r>
       <r>    -2.0907     0.0000     8.0000 </r>
       <r>    -2.0187     0.0000     8.0000 </r>
       <r>    -1.9468    -0.0000     8.0000 </r>
       <r>    -1.8748    -0.0000     8.0000 </r>
       <r>    -1.8029    -0.0000     8.0000 </r>
       <r>    -1.7309    -0.0000     8.0000 </r>
       <r>    -1.6590    -0.0000     8.0000 </r>
       <r>    -1.5871    -0.0000     8.0000 </r>
       <r>    -1.5151    -0.0000     8.0000 </r>
       <r>    -1.4432    -0.0000     8.0000 </r>
       <r>    -1.3712    -0.0000     8.0000 </r>
       <r>    -1.2993    -0.0000     8.0000 </r>
       <r>    -1.2273    -0.0000     8.0000 </r>
       <r>    -1.1554    -0.0000     8.0000 </r>
       <r>    -1.0834    -0.0000     8.0000 </r>
       <r>    -1.0115    -0.0001     8.0000 </r>
       <r>    -0.9396    -0.0012     7.9999 </r>
       <r>    -0.8676    -0.0083     7.9993 </r>
       <r>    -0.7957    -0.0416     7.9963 </r>
       <r>    -0.7237    -0.1480     7.9857 </r>
       <r>    -0.6518    -0.3486     7.9606 </r>
       <r>    -0.5798    -0.4073     7.9313 </r>
       <r>    -0.5079     0.4084     7.9607 </r>
       <r>    -0.4360     2.8398     8.1650 </r>
       <r>    -0.3640     6.2470     8.6144 </r>
       <r>    -0.2921     8.2700     9.2094 </r>
       <r>    -0.2201     7.1366     9.7228 </r>
       <r>    -0.1482     3.8654    10.0009 </r>
       <r>    -0.0762     0.9700    10.0707 </r>
       <r>    -0.0043    -0.2991    10.0492 </r>
       <r>     0.0676    -0.4289    10.0183 </r>
       <r>     0.1396    -0.3055     9.9963 </r>
       <r>     0.2115    -0.3909     9.9682 </r>
       <r>     0.2835    -0.7122     9.9170 </r>
       <r>     0.3554    -0.7600     9.8623 </r>
       <r>     0.4274     0.7563     9.9167 </r>
       <r>     0.4993     5.3077    10.2986 </r>
       <r>     0.5713    12.6838    11.2111 </r>
       <r>     0.6432    19.6265    12.6231 </r>
       <r>     0.7151    21.5493    14.1734 </r>
       <r>     0.7871    16.8041    15.3824 </r>
       <r>     0.8590     8.6924    16.0077 </r>
       <r>     0.9310     2.1729    16.1640 </r>
       <r>     1.0029    -0.6510    16.1172 </r>
       <r>     1.0749    -0.9344    16.0500 </r>
       <r>     1.1468    -0.4875    16.0149 </r>
       <r>     1.2187    -0.1619    16.0033 </r>
       <r>     1.2907    -0.0379    16.0005 </r>
       <r>     1.3626    -0.0065    16.0001 </r>
       <r>     1.4346    -0.0008    16.0000 </r>
       <r>     1.5065    -0.0001    16.0000 </r>
       <r>     1.5785    -0.0000    16.0000 </r>
       <r>     1.6504    -0.0000    16.0000 </r>
       <r>     1.7223    -0.0000    16.0000 </r>
       <r>     1.7943    -0.0000    16.0000 </r>
       <r>     1.8662    -0.0000    16.0000 </r>
       <r>     1.9382    -0.0000    16.0000 </r>
       <r>     2.0101    -0.0000    16.0000 </r>
       <r>     2.0821     0.0000    16.0000 </r>
       <r>     2.1540     0.0000    16.0000 </r>
       <r>     2.2260     0.0000    16.0000 </r>
       <r>     2.2979     0.0000    16.0000 </r>
       <r>     2.3698     0.0000    16.0000 </r>
       <r>     2.4418     0.0000    16.0000 </r>
       <r>     2.5137     0.0000    16.0000 </r>
       <r>     2.5857     0.0000    16.0000 </r>
       <r>     2.6576     0.0000    16.0000 </r>
       <r>     2.7296     0.0000    16.0000 </r>
      </set>
     </set>
    </array>
   </total>
  </dos>
  <time name="totalsc">   69.72   69.90</time>
 </calculation>
 <calculation>
  <scstep>
   <time name="dav">    1.79    1.80</time>
   <time name="total">    3.59    3.60</time>
   <energy>
    <i name="alphaZ">      0.25049867 </i>
    <i name="ewald">    123.27491267 </i>
    <i name="hartreedc">   -279.97726529 </i>
    <i name="XCdc">     24.57641335 </i>
    <i name="pawpsdc">    456.37834144 </i>
    <i name="pawaedc">   -457.15712206 </i>
    <i name="eentropy">      0.01182795 </i>
    <i name="bandstr">    -88.40414884 </i>
    <i name="atom">    197.04175453 </i>
    <i name="e_fr_energy">    -24.00478760 </i>
    <i name="e_wo_entrp">    -24.01661555 </i>
    <i name="e_0_energy">    -24.00873025 </i>
   </energy>
  </scstep>
  <scstep>
   <time name="diag">    0.37    0.37</time>
   <time name="diis">    1.28    1.28</time>
   <time name="orth">    0.01    0.01</time>
   <time name="total">    3.46    3.47</time>
   <energy>
    <i name="e_fr_energy">    -24.01648046 </i>
    <i name="e_wo_entrp">    -24.02818356 </i>
    <i name="e_0_energy">    -24.02038150 </i>
   </energy>
  </scstep>
  <scstep>
   <time name="diag">    0.41    0.41</time>
   <time name="diis">    1.31    1.31</time>
   <time name="orth">    0.01    0.01</time>
   <time name="total">    3.47    3.48</time>
   <energy>
    <i name="e_fr_energy">    -24.00650732 </i>
    <i name="e_wo_entrp">    -24.01830715 </i>
    <i name="e_0_energy">    -24.01044059 </i>
   </energy>
  </scstep>
  <scstep>
   <time name="diag">    0.38    0.38</time>
   <time name="diis">    1.26    1.26</time>
   <time name="orth">    0.02    0.02</time>
   <time name="total">    3.41    3.41</time>
   <energy>
    <i name="e_fr_energy">    -24.00713733 </i>
    <i name="e_wo_entrp">    -24.01890769 </i>
    <i name="e_0_energy">    -24.01106079 </i>
   </energy>
  </scstep>
  <scstep>
   <time name="diag">    0.37    0.37</time>
   <time name="diis">    1.20    1.21</time>
   <time name="orth">    0.01    0.01</time>
   <time name="total">    3.32    3.32</time>
   <energy>
    <i name="e_fr_energy">    -24.00494354 </i>
    <i name="e_wo_entrp">    -24.01662690 </i>
    <i name="e_0_energy">    -24.00883799 </i>
   </energy>
  </scstep>
  <scstep>
   <time name="diag">    0.37    0.37</time>
   <time name="diis">    1.23    1.23</time>
   <time name="orth">    0.01    0.01</time>
   <time name="total">    3.31    3.32</time>
   <energy>
    <i name="e_fr_energy">    -24.00445448 </i>
    <i name="e_wo_entrp">    -24.01612029 </i>
    <i name="e_0_energy">    -24.00834308 </i>
   </energy>
  </scstep>
  <scstep>
   <time name="diag">    0.38    0.38</time>
   <time name="diis">    1.24    1.24</time>
   <time name="orth">    0.01    0.01</time>
   <time name="total">    3.37    3.38</time>
   <energy>
    <i name="e_fr_energy">    -24.00408244 </i>
    <i name="e_wo_entrp">    -24.01574095 </i>
    <i name="e_0_energy">    -24.00796861 </i>
   </energy>
  </scstep>
  <scstep>
   <time name="diag">    0.39    0.39</time>
   <time name="diis">    1.25    1.25</time>
   <time name="orth">    0.01    0.01</time>
   <time name="total">    3.40    3.41</time>
   <energy>
    <i name="e_fr_energy">    -24.00409620 </i>
    <i name="e_wo_entrp">    -24.01576379 </i>
    <i name="e_0_energy">    -24.00798540 </i>
   </energy>
  </scstep>
  <scstep>
   <time name="diag">    0.40    0.40</time>
   <time name="diis">    1.25    1.25</time>
   <time name="orth">    0.01    0.01</time>
   <time name="total">    3.44    3.44</time>
   <energy>
    <i name="e_fr_energy">    -24.00411769 </i>
    <i name="e_wo_entrp">    -24.01579179 </i>
    <i name="e_0_energy">    -24.00800906 </i>
   </energy>
  </scstep>
  <scstep>
   <time name="diag">    0.37    0.37</time>
   <time name="diis">    1.25    1.25</time>
   <time name="orth">    0.01    0.01</time>
   <time name="total">    3.42    3.43</time>
   <energy>
    <i name="e_fr_energy">    -24.00412407 </i>
    <i name="e_wo_entrp">    -24.01579771 </i>
    <i name="e_0_energy">    -24.00801529 </i>
   </energy>
  </scstep>
  <scstep>
   <time name="diag">    0.37    0.37</time>
   <time name="diis">    1.22    1.23</time>
   <time name="orth">    0.01    0.01</time>
   <time name="total">    3.42    3.43</time>
   <energy>
    <i name="e_fr_energy">    -24.00412728 </i>
    <i name="e_wo_entrp">    -24.01580106 </i>
    <i name="e_0_energy">    -24.00801854 </i>
   </energy>
  </scstep>
  <scstep>
   <time name="diag">    0.37    0.37</time>
   <time name="diis">    0.97    0.98</time>
   <time name="orth">    0.01    0.01</time>
   <time name="total">    3.20    3.21</time>
   <energy>
    <i name="e_fr_energy">    -24.00412873 </i>
    <i name="e_wo_entrp">    -24.01580222 </i>
    <i name="e_0_energy">    -24.00801989 </i>
   </energy>
  </scstep>
  <scstep>
   <time name="diag">    0.37    0.37</time>
   <time name="diis">    1.16    1.16</time>
   <time name="orth">    0.01    0.01</time>
   <time name="total">    3.42    3.42</time>
   <energy>
    <i name="e_fr_energy">    -24.00412989 </i>
    <i name="e_wo_entrp">    -24.01580274 </i>
    <i name="e_0_energy">    -24.00802084 </i>
   </energy>
  </scstep>
  <scstep>
   <time name="diag">    0.34    0.34</time>
   <time name="diis">    0.98    0.98</time>
   <time name="orth">    0.01    0.01</time>
   <time name="total">    2.93    2.94</time>
   <energy>
    <i name="alphaZ">      0.25049867 </i>
    <i name="ewald">    123.27491267 </i>
    <i name="hartreedc">   -279.55449913 </i>
    <i name="XCdc">     24.55091991 </i>
    <i name="pawpsdc">    444.83067803 </i>
    <i name="pawaedc">   -445.60495980 </i>
    <i name="eentropy">      0.01167246 </i>
    <i name="bandstr">    -88.80510778 </i>
    <i name="atom">    197.04175453 </i>
    <i name="e_fr_energy">    -24.00413044 </i>
    <i name="e_wo_entrp">    -24.01580290 </i>
    <i name="e_0_energy">    -24.00802126 </i>
   </energy>
  </scstep>
  <structure>
   <crystal>
    <varray name="basis" >
     <v>       9.72923256       0.00000000       0.00000000 </v>
     <v>      -0.16378219      10.04058908       0.00000000 </v>
     <v>      -0.18568677       0.10216758       9.89969942 </v>
    </varray>
    <i name="volume">    967.07417649 </i>
    <varray name="rec_basis" >
     <v>       0.10278303       0.00167660       0.00191058 </v>
     <v>       0.00000000       0.09959575      -0.00102786 </v>
     <v>       0.00000000      -0.00000000       0.10101317 </v>
    </varray>
   </crystal>
   <varray name="positions" >
    <v>       0.53657752       0.40712129       0.35787973 </v>
    <v>       0.38985808       0.47812076       0.44411896 </v>
    <v>       0.55479136       0.56660044       0.44310743 </v>
    <v>       0.52387211       0.41402171       0.54353552 </v>
    <v>       0.50410339       0.46712577       0.44452824 </v>
   </varray>
  </structure>
  <varray name="forces" >
   <v>      -0.26376614      -0.20254524       0.31907129 </v>
   <v>       1.18096736       0.08323917      -0.72378113 </v>
   <v>      -0.04266657      -0.26743916       0.05418055 </v>
   <v>       0.29699548       0.52950313      -0.92976686 </v>
   <v>      -0.84806359       0.71085569       0.41155974 </v>
  </varray>
  <varray name="stress" >
   <v>      -1.48583121      -0.49732770       1.28495620 </v>
   <v>      -0.49732770      -1.21608905       0.52293546 </v>
   <v>       1.28495619       0.52293546      -2.03721830 </v>
  </varray>
  <energy>
   <i name="e_fr_energy">    -24.00413044 </i>
   <i name="e_wo_entrp">    -24.00802126 </i>
   <i name="e_0_energy">      0.01167246 </i>
   <i name="kinetic">      0.02685331 </i>
   <i name="lattice kinetic">      0.00000000 </i>
   <i name="nosepot">      0.00054053 </i>
   <i name="nosekinetic">      0.00017549 </i>
   <i name="total">    -23.97656111 </i>
  </energy>
  <dos>
   <i name="efermi">     -8.70432598 </i>
   <total>
    <array>
     <dimension dim="1">gridpoints</dimension>
     <dimension dim="2">spin</dimension>
     <field>energy</field>
     <field>total</field>
     <field>integrated</field>
     <set>
      <set comment="spin 1">
       <r>   -18.7538     0.0000     0.0000 </r>
       <r>   -18.6822     0.0000     0.0000 </r>
       <r>   -18.6106     0.0000     0.0000 </r>
       <r>   -18.5390     0.0000     0.0000 </r>
       <r>   -18.4674     0.0000     0.0000 </r>
       <r>   -18.3958    -0.0000    -0.0000 </r>
       <r>   -18.3243    -0.0000    -0.0000 </r>
       <r>   -18.2527    -0.0000    -0.0000 </r>
       <r>   -18.1811    -0.0000    -0.0000 </r>
       <r>   -18.1095    -0.0000    -0.0000 </r>
       <r>   -18.0379    -0.0000    -0.0000 </r>
       <r>   -17.9663    -0.0000    -0.0000 </r>
       <r>   -17.8947    -0.0000    -0.0000 </r>
       <r>   -17.8231    -0.0000    -0.0000 </r>
       <r>   -17.7516    -0.0000    -0.0000 </r>
       <r>   -17.6800    -0.0000    -0.0000 </r>
       <r>   -17.6084    -0.0000    -0.0000 </r>
       <r>   -17.5368    -0.0000    -0.0000 </r>
       <r>   -17.4652    -0.0001    -0.0000 </r>
       <r>   -17.3936    -0.0007    -0.0001 </r>
       <r>   -17.3220    -0.0053    -0.0004 </r>
       <r>   -17.2504    -0.0287    -0.0025 </r>
       <r>   -17.1789    -0.1110    -0.0104 </r>
       <r>   -17.1073    -0.2931    -0.0314 </r>
       <r>   -17.0357    -0.4388    -0.0628 </r>
       <r>   -16.9641     0.0483    -0.0594 </r>
       <r>   -16.8925     2.0125     0.0847 </r>
       <r>   -16.8209     5.3218     0.4657 </r>
       <r>   -16.7493     7.9882     1.0375 </r>
       <r>   -16.6777     7.7835     1.5947 </r>
       <r>   -16.6062     4.8919     1.9449 </r>
       <r>   -16.5346     1.6756     2.0649 </r>
       <r>   -16.4630    -0.0778     2.0593 </r>
       <r>   -16.3914    -0.4377     2.0280 </r>
       <r>   -16.3198    -0.2663     2.0089 </r>
       <r>   -16.2482    -0.0957     2.0020 </r>
       <r>   -16.1766    -0.0237     2.0003 </r>
       <r>   -16.1050    -0.0042     2.0000 </r>
       <r>   -16.0335    -0.0006     2.0000 </r>
       <r>   -15.9619    -0.0001     2.0000 </r>
       <r>   -15.8903    -0.0000     2.0000 </r>
       <r>   -15.8187    -0.0000     2.0000 </r>
       <r>   -15.7471    -0.0000     2.0000 </r>
       <r>   -15.6755    -0.0000     2.0000 </r>
       <r>   -15.6039    -0.0000     2.0000 </r>
       <r>   -15.5323    -0.0000     2.0000 </r>
       <r>   -15.4608     0.0000     2.0000 </r>
       <r>   -15.3892     0.0000     2.0000 </r>
       <r>   -15.3176     0.0000     2.0000 </r>
       <r>   -15.2460     0.0000     2.0000 </r>
       <r>   -15.1744     0.0000     2.0000 </r>
       <r>   -15.1028     0.0000     2.0000 </r>
       <r>   -15.0312     0.0000     2.0000 </r>
[...]
       <r>     0.2698    -0.6354     9.9306 </r>
       <r>     0.3421    -0.8024     9.8726 </r>
       <r>     0.4144     0.2585     9.8913 </r>
       <r>     0.4867     4.0743    10.1859 </r>
       <r>     0.5590    10.9496    10.9775 </r>
       <r>     0.6313    18.3095    12.3012 </r>
       <r>     0.7036    21.5909    13.8622 </r>
       <r>     0.7759    18.1717    15.1759 </r>
       <r>     0.8482    10.3595    15.9249 </r>
       <r>     0.9205     3.2074    16.1568 </r>
       <r>     0.9928    -0.3518    16.1313 </r>
       <r>     1.0651    -0.9803    16.0605 </r>
       <r>     1.1374    -0.5726    16.0191 </r>
       <r>     1.2097    -0.2033    16.0044 </r>
       <r>     1.2820    -0.0501    16.0007 </r>
       <r>     1.3543    -0.0090    16.0001 </r>
       <r>     1.4266    -0.0012    16.0000 </r>
       <r>     1.4989    -0.0001    16.0000 </r>
       <r>     1.5712    -0.0000    16.0000 </r>
       <r>     1.6435    -0.0000    16.0000 </r>
       <r>     1.7157    -0.0000    16.0000 </r>
       <r>     1.7880    -0.0000    16.0000 </r>
       <r>     1.8603    -0.0000    16.0000 </r>
       <r>     1.9326    -0.0000    16.0000 </r>
       <r>     2.0049    -0.0000    16.0000 </r>
       <r>     2.0772     0.0000    16.0000 </r>
       <r>     2.1495     0.0000    16.0000 </r>
       <r>     2.2218     0.0000    16.0000 </r>
       <r>     2.2941     0.0000    16.0000 </r>
       <r>     2.3664     0.0000    16.0000 </r>
       <r>     2.4387     0.0000    16.0000 </r>
       <r>     2.5110     0.0000    16.0000 </r>
       <r>     2.5833     0.0000    16.0000 </r>
       <r>     2.6556     0.0000    16.0000 </r>
       <r>     2.7279     0.0000    16.0000 </r>
      </set>
     </set>
    </array>
   </total>
  </dos>
  <time name="totalsc">   58.04   58.19</time>
  <eigenvalues>
   <array>
    <dimension dim="1">band</dimension>
    <dimension dim="2">kpoint</dimension>
    <dimension dim="3">spin</dimension>
    <field>eigene</field>
    <field>occ</field>
    <set>
     <set comment="spin 1">
      <set comment="kpoint 1">
       <r>  -16.7154    1.0000 </r>
       <r>   -9.4075    1.0000 </r>
       <r>   -9.3175    1.0000 </r>
       <r>   -8.7999    0.9999 </r>
       <r>   -0.3313    0.0000 </r>
       <r>    0.5664    0.0000 </r>
       <r>    0.6755    0.0000 </r>
       <r>    0.7220    0.0000 </r>
      </set>
      <set comment="kpoint 2">
       <r>  -16.7154    1.0000 </r>
       <r>   -9.4075    1.0000 </r>
       <r>   -9.3175    1.0000 </r>
       <r>   -8.8000    1.0001 </r>
       <r>   -0.3369    0.0000 </r>
       <r>    0.5590    0.0000 </r>
       <r>    0.7003    0.0000 </r>
       <r>    0.7370    0.0000 </r>
      </set>
      <set comment="kpoint 3">
       <r>  -16.7154    1.0000 </r>
       <r>   -9.4076    1.0000 </r>
       <r>   -9.3175    1.0000 </r>
       <r>   -8.7999    1.0000 </r>
       <r>   -0.3325    0.0000 </r>
       <r>    0.5622    0.0000 </r>
       <r>    0.6819    0.0000 </r>
       <r>    0.7176    0.0000 </r>
      </set>
      <set comment="kpoint 4">
       <r>  -16.7154    1.0000 </r>
       <r>   -9.4076    1.0000 </r>
       <r>   -9.3175    1.0000 </r>
       <r>   -8.7999    1.0000 </r>
       <r>   -0.3341    0.0000 </r>
       <r>    0.5811    0.0000 </r>
       <r>    0.6797    0.0000 </r>
       <r>    0.7082    0.0000 </r>
      </set>
     </set>
    </set>
   </array>
  </eigenvalues>
  <separator name="orbital magnetization" >
   <v name="MAGDIPOLOUT">      0.00000000      0.00000000      0.00000000</v>
  </separator>
  <dos>
   <i name="efermi">     -8.63156573 </i>
   <total>
    <array>
     <dimension dim="1">gridpoints</dimension>
     <dimension dim="2">spin</dimension>
     <field>energy</field>
     <field>total</field>
     <field>integrated</field>
     <set>
      <set comment="spin 1">
       <r>   -18.7154     0.0000     0.0000 </r>
       <r>   -18.6439     0.0000     0.0000 </r>
       <r>   -18.5724     0.0000     0.0000 </r>
       <r>   -18.5009     0.0000     0.0000 </r>
       <r>   -18.4294     0.0000     0.0000 </r>
       <r>   -18.3579    -0.0000    -0.0000 </r>
       <r>   -18.2864    -0.0000    -0.0000 </r>
       <r>   -18.2149    -0.0000    -0.0000 </r>
       <r>   -18.1434    -0.0000    -0.0000 </r>
       <r>   -18.0719    -0.0000    -0.0000 </r>
       <r>   -18.0003    -0.0000    -0.0000 </r>
       <r>   -17.9288    -0.0000    -0.0000 </r>
       <r>   -17.8573    -0.0000    -0.0000 </r>
       <r>   -17.7858    -0.0000    -0.0000 </r>
       <r>   -17.7143    -0.0000    -0.0000 </r>
       <r>   -17.6428    -0.0000    -0.0000 </r>
       <r>   -17.5713    -0.0000    -0.0000 </r>
       <r>   -17.4998    -0.0000    -0.0000 </r>
       <r>   -17.4283    -0.0001    -0.0000 </r>
       <r>   -17.3568    -0.0007    -0.0001 </r>
       <r>   -17.2853    -0.0051    -0.0004 </r>
       <r>   -17.2138    -0.0277    -0.0024 </r>
       <r>   -17.1422    -0.1079    -0.0101 </r>
       <r>   -17.0707    -0.2876    -0.0307 </r>
       <r>   -16.9992    -0.4393    -0.0621 </r>
       <r>   -16.9277     0.0182    -0.0608 </r>
       <r>   -16.8562     1.9327     0.0774 </r>
       <r>   -16.7847     5.2197     0.4507 </r>
       <r>   -16.7132     7.9421     1.0186 </r>
       <r>   -16.6417     7.8408     1.5793 </r>
       <r>   -16.5702     5.0068     1.9373 </r>
       <r>   -16.4987     1.7656     2.0635 </r>
       <r>   -16.4272    -0.0445     2.0604 </r>
       <r>   -16.3557    -0.4389     2.0290 </r>
       <r>   -16.2842    -0.2743     2.0093 </r>
       <r>   -16.2126    -0.1003     2.0022 </r>
       <r>   -16.1411    -0.0252     2.0004 </r>
       <r>   -16.0696    -0.0046     2.0000 </r>
       <r>   -15.9981    -0.0006     2.0000 </r>
       <r>   -15.9266    -0.0001     2.0000 </r>
       <r>   -15.8551    -0.0000     2.0000 </r>
       <r>   -15.7836    -0.0000     2.0000 </r>
       <r>   -15.7121    -0.0000     2.0000 </r>
       <r>   -15.6406    -0.0000     2.0000 </r>
       <r>   -15.5691    -0.0000     2.0000 </r>
       <r>   -15.4976    -0.0000     2.0000 </r>
       <r>   -15.4261    -0.0000     2.0000 </r>
       <r>   -15.3546     0.0000     2.0000 </r>
       <r>   -15.2830     0.0000     2.0000 </r>
       <r>   -15.2115     0.0000     2.0000 </r>
       <r>   -15.1400     0.0000     2.0000 </r>
       <r>   -15.0685     0.0000     2.0000 </r>
       <r>   -14.9970     0.0000     2.0000 </r>
       <r>   -14.9255     0.0000     2.0000 </r>
       <r>   -14.8540     0.0000     2.0000 </r>
       <r>   -14.7825     0.0000     2.0000 </r>
       <r>   -14.7110     0.0000     2.0000 </r>
       <r>   -14.6395     0.0000     2.0000 </r>
       <r>   -14.5680     0.0000     2.0000 </r>
       <r>   -14.4965     0.0000     2.0000 </r>
       <r>   -14.4249     0.0000     2.0000 </r>
       <r>   -14.3534     0.0000     2.0000 </r>
       <r>   -14.2819     0.0000     2.0000 </r>
       <r>   -14.2104     0.0000     2.0000 </r>
       <r>   -14.1389     0.0000     2.0000 </r>
       <r>   -14.0674     0.0000     2.0000 </r>
       <r>   -13.9959     0.0000     2.0000 </r>
       <r>   -13.9244     0.0000     2.0000 </r>
       <r>   -13.8529     0.0000     2.0000 </r>
       <r>   -13.7814     0.0000     2.0000 </r>
       <r>   -13.7099     0.0000     2.0000 </r>
       <r>   -13.6384     0.0000     2.0000 </r>
       <r>   -13.5669     0.0000     2.0000 </r>
       <r>   -13.4953     0.0000     2.0000 </r>
       <r>   -13.4238     0.0000     2.0000 </r>
       <r>   -13.3523     0.0000     2.0000 </r>
       <r>   -13.2808     0.0000     2.0000 </r>
       <r>   -13.2093     0.0000     2.0000 </r>
       <r>   -13.1378     0.0000     2.0000 </r>
       <r>   -13.0663     0.0000     2.0000 </r>
       <r>   -12.9948     0.0000     2.0000 </r>
       <r>   -12.9233     0.0000     2.0000 </r>
       <r>   -12.8518     0.0000     2.0000 </r>
       <r>   -12.7803     0.0000     2.0000 </r>
       <r>   -12.7088     0.0000     2.0000 </r>
       <r>   -12.6372     0.0000     2.0000 </r>
       <r>   -12.5657     0.0000     2.0000 </r>
       <r>   -12.4942     0.0000     2.0000 </r>
       <r>   -12.4227     0.0000     2.0000 </r>
       <r>   -12.3512     0.0000     2.0000 </r>
       <r>   -12.2797     0.0000     2.0000 </r>
       <r>   -12.2082     0.0000     2.0000 </r>
       <r>   -12.1367     0.0000     2.0000 </r>
       <r>   -12.0652     0.0000     2.0000 </r>
       <r>   -11.9937     0.0000     2.0000 </r>
       <r>   -11.9222     0.0000     2.0000 </r>
       <r>   -11.8507     0.0000     2.0000 </r>
       <r>   -11.7792     0.0000     2.0000 </r>
       <r>   -11.7076     0.0000     2.0000 </r>
       <r>   -11.6361     0.0000     2.0000 </r>
       <r>   -11.5646     0.0000     2.0000 </r>
       <r>   -11.4931     0.0000     2.0000 </r>
       <r>   -11.4216     0.0000     2.0000 </r>
       <r>   -11.3501     0.0000     2.0000 </r>
       <r>   -11.2786     0.0000     2.0000 </r>
       <r>   -11.2071     0.0000     2.0000 </r>
       <r>   -11.1356     0.0000     2.0000 </r>
       <r>   -11.0641    -0.0000     2.0000 </r>
       <r>   -10.9926    -0.0000     2.0000 </r>
       <r>   -10.9211    -0.0000     2.0000 </r>
       <r>   -10.8496    -0.0000     2.0000 </r>
       <r>   -10.7780    -0.0000     2.0000 </r>
       <r>   -10.7065    -0.0000     2.0000 </r>
       <r>   -10.6350    -0.0000     2.0000 </r>
       <r>   -10.5635    -0.0000     2.0000 </r>
       <r>   -10.4920    -0.0000     2.0000 </r>
       <r>   -10.4205    -0.0000     2.0000 </r>
       <r>   -10.3490    -0.0000     2.0000 </r>
       <r>   -10.2775    -0.0000     2.0000 </r>
       <r>   -10.2060    -0.0000     2.0000 </r>
       <r>   -10.1345    -0.0000     2.0000 </r>
       <r>   -10.0630    -0.0005     2.0000 </r>
       <r>    -9.9915    -0.0038     1.9997 </r>
       <r>    -9.9199    -0.0225     1.9981 </r>
       <r>    -9.8484    -0.0983     1.9910 </r>
       <r>    -9.7769    -0.3063     1.9691 </r>
       <r>    -9.7054    -0.6255     1.9244 </r>
       <r>    -9.6339    -0.5607     1.8843 </r>
       <r>    -9.5624     1.0972     1.9628 </r>
       <r>    -9.4909     5.3801     2.3475 </r>
       <r>    -9.4194    11.2139     3.1494 </r>
       <r>    -9.3479    15.0588     4.2262 </r>
       <r>    -9.2764    13.9403     5.2230 </r>
       <r>    -9.2049     8.6791     5.8437 </r>
       <r>    -9.1334     2.9575     6.0552 </r>
       <r>    -9.0619    -0.2708     6.0358 </r>
       <r>    -8.9903    -0.2765     6.0160 </r>
       <r>    -8.9188     2.3525     6.1842 </r>
       <r>    -8.8473     6.0390     6.6161 </r>
       <r>    -8.7758     8.2132     7.2034 </r>
       <r>    -8.7043     7.1661     7.7158 </r>
       <r>    -8.6328     3.9356     7.9972 </r>
       <r>    -8.5613     1.0258     8.0706 </r>
       <r>    -8.4898    -0.2784     8.0507 </r>
       <r>    -8.4183    -0.4115     8.0213 </r>
       <r>    -8.3468    -0.2109     8.0062 </r>
       <r>    -8.2753    -0.0681     8.0013 </r>
       <r>    -8.2038    -0.0154     8.0002 </r>
       <r>    -8.1322    -0.0026     8.0000 </r>
       <r>    -8.0607    -0.0003     8.0000 </r>
       <r>    -7.9892    -0.0000     8.0000 </r>
       <r>    -7.9177    -0.0000     8.0000 </r>
       <r>    -7.8462    -0.0000     8.0000 </r>
       <r>    -7.7747    -0.0000     8.0000 </r>
       <r>    -7.7032    -0.0000     8.0000 </r>
       <r>    -7.6317    -0.0000     8.0000 </r>
       <r>    -7.5602    -0.0000     8.0000 </r>
       <r>    -7.4887     0.0000     8.0000 </r>
       <r>    -7.4172     0.0000     8.0000 </r>
       <r>    -7.3457     0.0000     8.0000 </r>
       <r>    -7.2742     0.0000     8.0000 </r>
       <r>    -7.2026     0.0000     8.0000 </r>
       <r>    -7.1311     0.0000     8.0000 </r>
       <r>    -7.0596     0.0000     8.0000 </r>
       <r>    -6.9881     0.0000     8.0000 </r>
       <r>    -6.9166     0.0000     8.0000 </r>
       <r>    -6.8451     0.0000     8.0000 </r>
       <r>    -6.7736     0.0000     8.0000 </r>
       <r>    -6.7021     0.0000     8.0000 </r>
       <r>    -6.6306     0.0000     8.0000 </r>
       <r>    -6.5591     0.0000     8.0000 </r>
       <r>    -6.4876     0.0000     8.0000 </r>
       <r>    -6.4161     0.0000     8.0000 </r>
       <r>    -6.3446     0.0000     8.0000 </r>
       <r>    -6.2730     0.0000     8.0000 </r>
       <r>    -6.2015     0.0000     8.0000 </r>
       <r>    -6.1300     0.0000     8.0000 </r>
       <r>    -6.0585     0.0000     8.0000 </r>
       <r>    -5.9870     0.0000     8.0000 </r>
       <r>    -5.9155     0.0000     8.0000 </r>
       <r>    -5.8440     0.0000     8.0000 </r>
       <r>    -5.7725     0.0000     8.0000 </r>
       <r>    -5.7010     0.0000     8.0000 </r>
       <r>    -5.6295     0.0000     8.0000 </r>
       <r>    -5.5580     0.0000     8.0000 </r>
       <r>    -5.4865     0.0000     8.0000 </r>
       <r>    -5.4149     0.0000     8.0000 </r>
       <r>    -5.3434     0.0000     8.0000 </r>
       <r>    -5.2719     0.0000     8.0000 </r>
       <r>    -5.2004     0.0000     8.0000 </r>
       <r>    -5.1289     0.0000     8.0000 </r>
       <r>    -5.0574     0.0000     8.0000 </r>
       <r>    -4.9859     0.0000     8.0000 </r>
       <r>    -4.9144     0.0000     8.0000 </r>
       <r>    -4.8429     0.0000     8.0000 </r>
       <r>    -4.7714     0.0000     8.0000 </r>
       <r>    -4.6999     0.0000     8.0000 </r>
       <r>    -4.6284     0.0000     8.0000 </r>
       <r>    -4.5569     0.0000     8.0000 </r>
       <r>    -4.4853     0.0000     8.0000 </r>
       <r>    -4.4138     0.0000     8.0000 </r>
       <r>    -4.3423     0.0000     8.0000 </r>
       <r>    -4.2708     0.0000     8.0000 </r>
       <r>    -4.1993     0.0000     8.0000 </r>
       <r>    -4.1278     0.0000     8.0000 </r>
       <r>    -4.0563     0.0000     8.0000 </r>
       <r>    -3.9848     0.0000     8.0000 </r>
       <r>    -3.9133     0.0000     8.0000 </r>
       <r>    -3.8418     0.0000     8.0000 </r>
       <r>    -3.7703     0.0000     8.0000 </r>
       <r>    -3.6988     0.0000     8.0000 </r>
       <r>    -3.6272     0.0000     8.0000 </r>
       <r>    -3.5557     0.0000     8.0000 </r>
       <r>    -3.4842     0.0000     8.0000 </r>
       <r>    -3.4127     0.0000     8.0000 </r>
       <r>    -3.3412     0.0000     8.0000 </r>
       <r>    -3.2697     0.0000     8.0000 </r>
       <r>    -3.1982     0.0000     8.0000 </r>
       <r>    -3.1267     0.0000     8.0000 </r>
       <r>    -3.0552     0.0000     8.0000 </r>
       <r>    -2.9837     0.0000     8.0000 </r>
       <r>    -2.9122     0.0000     8.0000 </r>
       <r>    -2.8407     0.0000     8.0000 </r>
       <r>    -2.7692     0.0000     8.0000 </r>
       <r>    -2.6976     0.0000     8.0000 </r>
       <r>    -2.6261     0.0000     8.0000 </r>
       <r>    -2.5546     0.0000     8.0000 </r>
       <r>    -2.4831     0.0000     8.0000 </r>
       <r>    -2.4116     0.0000     8.0000 </r>
       <r>    -2.3401     0.0000     8.0000 </r>
       <r>    -2.2686     0.0000     8.0000 </r>
       <r>    -2.1971     0.0000     8.0000 </r>
       <r>    -2.1256     0.0000     8.0000 </r>
       <r>    -2.0541     0.0000     8.0000 </r>
       <r>    -1.9826    -0.0000     8.0000 </r>
       <r>    -1.9111    -0.0000     8.0000 </r>
       <r>    -1.8396    -0.0000     8.0000 </r>
       <r>    -1.7680    -0.0000     8.0000 </r>
       <r>    -1.6965    -0.0000     8.0000 </r>
       <r>    -1.6250    -0.0000     8.0000 </r>
       <r>    -1.5535    -0.0000     8.0000 </r>
       <r>    -1.4820    -0.0000     8.0000 </r>
       <r>    -1.4105    -0.0000     8.0000 </r>
       <r>    -1.3390    -0.0000     8.0000 </r>
       <r>    -1.2675    -0.0000     8.0000 </r>
       <r>    -1.1960    -0.0000     8.0000 </r>
       <r>    -1.1245    -0.0000     8.0000 </r>
       <r>    -1.0530    -0.0001     8.0000 </r>
       <r>    -0.9815    -0.0006     8.0000 </r>
       <r>    -0.9099    -0.0044     7.9996 </r>
       <r>    -0.8384    -0.0241     7.9979 </r>
       <r>    -0.7669    -0.0970     7.9910 </r>
       <r>    -0.6954    -0.2684     7.9718 </r>
       <r>    -0.6239    -0.4379     7.9405 </r>
       <r>    -0.5524    -0.0702     7.9354 </r>
       <r>    -0.4809     1.6934     8.0565 </r>
       <r>    -0.4094     4.9108     8.4077 </r>
       <r>    -0.3379     7.7905     8.9648 </r>
       <r>    -0.2664     7.9825     9.5356 </r>
       <r>    -0.1949     5.3143     9.9156 </r>
       <r>    -0.1234     2.0100    10.0593 </r>
       <r>    -0.0519     0.0475    10.0627 </r>
       <r>     0.0197    -0.4482    10.0307 </r>
       <r>     0.0912    -0.3419    10.0062 </r>
       <r>     0.1627    -0.2896     9.9855 </r>
       <r>     0.2342    -0.4912     9.9504 </r>
       <r>     0.3057    -0.7535     9.8965 </r>
       <r>     0.3772    -0.2941     9.8755 </r>
       <r>     0.4487     2.2114    10.0336 </r>
       <r>     0.5202     7.6071    10.5776 </r>
       <r>     0.5917    14.7397    11.6316 </r>
       <r>     0.6632    20.1558    13.0729 </r>
       <r>     0.7347    20.2472    14.5207 </r>
       <r>     0.8062    14.6207    15.5662 </r>
       <r>     0.8778     6.9073    16.0601 </r>
       <r>     0.9493     1.3449    16.1563 </r>
       <r>     1.0208    -0.7832    16.1003 </r>
       <r>     1.0923    -0.8369    16.0405 </r>
       <r>     1.1638    -0.4036    16.0116 </r>
       <r>     1.2353    -0.1278    16.0025 </r>
       <r>     1.3068    -0.0289    16.0004 </r>
       <r>     1.3783    -0.0048    16.0000 </r>
       <r>     1.4498    -0.0006    16.0000 </r>
       <r>     1.5213    -0.0001    16.0000 </r>
       <r>     1.5928    -0.0000    16.0000 </r>
       <r>     1.6643    -0.0000    16.0000 </r>
       <r>     1.7358    -0.0000    16.0000 </r>
       <r>     1.8074    -0.0000    16.0000 </r>
       <r>     1.8789    -0.0000    16.0000 </r>
       <r>     1.9504    -0.0000    16.0000 </r>
       <r>     2.0219    -0.0000    16.0000 </r>
       <r>     2.0934     0.0000    16.0000 </r>
       <r>     2.1649     0.0000    16.0000 </r>
       <r>     2.2364     0.0000    16.0000 </r>
       <r>     2.3079     0.0000    16.0000 </r>
       <r>     2.3794     0.0000    16.0000 </r>
       <r>     2.4509     0.0000    16.0000 </r>
       <r>     2.5224     0.0000    16.0000 </r>
       <r>     2.5939     0.0000    16.0000 </r>
       <r>     2.6654     0.0000    16.0000 </r>
       <r>     2.7370     0.0000    16.0000 </r>
      </set>
     </set>
    </array>
   </total>
  </dos>
 </calculation>
 <structure name="finalpos" >
  <crystal>
   <varray name="basis" >
    <v>       9.72923256       0.00000000       0.00000000 </v>
    <v>      -0.16378219      10.04058908       0.00000000 </v>
    <v>      -0.18568677       0.10216758       9.89969942 </v>
   </varray>
   <i name="volume">    967.07417649 </i>
   <varray name="rec_basis" >
    <v>       0.10278303       0.00167660       0.00191058 </v>
    <v>       0.00000000       0.09959575      -0.00102786 </v>
    <v>       0.00000000      -0.00000000       0.10101317 </v>
   </varray>
  </crystal>
  <varray name="positions" >
   <v>       0.54080257       0.39925841       0.36161062 </v>
   <v>       0.38993116       0.48467856       0.42443332 </v>
   <v>       0.55411443       0.56386391       0.44265927 </v>
   <v>       0.52510289       0.42063563       0.54387522 </v>
   <v>       0.50369943       0.46691161       0.44586562 </v>
  </varray>
  <varray name="velocities" >
   <v>      -0.00031078      -0.00304090      -0.00213470 </v>
   <v>      -0.00769958       0.00209497      -0.00459467 </v>
   <v>      -0.00069735      -0.00310696      -0.00144421 </v>
   <v>      -0.00397753       0.00082186       0.00385608 </v>
   <v>       0.00105613       0.00026901       0.00035946 </v>
  </varray>
 </structure>
</modeling>
