unknown system                          
           1
     9.729233    0.000000    0.000000
    -0.163782   10.040589    0.000000
    -0.185687    0.102168    9.899699
   H    C 
   4   1
Direct configuration=     1
   0.53835588  0.40680146  0.36041895
   0.39456425  0.48037069  0.43847758
   0.55221016  0.56548168  0.44265397
   0.52816326  0.41645026  0.53922301
   0.50342114  0.46685603  0.44518332
Direct configuration=     2
   0.53779437  0.40677013  0.35821642
   0.39098036  0.48094621  0.44193803
   0.55258818  0.56487659  0.44313067
   0.52538167  0.41533723  0.54088452
   0.50396639  0.46695377  0.44490057
Direct configuration=     3
   0.53657752  0.40712129  0.35787973
   0.38985808  0.47812076  0.44411896
   0.55479136  0.56660044  0.44310743
   0.52387211  0.41402171  0.54353552
   0.50410339  0.46712577  0.44452824
Direct configuration=     4
   0.53426135  0.40647551  0.35899491
   0.39328237  0.47546199  0.44368177
   0.55671351  0.56707701  0.44350522
   0.52343571  0.41457478  0.54276474
   0.50388743  0.46731517  0.44450285
Direct configuration=     5
   0.53396266  0.40433711  0.35994236
   0.39775935  0.47505218  0.44314559
   0.55687207  0.56533726  0.44321182
   0.52489410  0.41652911  0.53884364
   0.50340494  0.46750946  0.44481949
Direct configuration=     6
   0.53650518  0.40340104  0.36003107
   0.39154950  0.47523681  0.44033740
   0.55623791  0.56321436  0.44320219
   0.52865175  0.41717950  0.53869231
   0.50345021  0.46769462  0.44505931
Direct configuration=     7
   0.53914144  0.40412190  0.36134095
   0.38724197  0.47875198  0.43655639
   0.55605440  0.56395608  0.44384913
   0.53055850  0.41528441  0.54144657
   0.50344589  0.46743797  0.44498187
Direct configuration=     8
   0.54018510  0.40606620  0.36405548
   0.38949506  0.48102449  0.43445191
   0.55537502  0.56560320  0.44351171
   0.53115827  0.41450579  0.54242747
   0.50317804  0.46701458  0.44487751
Direct configuration=     9
   0.54118815  0.40514638  0.36464027
   0.39599606  0.48161213  0.43223204
   0.55569202  0.56750074  0.44445996
   0.53067630  0.41753228  0.53982368
   0.50256701  0.46663228  0.44515148
Direct configuration=    10
   0.54111335  0.40229932  0.36374532
   0.39763074  0.48258359  0.42902799
   0.55481178  0.56697087  0.44410348
   0.52908042  0.41981377  0.54001914
   0.50264329  0.46664260  0.44550615
