   5   5   0****
  0.1973881E+03  0.1007603E-08  0.9789295E-09  0.1001115E-08  0.2000000E-14
   50.000000000000000     
  CAR 
 unknown system                          
      2.72360410    -18.93775415  301     -9.12030856      1.00000000
    -18.938  0.0000E+00  0.0000E+00
    -18.866  0.0000E+00  0.0000E+00
    -18.793  0.0000E+00  0.0000E+00
    -18.721  0.0000E+00  0.0000E+00
    -18.649  0.0000E+00  0.0000E+00
    -18.577 -0.4359E-27 -0.3147E-28
    -18.505 -0.1354E-24 -0.9808E-26
    -18.432 -0.3241E-22 -0.2350E-23
    -18.360 -0.5963E-20 -0.4329E-21
    -18.288 -0.8428E-18 -0.6128E-19
    -18.216 -0.9147E-16 -0.6666E-17
    -18.144 -0.7620E-14 -0.5569E-15
    -18.071 -0.4716E-12 -0.3461E-13
    -17.999 -0.2302E-10 -0.1697E-11
    -17.927 -0.8589E-09 -0.6372E-10
    -17.855 -0.2448E-07 -0.1831E-08
    -17.782 -0.5318E-06 -0.4023E-07
    -17.710 -0.8782E-05 -0.6743E-06
    -17.638 -0.1098E-03 -0.8602E-05
    -17.566 -0.1033E-02 -0.8320E-04
    -17.494 -0.7250E-02 -0.6067E-03
    -17.421 -0.3736E-01 -0.3304E-02
    -17.349 -0.1372E+00 -0.1321E-01
    -17.277 -0.3348E+00 -0.3738E-01
    -17.205 -0.4194E+00 -0.6767E-01
    -17.133  0.3197E+00 -0.4458E-01
    -17.060  0.2666E+01  0.1479E+00
    -16.988  0.6084E+01  0.5872E+00
    -16.916  0.8242E+01  0.1182E+01
    -16.844  0.7249E+01  0.1706E+01
    -16.772  0.4005E+01  0.1995E+01
    -16.699  0.1048E+01  0.2071E+01
    -16.627 -0.2775E+00  0.2051E+01
    -16.555 -0.4099E+00  0.2021E+01
    -16.483 -0.2071E+00  0.2006E+01
    -16.411 -0.6557E-01  0.2001E+01
    -16.338 -0.1450E-01  0.2000E+01
    -16.266 -0.2332E-02  0.2000E+01
    -16.194 -0.2782E-03  0.2000E+01
    -16.122 -0.2490E-04  0.2000E+01
    -16.050 -0.1684E-05  0.2000E+01
    -15.977 -0.8648E-07  0.2000E+01
    -15.905 -0.3381E-08  0.2000E+01
    -15.833 -0.1009E-09  0.2000E+01
    -15.761 -0.2299E-11  0.2000E+01
    -15.689 -0.4305E-13  0.2000E+01
    -15.616  0.0000E+00  0.2000E+01
    -15.544  0.0000E+00  0.2000E+01
    -15.472  0.0000E+00  0.2000E+01
    -15.400  0.0000E+00  0.2000E+01
    -15.328  0.0000E+00  0.2000E+01
    -15.255  0.0000E+00  0.2000E+01
    -15.183  0.0000E+00  0.2000E+01
    -15.111  0.0000E+00  0.2000E+01
    -15.039  0.0000E+00  0.2000E+01
    -14.967  0.0000E+00  0.2000E+01
    -14.894  0.0000E+00  0.2000E+01
    -14.822  0.0000E+00  0.2000E+01
    -14.750  0.0000E+00  0.2000E+01
    -14.678  0.0000E+00  0.2000E+01
    -14.605  0.0000E+00  0.2000E+01
    -14.533  0.0000E+00  0.2000E+01
    -14.461  0.0000E+00  0.2000E+01
    -14.389  0.0000E+00  0.2000E+01
    -14.317  0.0000E+00  0.2000E+01
    -14.244  0.0000E+00  0.2000E+01
    -14.172  0.0000E+00  0.2000E+01
    -14.100  0.0000E+00  0.2000E+01
    -14.028  0.0000E+00  0.2000E+01
    -13.956  0.0000E+00  0.2000E+01
    -13.883  0.0000E+00  0.2000E+01
    -13.811  0.0000E+00  0.2000E+01
    -13.739  0.0000E+00  0.2000E+01
    -13.667  0.0000E+00  0.2000E+01
    -13.595  0.0000E+00  0.2000E+01
    -13.522  0.0000E+00  0.2000E+01
    -13.450  0.0000E+00  0.2000E+01
    -13.378  0.0000E+00  0.2000E+01
    -13.306  0.0000E+00  0.2000E+01
    -13.234  0.0000E+00  0.2000E+01
    -13.161  0.0000E+00  0.2000E+01
    -13.089  0.0000E+00  0.2000E+01
    -13.017  0.0000E+00  0.2000E+01
    -12.945  0.0000E+00  0.2000E+01
    -12.873  0.0000E+00  0.2000E+01
    -12.800  0.0000E+00  0.2000E+01
    -12.728  0.0000E+00  0.2000E+01
    -12.656  0.0000E+00  0.2000E+01
    -12.584  0.0000E+00  0.2000E+01
    -12.512  0.0000E+00  0.2000E+01
    -12.439  0.0000E+00  0.2000E+01
    -12.367  0.0000E+00  0.2000E+01
    -12.295  0.0000E+00  0.2000E+01
    -12.223  0.0000E+00  0.2000E+01
    -12.151  0.0000E+00  0.2000E+01
    -12.078  0.0000E+00  0.2000E+01
    -12.006  0.0000E+00  0.2000E+01
    -11.934  0.0000E+00  0.2000E+01
    -11.862  0.0000E+00  0.2000E+01
    -11.790  0.0000E+00  0.2000E+01
    -11.717  0.0000E+00  0.2000E+01
    -11.645  0.0000E+00  0.2000E+01
    -11.573  0.0000E+00  0.2000E+01
    -11.501  0.0000E+00  0.2000E+01
    -11.428  0.0000E+00  0.2000E+01
    -11.356  0.0000E+00  0.2000E+01
    -11.284  0.0000E+00  0.2000E+01
    -11.212  0.0000E+00  0.2000E+01
    -11.140  0.0000E+00  0.2000E+01
    -11.067  0.0000E+00  0.2000E+01
    -10.995 -0.1953E-27  0.2000E+01
    -10.923 -0.6375E-25  0.2000E+01
    -10.851 -0.1587E-22  0.2000E+01
    -10.779 -0.3038E-20  0.2000E+01
    -10.706 -0.4472E-18  0.2000E+01
    -10.634 -0.5062E-16  0.2000E+01
    -10.562 -0.4404E-14  0.2000E+01
    -10.490 -0.2853E-12  0.2000E+01
    -10.418 -0.1462E-10  0.2000E+01
    -10.345 -0.5738E-09  0.2000E+01
    -10.273 -0.1727E-07  0.2000E+01
    -10.201 -0.3982E-06  0.2000E+01
    -10.129 -0.7022E-05  0.2000E+01
    -10.057 -0.9447E-04  0.2000E+01
     -9.984 -0.9664E-03  0.2000E+01
     -9.912 -0.7475E-02  0.1999E+01
     -9.840 -0.4329E-01  0.1996E+01
     -9.768 -0.1843E+00  0.1983E+01
     -9.696 -0.5548E+00  0.1943E+01
     -9.623 -0.1061E+01  0.1866E+01
     -9.551 -0.7013E+00  0.1816E+01
     -9.479  0.2678E+01  0.2009E+01
     -9.407  0.1040E+02  0.2760E+01
     -9.335  0.1958E+02  0.4174E+01
     -9.262  0.2374E+02  0.5888E+01
     -9.190  0.1935E+02  0.7285E+01
     -9.118  0.1008E+02  0.8014E+01
     -9.046  0.2436E+01  0.8189E+01
     -8.974 -0.8020E+00  0.8131E+01
     -8.901 -0.1067E+01  0.8054E+01
     -8.829 -0.5360E+00  0.8016E+01
     -8.757 -0.1719E+00  0.8003E+01
     -8.685 -0.3892E-01  0.8001E+01
     -8.613 -0.6459E-02  0.8000E+01
     -8.540 -0.8002E-03  0.8000E+01
     -8.468 -0.7475E-04  0.8000E+01
     -8.396 -0.5298E-05  0.8000E+01
     -8.324 -0.2861E-06  0.8000E+01
     -8.251 -0.1180E-07  0.8000E+01
     -8.179 -0.3723E-09  0.8000E+01
     -8.107 -0.9013E-11  0.8000E+01
     -8.035 -0.1661E-12  0.8000E+01
     -7.963  0.0000E+00  0.8000E+01
     -7.890  0.0000E+00  0.8000E+01
     -7.818  0.0000E+00  0.8000E+01
     -7.746  0.0000E+00  0.8000E+01
     -7.674  0.0000E+00  0.8000E+01
     -7.602  0.0000E+00  0.8000E+01
     -7.529  0.0000E+00  0.8000E+01
     -7.457  0.0000E+00  0.8000E+01
     -7.385  0.0000E+00  0.8000E+01
     -7.313  0.0000E+00  0.8000E+01
     -7.241  0.0000E+00  0.8000E+01
     -7.168  0.0000E+00  0.8000E+01
     -7.096  0.0000E+00  0.8000E+01
     -7.024  0.0000E+00  0.8000E+01
     -6.952  0.0000E+00  0.8000E+01
     -6.880  0.0000E+00  0.8000E+01
     -6.807  0.0000E+00  0.8000E+01
     -6.735  0.0000E+00  0.8000E+01
     -6.663  0.0000E+00  0.8000E+01
     -6.591  0.0000E+00  0.8000E+01
     -6.519  0.0000E+00  0.8000E+01
     -6.446  0.0000E+00  0.8000E+01
     -6.374  0.0000E+00  0.8000E+01
     -6.302  0.0000E+00  0.8000E+01
     -6.230  0.0000E+00  0.8000E+01
     -6.158  0.0000E+00  0.8000E+01
     -6.085  0.0000E+00  0.8000E+01
     -6.013  0.0000E+00  0.8000E+01
     -5.941  0.0000E+00  0.8000E+01
     -5.869  0.0000E+00  0.8000E+01
     -5.797  0.0000E+00  0.8000E+01
     -5.724  0.0000E+00  0.8000E+01
     -5.652  0.0000E+00  0.8000E+01
     -5.580  0.0000E+00  0.8000E+01
     -5.508  0.0000E+00  0.8000E+01
     -5.436  0.0000E+00  0.8000E+01
     -5.363  0.0000E+00  0.8000E+01
     -5.291  0.0000E+00  0.8000E+01
     -5.219  0.0000E+00  0.8000E+01
     -5.147  0.0000E+00  0.8000E+01
     -5.074  0.0000E+00  0.8000E+01
     -5.002  0.0000E+00  0.8000E+01
     -4.930  0.0000E+00  0.8000E+01
     -4.858  0.0000E+00  0.8000E+01
     -4.786  0.0000E+00  0.8000E+01
     -4.713  0.0000E+00  0.8000E+01
     -4.641  0.0000E+00  0.8000E+01
     -4.569  0.0000E+00  0.8000E+01
     -4.497  0.0000E+00  0.8000E+01
     -4.425  0.0000E+00  0.8000E+01
     -4.352  0.0000E+00  0.8000E+01
     -4.280  0.0000E+00  0.8000E+01
     -4.208  0.0000E+00  0.8000E+01
     -4.136  0.0000E+00  0.8000E+01
     -4.064  0.0000E+00  0.8000E+01
     -3.991  0.0000E+00  0.8000E+01
     -3.919  0.0000E+00  0.8000E+01
     -3.847  0.0000E+00  0.8000E+01
     -3.775  0.0000E+00  0.8000E+01
     -3.703  0.0000E+00  0.8000E+01
     -3.630  0.0000E+00  0.8000E+01
     -3.558  0.0000E+00  0.8000E+01
     -3.486  0.0000E+00  0.8000E+01
     -3.414  0.0000E+00  0.8000E+01
     -3.342  0.0000E+00  0.8000E+01
     -3.269  0.0000E+00  0.8000E+01
     -3.197  0.0000E+00  0.8000E+01
     -3.125  0.0000E+00  0.8000E+01
     -3.053  0.0000E+00  0.8000E+01
     -2.981  0.0000E+00  0.8000E+01
     -2.908  0.0000E+00  0.8000E+01
     -2.836  0.0000E+00  0.8000E+01
     -2.764  0.0000E+00  0.8000E+01
     -2.692  0.0000E+00  0.8000E+01
     -2.620  0.0000E+00  0.8000E+01
     -2.547  0.0000E+00  0.8000E+01
     -2.475  0.0000E+00  0.8000E+01
     -2.403  0.0000E+00  0.8000E+01
     -2.331  0.0000E+00  0.8000E+01
     -2.259  0.0000E+00  0.8000E+01
     -2.186  0.0000E+00  0.8000E+01
     -2.114  0.0000E+00  0.8000E+01
     -2.042  0.0000E+00  0.8000E+01
     -1.970 -0.6746E-28  0.8000E+01
     -1.897 -0.2274E-25  0.8000E+01
     -1.825 -0.5909E-23  0.8000E+01
     -1.753 -0.1180E-20  0.8000E+01
     -1.681 -0.1811E-18  0.8000E+01
     -1.609 -0.2135E-16  0.8000E+01
     -1.536 -0.1932E-14  0.8000E+01
     -1.464 -0.1299E-12  0.8000E+01
     -1.392 -0.6905E-11  0.8000E+01
     -1.320 -0.2803E-09  0.8000E+01
     -1.248 -0.8696E-08  0.8000E+01
     -1.175 -0.2058E-06  0.8000E+01
     -1.103 -0.3708E-05  0.8000E+01
     -1.031 -0.5064E-04  0.8000E+01
     -0.959 -0.5218E-03  0.8000E+01
     -0.887 -0.4024E-02  0.8000E+01
     -0.814 -0.2292E-01  0.7998E+01
     -0.742 -0.9419E-01  0.7991E+01
     -0.670 -0.2652E+00  0.7972E+01
     -0.598 -0.4371E+00  0.7941E+01
     -0.526 -0.6477E-01  0.7936E+01
     -0.453  0.1731E+01  0.8061E+01
     -0.381  0.4992E+01  0.8421E+01
     -0.309  0.7845E+01  0.8988E+01
     -0.237  0.7913E+01  0.9559E+01
     -0.165  0.5132E+01  0.9930E+01
     -0.092  0.1840E+01  0.1006E+02
     -0.020 -0.2813E-01  0.1006E+02
      0.052 -0.4558E+00  0.1003E+02
      0.124 -0.3560E+00  0.1000E+02
      0.196 -0.3775E+00  0.9975E+01
      0.269 -0.6706E+00  0.9926E+01
      0.341 -0.8341E+00  0.9866E+01
      0.413  0.3445E+00  0.9891E+01
      0.485  0.4463E+01  0.1021E+02
      0.557  0.1168E+02  0.1106E+02
      0.630  0.1902E+02  0.1243E+02
      0.702  0.2173E+02  0.1400E+02
      0.774  0.1763E+02  0.1527E+02
      0.846  0.9596E+01  0.1596E+02
      0.918  0.2715E+01  0.1616E+02
      0.991 -0.4942E+00  0.1612E+02
      1.063 -0.9571E+00  0.1606E+02
      1.135 -0.5318E+00  0.1602E+02
      1.207 -0.1838E+00  0.1600E+02
      1.280 -0.4449E-01  0.1600E+02
      1.352 -0.7865E-02  0.1600E+02
      1.424 -0.1036E-02  0.1600E+02
      1.496 -0.1027E-03  0.1600E+02
      1.568 -0.7725E-05  0.1600E+02
      1.641 -0.4423E-06  0.1600E+02
      1.713 -0.1934E-07  0.1600E+02
      1.785 -0.6475E-09  0.1600E+02
      1.857 -0.1662E-10  0.1600E+02
      1.929 -0.3275E-12  0.1600E+02
      2.002 -0.3075E-14  0.1600E+02
      2.074  0.0000E+00  0.1600E+02
      2.146  0.0000E+00  0.1600E+02
      2.218  0.0000E+00  0.1600E+02
      2.290  0.0000E+00  0.1600E+02
      2.363  0.0000E+00  0.1600E+02
      2.435  0.0000E+00  0.1600E+02
      2.507  0.0000E+00  0.1600E+02
      2.579  0.0000E+00  0.1600E+02
      2.651  0.0000E+00  0.1600E+02
      2.724  0.0000E+00  0.1600E+02
      2.71328216    -18.78319677  301     -9.04874634      1.00000000
    -18.783  0.0000E+00  0.0000E+00
    -18.712  0.0000E+00  0.0000E+00
    -18.640  0.0000E+00  0.0000E+00
    -18.568  0.0000E+00  0.0000E+00
    -18.497  0.0000E+00  0.0000E+00
    -18.425 -0.3510E-27 -0.2515E-28
    -18.353 -0.1055E-24 -0.7586E-26
    -18.282 -0.2454E-22 -0.1766E-23
    -18.210 -0.4404E-20 -0.3174E-21
    -18.138 -0.6097E-18 -0.4400E-19
    -18.067 -0.6507E-16 -0.4707E-17
    -17.995 -0.5353E-14 -0.3883E-15
    -17.923 -0.3283E-12 -0.2391E-13
    -17.852 -0.1597E-10 -0.1168E-11
    -17.780 -0.5955E-09 -0.4384E-10
    -17.708 -0.1704E-07 -0.1265E-08
    -17.637 -0.3732E-06 -0.2801E-07
    -17.565 -0.6243E-05 -0.4753E-06
    -17.493 -0.7943E-04 -0.6167E-05
    -17.422 -0.7647E-03 -0.6096E-04
    -17.350 -0.5522E-02 -0.4567E-03
    -17.278 -0.2951E-01 -0.2571E-02
    -17.207 -0.1136E+00 -0.1071E-01
    -17.135 -0.2976E+00 -0.3204E-01
    -17.063 -0.4380E+00 -0.6342E-01
    -16.992  0.7396E-01 -0.5812E-01
    -16.920  0.2079E+01  0.9088E-01
    -16.849  0.5406E+01  0.4782E+00
    -16.777  0.8024E+01  0.1053E+01
    -16.705  0.7734E+01  0.1607E+01
    -16.634  0.4796E+01  0.1951E+01
    -16.562  0.1602E+01  0.2066E+01
    -16.490 -0.1042E+00  0.2058E+01
    -16.419 -0.4363E+00  0.2027E+01
    -16.347 -0.2597E+00  0.2009E+01
    -16.275 -0.9200E-01  0.2002E+01
    -16.204 -0.2249E-01  0.2000E+01
    -16.132 -0.3987E-02  0.2000E+01
    -16.060 -0.5244E-03  0.2000E+01
    -15.989 -0.5185E-04  0.2000E+01
    -15.917 -0.3883E-05  0.2000E+01
    -15.845 -0.2213E-06  0.2000E+01
    -15.774 -0.9640E-08  0.2000E+01
    -15.702 -0.3215E-09  0.2000E+01
    -15.630 -0.8232E-11  0.2000E+01
    -15.559 -0.1611E-12  0.2000E+01
    -15.487  0.0000E+00  0.2000E+01
    -15.415  0.0000E+00  0.2000E+01
    -15.344  0.0000E+00  0.2000E+01
    -15.272  0.0000E+00  0.2000E+01
    -15.200  0.0000E+00  0.2000E+01
    -15.129  0.0000E+00  0.2000E+01
    -15.057  0.0000E+00  0.2000E+01
    -14.985  0.0000E+00  0.2000E+01
    -14.914  0.0000E+00  0.2000E+01
    -14.842  0.0000E+00  0.2000E+01
    -14.771  0.0000E+00  0.2000E+01
    -14.699  0.0000E+00  0.2000E+01
    -14.627  0.0000E+00  0.2000E+01
    -14.556  0.0000E+00  0.2000E+01
    -14.484  0.0000E+00  0.2000E+01
    -14.412  0.0000E+00  0.2000E+01
    -14.341  0.0000E+00  0.2000E+01
    -14.269  0.0000E+00  0.2000E+01
    -14.197  0.0000E+00  0.2000E+01
    -14.126  0.0000E+00  0.2000E+01
    -14.054  0.0000E+00  0.2000E+01
    -13.982  0.0000E+00  0.2000E+01
    -13.911  0.0000E+00  0.2000E+01
    -13.839  0.0000E+00  0.2000E+01
    -13.767  0.0000E+00  0.2000E+01
    -13.696  0.0000E+00  0.2000E+01
    -13.624  0.0000E+00  0.2000E+01
    -13.552  0.0000E+00  0.2000E+01
    -13.481  0.0000E+00  0.2000E+01
    -13.409  0.0000E+00  0.2000E+01
    -13.337  0.0000E+00  0.2000E+01
    -13.266  0.0000E+00  0.2000E+01
    -13.194  0.0000E+00  0.2000E+01
    -13.122  0.0000E+00  0.2000E+01
    -13.051  0.0000E+00  0.2000E+01
    -12.979  0.0000E+00  0.2000E+01
    -12.907  0.0000E+00  0.2000E+01
    -12.836  0.0000E+00  0.2000E+01
    -12.764  0.0000E+00  0.2000E+01
    -12.693  0.0000E+00  0.2000E+01
    -12.621  0.0000E+00  0.2000E+01
    -12.549  0.0000E+00  0.2000E+01
    -12.478  0.0000E+00  0.2000E+01
    -12.406  0.0000E+00  0.2000E+01
    -12.334  0.0000E+00  0.2000E+01
    -12.263  0.0000E+00  0.2000E+01
    -12.191  0.0000E+00  0.2000E+01
    -12.119  0.0000E+00  0.2000E+01
    -12.048  0.0000E+00  0.2000E+01
    -11.976  0.0000E+00  0.2000E+01
    -11.904  0.0000E+00  0.2000E+01
    -11.833  0.0000E+00  0.2000E+01
    -11.761  0.0000E+00  0.2000E+01
    -11.689  0.0000E+00  0.2000E+01
    -11.618  0.0000E+00  0.2000E+01
    -11.546  0.0000E+00  0.2000E+01
    -11.474  0.0000E+00  0.2000E+01
    -11.403  0.0000E+00  0.2000E+01
    -11.331  0.0000E+00  0.2000E+01
    -11.259  0.0000E+00  0.2000E+01
    -11.188  0.0000E+00  0.2000E+01
    -11.116  0.0000E+00  0.2000E+01
    -11.044  0.0000E+00  0.2000E+01
    -10.973  0.0000E+00  0.2000E+01
    -10.901 -0.2522E-27  0.2000E+01
    -10.829 -0.7886E-25  0.2000E+01
    -10.758 -0.1903E-22  0.2000E+01
    -10.686 -0.3546E-20  0.2000E+01
    -10.615 -0.5104E-18  0.2000E+01
    -10.543 -0.5671E-16  0.2000E+01
    -10.471 -0.4864E-14  0.2000E+01
    -10.400 -0.3125E-12  0.2000E+01
    -10.328 -0.1586E-10  0.2000E+01
    -10.256 -0.6205E-09  0.2000E+01
    -10.185 -0.1867E-07  0.2000E+01
    -10.113 -0.4312E-06  0.2000E+01
    -10.041 -0.7632E-05  0.2000E+01
     -9.970 -0.1032E-03  0.2000E+01
     -9.898 -0.1062E-02  0.2000E+01
     -9.826 -0.8257E-02  0.1999E+01
     -9.755 -0.4799E-01  0.1996E+01
     -9.683 -0.2045E+00  0.1981E+01
     -9.611 -0.6129E+00  0.1937E+01
     -9.540 -0.1155E+01  0.1855E+01
     -9.468 -0.7030E+00  0.1804E+01
     -9.396  0.3059E+01  0.2023E+01
     -9.325  0.1132E+02  0.2834E+01
     -9.253  0.2061E+02  0.4311E+01
     -9.181  0.2413E+02  0.6040E+01
     -9.110  0.1887E+02  0.7393E+01
     -9.038  0.9280E+01  0.8058E+01
     -8.966  0.1909E+01  0.8194E+01
     -8.895 -0.9579E+00  0.8126E+01
     -8.823 -0.1052E+01  0.8050E+01
     -8.752 -0.5033E+00  0.8014E+01
     -8.680 -0.1572E+00  0.8003E+01
     -8.608 -0.3508E-01  0.8000E+01
     -8.537 -0.5787E-02  0.8000E+01
     -8.465 -0.7180E-03  0.8000E+01
     -8.393 -0.6766E-04  0.8000E+01
     -8.322 -0.4868E-05  0.8000E+01
     -8.250 -0.2685E-06  0.8000E+01
     -8.178 -0.1138E-07  0.8000E+01
     -8.107 -0.3709E-09  0.8000E+01
     -8.035 -0.9317E-11  0.8000E+01
     -7.963 -0.1859E-12  0.8000E+01
     -7.892  0.0000E+00  0.8000E+01
     -7.820  0.0000E+00  0.8000E+01
     -7.748  0.0000E+00  0.8000E+01
     -7.677  0.0000E+00  0.8000E+01
     -7.605  0.0000E+00  0.8000E+01
     -7.533  0.0000E+00  0.8000E+01
     -7.462  0.0000E+00  0.8000E+01
     -7.390  0.0000E+00  0.8000E+01
     -7.318  0.0000E+00  0.8000E+01
     -7.247  0.0000E+00  0.8000E+01
     -7.175  0.0000E+00  0.8000E+01
     -7.103  0.0000E+00  0.8000E+01
     -7.032  0.0000E+00  0.8000E+01
     -6.960  0.0000E+00  0.8000E+01
     -6.888  0.0000E+00  0.8000E+01
     -6.817  0.0000E+00  0.8000E+01
     -6.745  0.0000E+00  0.8000E+01
     -6.674  0.0000E+00  0.8000E+01
     -6.602  0.0000E+00  0.8000E+01
     -6.530  0.0000E+00  0.8000E+01
     -6.459  0.0000E+00  0.8000E+01
     -6.387  0.0000E+00  0.8000E+01
     -6.315  0.0000E+00  0.8000E+01
     -6.244  0.0000E+00  0.8000E+01
     -6.172  0.0000E+00  0.8000E+01
     -6.100  0.0000E+00  0.8000E+01
     -6.029  0.0000E+00  0.8000E+01
     -5.957  0.0000E+00  0.8000E+01
     -5.885  0.0000E+00  0.8000E+01
     -5.814  0.0000E+00  0.8000E+01
     -5.742  0.0000E+00  0.8000E+01
     -5.670  0.0000E+00  0.8000E+01
     -5.599  0.0000E+00  0.8000E+01
     -5.527  0.0000E+00  0.8000E+01
     -5.455  0.0000E+00  0.8000E+01
     -5.384  0.0000E+00  0.8000E+01
     -5.312  0.0000E+00  0.8000E+01
     -5.240  0.0000E+00  0.8000E+01
     -5.169  0.0000E+00  0.8000E+01
     -5.097  0.0000E+00  0.8000E+01
     -5.025  0.0000E+00  0.8000E+01
     -4.954  0.0000E+00  0.8000E+01
     -4.882  0.0000E+00  0.8000E+01
     -4.810  0.0000E+00  0.8000E+01
     -4.739  0.0000E+00  0.8000E+01
     -4.667  0.0000E+00  0.8000E+01
     -4.596  0.0000E+00  0.8000E+01
     -4.524  0.0000E+00  0.8000E+01
     -4.452  0.0000E+00  0.8000E+01
     -4.381  0.0000E+00  0.8000E+01
     -4.309  0.0000E+00  0.8000E+01
     -4.237  0.0000E+00  0.8000E+01
     -4.166  0.0000E+00  0.8000E+01
     -4.094  0.0000E+00  0.8000E+01
     -4.022  0.0000E+00  0.8000E+01
     -3.951  0.0000E+00  0.8000E+01
     -3.879  0.0000E+00  0.8000E+01
     -3.807  0.0000E+00  0.8000E+01
     -3.736  0.0000E+00  0.8000E+01
     -3.664  0.0000E+00  0.8000E+01
     -3.592  0.0000E+00  0.8000E+01
     -3.521  0.0000E+00  0.8000E+01
     -3.449  0.0000E+00  0.8000E+01
     -3.377  0.0000E+00  0.8000E+01
     -3.306  0.0000E+00  0.8000E+01
     -3.234  0.0000E+00  0.8000E+01
     -3.162  0.0000E+00  0.8000E+01
     -3.091  0.0000E+00  0.8000E+01
     -3.019  0.0000E+00  0.8000E+01
     -2.947  0.0000E+00  0.8000E+01
     -2.876  0.0000E+00  0.8000E+01
     -2.804  0.0000E+00  0.8000E+01
     -2.732  0.0000E+00  0.8000E+01
     -2.661  0.0000E+00  0.8000E+01
     -2.589  0.0000E+00  0.8000E+01
     -2.518  0.0000E+00  0.8000E+01
     -2.446  0.0000E+00  0.8000E+01
     -2.374  0.0000E+00  0.8000E+01
     -2.303  0.0000E+00  0.8000E+01
     -2.231  0.0000E+00  0.8000E+01
     -2.159  0.0000E+00  0.8000E+01
     -2.088  0.0000E+00  0.8000E+01
     -2.016  0.0000E+00  0.8000E+01
     -1.944 -0.5307E-26  0.8000E+01
     -1.873 -0.1410E-23  0.8000E+01
     -1.801 -0.2900E-21  0.8000E+01
     -1.729 -0.4601E-19  0.8000E+01
     -1.658 -0.5631E-17  0.8000E+01
     -1.586 -0.5313E-15  0.8000E+01
     -1.514 -0.3708E-13  0.8000E+01
     -1.443 -0.2093E-11  0.8000E+01
     -1.371 -0.8975E-10  0.8000E+01
     -1.299 -0.2955E-08  0.8000E+01
     -1.228 -0.7457E-07  0.8000E+01
     -1.156 -0.1439E-05  0.8000E+01
     -1.084 -0.2118E-04  0.8000E+01
     -1.013 -0.2367E-03  0.8000E+01
     -0.941 -0.1994E-02  0.8000E+01
     -0.869 -0.1253E-01  0.7999E+01
     -0.798 -0.5771E-01  0.7995E+01
     -0.726 -0.1877E+00  0.7981E+01
     -0.654 -0.3920E+00  0.7953E+01
     -0.583 -0.3360E+00  0.7929E+01
     -0.511  0.7900E+00  0.7986E+01
     -0.440  0.3546E+01  0.8240E+01
     -0.368  0.6874E+01  0.8732E+01
     -0.296  0.8306E+01  0.9328E+01
     -0.225  0.6571E+01  0.9798E+01
     -0.153  0.3195E+01  0.1003E+02
     -0.081  0.5958E+00  0.1007E+02
     -0.010 -0.3811E+00  0.1004E+02
      0.062 -0.4040E+00  0.1001E+02
      0.134 -0.2969E+00  0.9993E+01
      0.205 -0.4276E+00  0.9962E+01
      0.277 -0.7468E+00  0.9908E+01
      0.349 -0.6421E+00  0.9862E+01
      0.420  0.1229E+01  0.9950E+01
      0.492  0.6156E+01  0.1039E+02
      0.564  0.1355E+02  0.1136E+02
      0.635  0.1998E+02  0.1279E+02
      0.707  0.2116E+02  0.1431E+02
      0.779  0.1600E+02  0.1546E+02
      0.850  0.7998E+01  0.1603E+02
      0.922  0.1846E+01  0.1616E+02
      0.994 -0.7060E+00  0.1611E+02
      1.065 -0.9002E+00  0.1605E+02
      1.137 -0.4581E+00  0.1601E+02
      1.209 -0.1503E+00  0.1600E+02
      1.280 -0.3501E-01  0.1600E+02
      1.352 -0.6001E-02  0.1600E+02
      1.423 -0.7707E-03  0.1600E+02
      1.495 -0.7492E-04  0.1600E+02
      1.567 -0.5546E-05  0.1600E+02
      1.638 -0.3140E-06  0.1600E+02
      1.710 -0.1363E-07  0.1600E+02
      1.782 -0.4549E-09  0.1600E+02
      1.853 -0.1168E-10  0.1600E+02
      1.925 -0.2340E-12  0.1600E+02
      1.997 -0.3099E-14  0.1600E+02
      2.068  0.0000E+00  0.1600E+02
      2.140  0.0000E+00  0.1600E+02
      2.212  0.0000E+00  0.1600E+02
      2.283  0.0000E+00  0.1600E+02
      2.355  0.0000E+00  0.1600E+02
      2.427  0.0000E+00  0.1600E+02
      2.498  0.0000E+00  0.1600E+02
      2.570  0.0000E+00  0.1600E+02
      2.642  0.0000E+00  0.1600E+02
      2.713  0.0000E+00  0.1600E+02
      2.71071471    -18.75570507  301     -8.97417377      1.00000000
    -18.756  0.0000E+00  0.0000E+00
    -18.684  0.0000E+00  0.0000E+00
    -18.613  0.0000E+00  0.0000E+00
    -18.541  0.0000E+00  0.0000E+00
    -18.469  0.0000E+00  0.0000E+00
    -18.398 -0.3374E-27 -0.2414E-28
    -18.326 -0.1008E-24 -0.7238E-26
    -18.255 -0.2332E-22 -0.1676E-23
    -18.183 -0.4167E-20 -0.2998E-21
    -18.112 -0.5746E-18 -0.4142E-19
    -18.040 -0.6114E-16 -0.4416E-17
    -17.969 -0.5018E-14 -0.3634E-15
    -17.897 -0.3081E-12 -0.2241E-13
    -17.825 -0.1493E-10 -0.1091E-11
    -17.754 -0.5568E-09 -0.4093E-10
    -17.682 -0.1594E-07 -0.1182E-08
    -17.611 -0.3497E-06 -0.2621E-07
    -17.539 -0.5863E-05 -0.4457E-06
    -17.468 -0.7484E-04 -0.5801E-05
    -17.396 -0.7233E-03 -0.5756E-04
    -17.325 -0.5251E-02 -0.4333E-03
    -17.253 -0.2824E-01 -0.2454E-02
    -17.182 -0.1097E+00 -0.1030E-01
    -17.110 -0.2907E+00 -0.3111E-01
    -17.038 -0.4391E+00 -0.6252E-01
    -16.967  0.3530E-01 -0.6000E-01
    -16.895  0.1978E+01  0.8156E-01
    -16.824  0.5278E+01  0.4593E+00
    -16.752  0.7969E+01  0.1029E+01
    -16.681  0.7808E+01  0.1588E+01
    -16.609  0.4941E+01  0.1942E+01
    -16.538  0.1714E+01  0.2064E+01
    -16.466 -0.6396E-01  0.2060E+01
    -16.394 -0.4383E+00  0.2028E+01
    -16.323 -0.2697E+00  0.2009E+01
    -16.251 -0.9760E-01  0.2002E+01
    -16.180 -0.2430E-01  0.2000E+01
    -16.108 -0.4386E-02  0.2000E+01
    -16.037 -0.5873E-03  0.2000E+01
    -15.965 -0.5912E-04  0.2000E+01
    -15.894 -0.4509E-05  0.2000E+01
    -15.822 -0.2620E-06  0.2000E+01
    -15.750 -0.1164E-07  0.2000E+01
    -15.679 -0.3961E-09  0.2000E+01
    -15.607 -0.1035E-10  0.2000E+01
    -15.536 -0.2048E-12  0.2000E+01
    -15.464 -0.6206E-14  0.2000E+01
    -15.393  0.0000E+00  0.2000E+01
    -15.321  0.0000E+00  0.2000E+01
    -15.250  0.0000E+00  0.2000E+01
    -15.178  0.0000E+00  0.2000E+01
    -15.106  0.0000E+00  0.2000E+01
    -15.035  0.0000E+00  0.2000E+01
    -14.963  0.0000E+00  0.2000E+01
    -14.892  0.0000E+00  0.2000E+01
    -14.820  0.0000E+00  0.2000E+01
    -14.749  0.0000E+00  0.2000E+01
    -14.677  0.0000E+00  0.2000E+01
    -14.606  0.0000E+00  0.2000E+01
    -14.534  0.0000E+00  0.2000E+01
    -14.462  0.0000E+00  0.2000E+01
    -14.391  0.0000E+00  0.2000E+01
    -14.319  0.0000E+00  0.2000E+01
    -14.248  0.0000E+00  0.2000E+01
    -14.176  0.0000E+00  0.2000E+01
    -14.105  0.0000E+00  0.2000E+01
    -14.033  0.0000E+00  0.2000E+01
    -13.962  0.0000E+00  0.2000E+01
    -13.890  0.0000E+00  0.2000E+01
    -13.818  0.0000E+00  0.2000E+01
    -13.747  0.0000E+00  0.2000E+01
    -13.675  0.0000E+00  0.2000E+01
    -13.604  0.0000E+00  0.2000E+01
    -13.532  0.0000E+00  0.2000E+01
    -13.461  0.0000E+00  0.2000E+01
    -13.389  0.0000E+00  0.2000E+01
    -13.318  0.0000E+00  0.2000E+01
    -13.246  0.0000E+00  0.2000E+01
    -13.174  0.0000E+00  0.2000E+01
    -13.103  0.0000E+00  0.2000E+01
    -13.031  0.0000E+00  0.2000E+01
    -12.960  0.0000E+00  0.2000E+01
    -12.888  0.0000E+00  0.2000E+01
    -12.817  0.0000E+00  0.2000E+01
    -12.745  0.0000E+00  0.2000E+01
    -12.674  0.0000E+00  0.2000E+01
    -12.602  0.0000E+00  0.2000E+01
    -12.530  0.0000E+00  0.2000E+01
    -12.459  0.0000E+00  0.2000E+01
    -12.387  0.0000E+00  0.2000E+01
    -12.316  0.0000E+00  0.2000E+01
    -12.244  0.0000E+00  0.2000E+01
    -12.173  0.0000E+00  0.2000E+01
    -12.101  0.0000E+00  0.2000E+01
    -12.030  0.0000E+00  0.2000E+01
    -11.958  0.0000E+00  0.2000E+01
    -11.886  0.0000E+00  0.2000E+01
    -11.815  0.0000E+00  0.2000E+01
    -11.743  0.0000E+00  0.2000E+01
    -11.672  0.0000E+00  0.2000E+01
    -11.600  0.0000E+00  0.2000E+01
    -11.529  0.0000E+00  0.2000E+01
    -11.457  0.0000E+00  0.2000E+01
    -11.386  0.0000E+00  0.2000E+01
    -11.314  0.0000E+00  0.2000E+01
    -11.242  0.0000E+00  0.2000E+01
    -11.171  0.0000E+00  0.2000E+01
    -11.099  0.0000E+00  0.2000E+01
    -11.028  0.0000E+00  0.2000E+01
    -10.956 -0.5920E-28  0.2000E+01
    -10.885 -0.1916E-25  0.2000E+01
    -10.813 -0.4789E-23  0.2000E+01
    -10.742 -0.9248E-21  0.2000E+01
    -10.670 -0.1379E-18  0.2000E+01
    -10.598 -0.1588E-16  0.2000E+01
    -10.527 -0.1411E-14  0.2000E+01
    -10.455 -0.9363E-13  0.2000E+01
    -10.384 -0.4945E-11  0.2000E+01
    -10.312 -0.2005E-09  0.2000E+01
    -10.241 -0.6254E-08  0.2000E+01
    -10.169 -0.1499E-06  0.2000E+01
    -10.098 -0.2756E-05  0.2000E+01
    -10.026 -0.3879E-04  0.2000E+01
     -9.954 -0.4163E-03  0.2000E+01
     -9.883 -0.3390E-02  0.2000E+01
     -9.811 -0.2077E-01  0.1998E+01
     -9.740 -0.9443E-01  0.1991E+01
     -9.668 -0.3094E+00  0.1969E+01
     -9.597 -0.6808E+00  0.1921E+01
     -9.525 -0.7654E+00  0.1866E+01
     -9.454  0.6865E+00  0.1915E+01
     -9.382  0.5014E+01  0.2274E+01
     -9.310  0.1173E+02  0.3113E+01
     -9.239  0.1776E+02  0.4384E+01
     -9.167  0.1967E+02  0.5791E+01
     -9.096  0.1660E+02  0.6979E+01
     -9.024  0.1055E+02  0.7734E+01
     -8.953  0.4575E+01  0.8061E+01
     -8.881  0.7830E+00  0.8117E+01
     -8.810 -0.5977E+00  0.8074E+01
     -8.738 -0.6117E+00  0.8031E+01
     -8.666 -0.3011E+00  0.8009E+01
     -8.595 -0.9850E-01  0.8002E+01
     -8.523 -0.2309E-01  0.8000E+01
     -8.452 -0.3994E-02  0.8000E+01
     -8.380 -0.5178E-03  0.8000E+01
     -8.309 -0.5074E-04  0.8000E+01
     -8.237 -0.3781E-05  0.8000E+01
     -8.166 -0.2150E-06  0.8000E+01
     -8.094 -0.9361E-08  0.8000E+01
     -8.022 -0.3125E-09  0.8000E+01
     -7.951 -0.8014E-11  0.8000E+01
     -7.879 -0.1614E-12  0.8000E+01
     -7.808  0.0000E+00  0.8000E+01
     -7.736  0.0000E+00  0.8000E+01
     -7.665  0.0000E+00  0.8000E+01
     -7.593  0.0000E+00  0.8000E+01
     -7.522  0.0000E+00  0.8000E+01
     -7.450  0.0000E+00  0.8000E+01
     -7.379  0.0000E+00  0.8000E+01
     -7.307  0.0000E+00  0.8000E+01
     -7.235  0.0000E+00  0.8000E+01
     -7.164  0.0000E+00  0.8000E+01
     -7.092  0.0000E+00  0.8000E+01
     -7.021  0.0000E+00  0.8000E+01
     -6.949  0.0000E+00  0.8000E+01
     -6.878  0.0000E+00  0.8000E+01
     -6.806  0.0000E+00  0.8000E+01
     -6.735  0.0000E+00  0.8000E+01
     -6.663  0.0000E+00  0.8000E+01
     -6.591  0.0000E+00  0.8000E+01
     -6.520  0.0000E+00  0.8000E+01
     -6.448  0.0000E+00  0.8000E+01
     -6.377  0.0000E+00  0.8000E+01
     -6.305  0.0000E+00  0.8000E+01
     -6.234  0.0000E+00  0.8000E+01
     -6.162  0.0000E+00  0.8000E+01
     -6.091  0.0000E+00  0.8000E+01
     -6.019  0.0000E+00  0.8000E+01
     -5.947  0.0000E+00  0.8000E+01
     -5.876  0.0000E+00  0.8000E+01
     -5.804  0.0000E+00  0.8000E+01
     -5.733  0.0000E+00  0.8000E+01
     -5.661  0.0000E+00  0.8000E+01
     -5.590  0.0000E+00  0.8000E+01
     -5.518  0.0000E+00  0.8000E+01
     -5.447  0.0000E+00  0.8000E+01
     -5.375  0.0000E+00  0.8000E+01
     -5.303  0.0000E+00  0.8000E+01
     -5.232  0.0000E+00  0.8000E+01
     -5.160  0.0000E+00  0.8000E+01
     -5.089  0.0000E+00  0.8000E+01
     -5.017  0.0000E+00  0.8000E+01
     -4.946  0.0000E+00  0.8000E+01
     -4.874  0.0000E+00  0.8000E+01
     -4.803  0.0000E+00  0.8000E+01
     -4.731  0.0000E+00  0.8000E+01
     -4.659  0.0000E+00  0.8000E+01
     -4.588  0.0000E+00  0.8000E+01
     -4.516  0.0000E+00  0.8000E+01
     -4.445  0.0000E+00  0.8000E+01
     -4.373  0.0000E+00  0.8000E+01
     -4.302  0.0000E+00  0.8000E+01
     -4.230  0.0000E+00  0.8000E+01
     -4.159  0.0000E+00  0.8000E+01
     -4.087  0.0000E+00  0.8000E+01
     -4.015  0.0000E+00  0.8000E+01
     -3.944  0.0000E+00  0.8000E+01
     -3.872  0.0000E+00  0.8000E+01
     -3.801  0.0000E+00  0.8000E+01
     -3.729  0.0000E+00  0.8000E+01
     -3.658  0.0000E+00  0.8000E+01
     -3.586  0.0000E+00  0.8000E+01
     -3.515  0.0000E+00  0.8000E+01
     -3.443  0.0000E+00  0.8000E+01
     -3.371  0.0000E+00  0.8000E+01
     -3.300  0.0000E+00  0.8000E+01
     -3.228  0.0000E+00  0.8000E+01
     -3.157  0.0000E+00  0.8000E+01
     -3.085  0.0000E+00  0.8000E+01