    5    5    1    1
  0.1973881E+03  0.1007603E-08  0.9789295E-09  0.1001115E-08  0.2000000E-14
   50.000000000000000     
  CAR 
 unknown system                          
      8      4      8

  0.2500000E+00  0.2500000E+00  0.2500000E+00  0.2500000E+00
    1      -16.821911   1.000000
    2       -9.429521   1.000055
    3       -9.175333   1.013544
    4       -8.967771   0.986299
    5       -0.309985   0.000000
    6        0.584399   0.000000
    7        0.660766   0.000000
    8        0.706479   0.000000

 -0.2500000E+00  0.2500000E+00  0.2500000E+00  0.2500000E+00
    1      -16.821939   1.000000
    2       -9.429611   1.000054
    3       -9.175403   1.013531
    4       -8.967862   0.986420
    5       -0.306117   0.000000
    6        0.561734   0.000000
    7        0.654941   0.000000
    8        0.706968   0.000000

  0.2500000E+00 -0.2500000E+00  0.2500000E+00  0.2500000E+00
    1      -16.821941   1.000000
    2       -9.429603   1.000054
    3       -9.175430   1.013526
    4       -8.967878   0.986442
    5       -0.314310   0.000000
    6        0.579117   0.000000
    7        0.680142   0.000000
    8        0.720221   0.000000

 -0.2500000E+00 -0.2500000E+00  0.2500000E+00  0.2500000E+00
    1      -16.821995   1.000000
    2       -9.429613   1.000054
    3       -9.175447   1.013523
    4       -8.967919   0.986497
    5       -0.310159   0.000000
    6        0.569532   0.000000
    7        0.670665   0.000000
    8        0.717631   0.000000
