       N       E                     dE             d eps       ncg     rms          rms(c)
DAV:   1     0.136046488819E+02    0.13605E+02   -0.19289E+03    96   0.404E+02
DAV:   2    -0.230925568994E+02   -0.36697E+02   -0.36697E+02    64   0.113E+02
DAV:   3    -0.274400347906E+02   -0.43475E+01   -0.43653E+01    64   0.453E+01
DAV:   4    -0.276126076091E+02   -0.17257E+00   -0.17168E+00   128   0.996E+00
DAV:   5    -0.276126609973E+02   -0.53388E-04   -0.53388E-04    88   0.199E-01    0.879E+00
RMM:   6    -0.246507437340E+02    0.29619E+01   -0.55175E+00    64   0.144E+01    0.421E+00
RMM:   7    -0.241498355542E+02    0.50091E+00   -0.12595E+00    64   0.650E+00    0.225E+00
RMM:   8    -0.240298634146E+02    0.11997E+00   -0.11816E-01    64   0.230E+00    0.978E-01
RMM:   9    -0.239970838633E+02    0.32780E-01   -0.32167E-02    64   0.132E+00    0.464E-01
RMM:  10    -0.239943147702E+02    0.27691E-02   -0.80165E-03    64   0.530E-01    0.336E-01
RMM:  11    -0.239929941418E+02    0.13206E-02   -0.41542E-03    64   0.372E-01    0.305E-01
RMM:  12    -0.239887141197E+02    0.42800E-02   -0.23280E-03    64   0.314E-01    0.775E-02
RMM:  13    -0.239916397965E+02   -0.29257E-02   -0.43590E-04    64   0.135E-01    0.708E-02
RMM:  14    -0.239979713842E+02   -0.63316E-02   -0.16298E-03    64   0.241E-01    0.139E-01
RMM:  15    -0.239987159153E+02   -0.74453E-03   -0.30532E-04    64   0.104E-01    0.369E-02
RMM:  16    -0.240008985599E+02   -0.21826E-02   -0.60690E-04    64   0.148E-01    0.979E-02
RMM:  17    -0.240009825465E+02   -0.83987E-04   -0.10713E-04    64   0.649E-02    0.188E-02
RMM:  18    -0.240011535584E+02   -0.17101E-03   -0.10088E-05    60   0.209E-02    0.153E-02
RMM:  19    -0.240012629681E+02   -0.10941E-03   -0.14941E-05    64   0.255E-02    0.135E-02
RMM:  20    -0.240012738133E+02   -0.10845E-04   -0.10135E-06    48   0.769E-03    0.145E-03
RMM:  21    -0.240012822053E+02   -0.83920E-05   -0.41583E-07    48   0.401E-03    0.813E-04
RMM:  22    -0.240012832321E+02   -0.10268E-05   -0.73145E-08    44   0.189E-03    0.580E-04
RMM:  23    -0.240012845289E+02   -0.12969E-05   -0.13792E-07    48   0.265E-03    0.592E-04
RMM:  24    -0.240012846946E+02   -0.16566E-06    0.00000E+00    32   0.113E-03
    1 T=    66. E= -.23967343E+02 F= -.24001285E+02 E0= -.24013710E+02  EK= 0.33934E-01 SP= 0.00E+00 SK= 0.78E-05
       N       E                     dE             d eps       ncg     rms          rms(c)
DAV:   1    -0.240513512437E+02   -0.50067E-01   -0.19903E+00    64   0.132E+01    0.936E-01
RMM:   2    -0.240670040122E+02   -0.15653E-01   -0.80072E-02    64   0.224E+00    0.102E+00
RMM:   3    -0.240813515179E+02   -0.14348E-01   -0.36988E-01    64   0.357E+00    0.106E+00
RMM:   4    -0.240415252788E+02    0.39826E-01   -0.10073E-01    64   0.177E+00    0.657E-01
RMM:   5    -0.240377285116E+02    0.37968E-02   -0.28710E-02    64   0.110E+00    0.265E-01
RMM:   6    -0.240379970703E+02   -0.26856E-03   -0.11764E-03    64   0.265E-01    0.360E-01
RMM:   7    -0.240372513807E+02    0.74569E-03   -0.10568E-02    64   0.585E-01    0.260E-01
RMM:   8    -0.240366564220E+02    0.59496E-03   -0.45730E-04    64   0.157E-01    0.103E-01
RMM:   9    -0.240366952412E+02   -0.38819E-04   -0.36294E-04    64   0.114E-01    0.530E-02
RMM:  10    -0.240367644777E+02   -0.69237E-04   -0.60204E-04    64   0.143E-01    0.190E-02
RMM:  11    -0.240367916576E+02   -0.27180E-04   -0.17790E-05    64   0.326E-02    0.740E-03
RMM:  12    -0.240368127007E+02   -0.21043E-04   -0.27050E-06    58   0.114E-02    0.795E-03
RMM:  13    -0.240368229743E+02   -0.10274E-04   -0.53067E-06    64   0.137E-02    0.665E-03
RMM:  14    -0.240368262667E+02   -0.32924E-05   -0.41122E-06    60   0.125E-02    0.468E-03
RMM:  15    -0.240368304151E+02   -0.41484E-05   -0.54414E-07    48   0.576E-03    0.260E-03
RMM:  16    -0.240368314297E+02   -0.10146E-05   -0.48531E-07    48   0.446E-03    0.150E-03
RMM:  17    -0.240368323688E+02   -0.93913E-06   -0.67655E-07    48   0.561E-03
    2 T=   100. E= -.23984610E+02 F= -.24036832E+02 E0= -.24049244E+02  EK= 0.51809E-01 SP= 0.20E-03 SK= 0.21E-03
       N       E                     dE             d eps       ncg     rms          rms(c)
DAV:   1    -0.240126240344E+02    0.24207E-01   -0.73998E-01    64   0.839E+00    0.377E-01
RMM:   2    -0.240133421326E+02   -0.71810E-03   -0.27991E-02    64   0.128E+00    0.436E-01
RMM:   3    -0.240161302109E+02   -0.27881E-02   -0.39610E-03    64   0.503E-01    0.632E-01
RMM:   4    -0.240113495219E+02    0.47807E-02   -0.67478E-03    64   0.471E-01    0.221E-01
RMM:   5    -0.240113452328E+02    0.42891E-05   -0.29831E-04    64   0.132E-01    0.150E-01
RMM:   6    -0.240112027882E+02    0.14244E-03   -0.44921E-04    64   0.130E-01    0.624E-02
RMM:   7    -0.240112068295E+02   -0.40413E-05   -0.21486E-04    64   0.934E-02    0.214E-02
RMM:   8    -0.240112133615E+02   -0.65320E-05   -0.23876E-05    64   0.342E-02    0.225E-02
RMM:   9    -0.240112313058E+02   -0.17944E-04   -0.14156E-04    64   0.705E-02    0.361E-02
RMM:  10    -0.240112312423E+02    0.63456E-07   -0.32018E-05    64   0.373E-02    0.340E-02
RMM:  11    -0.240112142101E+02    0.17032E-04   -0.65383E-05    64   0.468E-02    0.836E-03
RMM:  12    -0.240112240979E+02   -0.98878E-05   -0.32952E-06    60   0.137E-02    0.643E-03
RMM:  13    -0.240112301401E+02   -0.60422E-05   -0.83129E-06    64   0.187E-02    0.672E-03
RMM:  14    -0.240112327859E+02   -0.26458E-05   -0.23254E-06    56   0.101E-02    0.676E-03
RMM:  15    -0.240112352385E+02   -0.24526E-05   -0.52987E-07    48   0.566E-03    0.631E-03
RMM:  16    -0.240112353524E+02   -0.11387E-06   -0.70400E-07    48   0.565E-03
    3 T=    89. E= -.23963223E+02 F= -.24011235E+02 E0= -.24023773E+02  EK= 0.46041E-01 SP= 0.10E-02 SK= 0.93E-03
       N       E                     dE             d eps       ncg     rms          rms(c)
DAV:   1    -0.240321729790E+02   -0.20938E-01   -0.87764E-01    64   0.914E+00    0.744E-01
RMM:   2    -0.240606796565E+02   -0.28507E-01   -0.12501E-01    64   0.242E+00    0.984E-01
RMM:   3    -0.240258788270E+02    0.34801E-01   -0.10753E-01    64   0.215E+00    0.321E-01
RMM:   4    -0.240272753655E+02   -0.13965E-02   -0.30537E-02    64   0.104E+00    0.219E-01
RMM:   5    -0.240290605113E+02   -0.17851E-02   -0.19820E-02    64   0.807E-01    0.250E-01
RMM:   6    -0.240292026144E+02   -0.14210E-03   -0.90011E-04    64   0.228E-01    0.243E-01
RMM:   7    -0.240278658803E+02    0.13367E-02   -0.66406E-03    64   0.479E-01    0.142E-01
RMM:   8    -0.240275927592E+02    0.27312E-03   -0.21420E-04    64   0.107E-01    0.112E-01
RMM:   9    -0.240274100757E+02    0.18268E-03   -0.21635E-04    64   0.905E-02    0.824E-02
RMM:  10    -0.240272953010E+02    0.11477E-03   -0.22616E-04    64   0.935E-02    0.569E-02
RMM:  11    -0.240272222858E+02    0.73015E-04   -0.19785E-04    64   0.875E-02    0.300E-02
RMM:  12    -0.240272111369E+02    0.11149E-04   -0.94366E-05    64   0.607E-02    0.165E-02
RMM:  13    -0.240272129012E+02   -0.17643E-05   -0.11175E-05    64   0.238E-02    0.100E-02
RMM:  14    -0.240272161167E+02   -0.32156E-05   -0.12659E-05    64   0.223E-02    0.410E-03
RMM:  15    -0.240272189324E+02   -0.28157E-05   -0.27225E-06    56   0.114E-02    0.107E-03
RMM:  16    -0.240272205173E+02   -0.15849E-05   -0.59453E-07    48   0.617E-03    0.113E-03
RMM:  17    -0.240272213315E+02   -0.81414E-06   -0.16372E-07    48   0.348E-03
    4 T=   144. E= -.23947653E+02 F= -.24027221E+02 E0= -.24031132E+02  EK= 0.74213E-01 SP= 0.24E-02 SK= 0.30E-02
       N       E                     dE             d eps       ncg     rms          rms(c)
DAV:   1    -0.239233123434E+02    0.10391E+00   -0.45016E-01    64   0.696E+00    0.533E-01
RMM:   2    -0.239246133994E+02   -0.13011E-02   -0.36462E-02    64   0.151E+00    0.416E-01
RMM:   3    -0.239568655247E+02   -0.32252E-01   -0.10252E-01    64   0.193E+00    0.953E-01
RMM:   4    -0.239230900760E+02    0.33775E-01   -0.67651E-02    64   0.158E+00    0.356E-01
RMM:   5    -0.239201665081E+02    0.29236E-02   -0.12416E-02    64   0.694E-01    0.187E-01
RMM:   6    -0.239200800105E+02    0.86498E-04   -0.16512E-03    64   0.279E-01    0.157E-01
RMM:   7    -0.239196145253E+02    0.46549E-03   -0.22793E-03    64   0.303E-01    0.584E-02
RMM:   8    -0.239197070684E+02   -0.92543E-04   -0.52044E-04    64   0.152E-01    0.278E-02
RMM:   9    -0.239199988330E+02   -0.29176E-03   -0.12610E-04    64   0.750E-02    0.250E-02
RMM:  10    -0.239200227146E+02   -0.23882E-04   -0.41094E-05    64   0.405E-02    0.122E-02
RMM:  11    -0.239200413225E+02   -0.18608E-04   -0.16451E-05    64   0.261E-02    0.693E-03
RMM:  12    -0.239200462551E+02   -0.49326E-05   -0.22722E-06    52   0.107E-02    0.471E-03
RMM:  13    -0.239200488476E+02   -0.25925E-05   -0.25434E-06    56   0.108E-02    0.242E-03
RMM:  14    -0.239200504173E+02   -0.15697E-05   -0.35844E-07    48   0.469E-03    0.161E-03
RMM:  15    -0.239200512611E+02   -0.84380E-06   -0.23989E-07    48   0.369E-03
    5 T=    50. E= -.23884371E+02 F= -.23920051E+02 E0= -.23923918E+02  EK= 0.25799E-01 SP= 0.49E-02 SK= 0.50E-02
       N       E                     dE             d eps       ncg     rms          rms(c)
DAV:   1    -0.239865291231E+02   -0.66479E-01   -0.25327E+00    64   0.159E+01    0.695E-01
RMM:   2    -0.239997609433E+02   -0.13232E-01   -0.18748E-01    64   0.313E+00    0.822E-01
RMM:   3    -0.240112748723E+02   -0.11514E-01   -0.13242E-01    64   0.234E+00    0.774E-01
RMM:   4    -0.239896131324E+02    0.21662E-01   -0.42184E-02    64   0.127E+00    0.401E-01
RMM:   5    -0.239853797102E+02    0.42334E-02   -0.25433E-02    64   0.967E-01    0.133E-01
RMM:   6    -0.239862433886E+02   -0.86368E-03   -0.25413E-03    64   0.356E-01    0.931E-02
RMM:   7    -0.239864702661E+02   -0.22688E-03   -0.44980E-04    64   0.144E-01    0.583E-02
RMM:   8    -0.239865207564E+02   -0.50490E-04   -0.11961E-03    64   0.203E-01    0.457E-02
RMM:   9    -0.239865240292E+02   -0.32728E-05   -0.22023E-04    64   0.920E-02    0.130E-02
RMM:  10    -0.239865718731E+02   -0.47844E-04   -0.95248E-05    64   0.613E-02    0.972E-03
RMM:  11    -0.239865926955E+02   -0.20822E-04   -0.16391E-05    64   0.260E-02    0.474E-03
RMM:  12    -0.239866019448E+02   -0.92493E-05   -0.37850E-06    60   0.120E-02    0.265E-03
RMM:  13    -0.239866029787E+02   -0.10339E-05   -0.23538E-06    54   0.975E-03    0.148E-03
RMM:  14    -0.239866042153E+02   -0.12367E-05   -0.25695E-07    48   0.416E-03    0.846E-04
RMM:  15    -0.239866050560E+02   -0.84062E-06   -0.15906E-07    48   0.284E-03
    6 T=   177. E= -.23878660E+02 F= -.23986605E+02 E0= -.23990516E+02  EK= 0.91566E-01 SP= 0.74E-02 SK= 0.90E-02
       N       E                     dE             d eps       ncg     rms          rms(c)
DAV:   1    -0.239162346034E+02    0.70370E-01   -0.82053E-01    64   0.962E+00    0.497E-01
RMM:   2    -0.239134703600E+02    0.27642E-02   -0.35767E-02    64   0.146E+00    0.214E-01
RMM:   3    -0.239142812485E+02   -0.81089E-03   -0.41931E-03    64   0.471E-01    0.137E-01
RMM:   4    -0.239137284510E+02    0.55280E-03   -0.37062E-03    64   0.356E-01    0.570E-02
RMM:   5    -0.239147196210E+02   -0.99117E-03   -0.65839E-04    64   0.146E-01    0.202E-02
RMM:   6    -0.239149413791E+02   -0.22176E-03   -0.59853E-05    64   0.470E-02    0.154E-02
RMM:   7    -0.239149803227E+02   -0.38944E-04   -0.46986E-05    64   0.384E-02    0.335E-03
RMM:   8    -0.239149988621E+02   -0.18539E-04   -0.46704E-06    60   0.147E-02    0.385E-03
RMM:   9    -0.239150131084E+02   -0.14246E-04   -0.28283E-06    56   0.958E-03    0.125E-03
RMM:  10    -0.239150266792E+02   -0.13571E-04   -0.93319E-07    48   0.619E-03    0.118E-03
RMM:  11    -0.239150281591E+02   -0.14799E-05   -0.23106E-07    48   0.302E-03    0.604E-04
RMM:  12    -0.239150294259E+02   -0.12669E-05   -0.10594E-07    44   0.194E-03    0.350E-04
RMM:  13    -0.239150307471E+02   -0.13212E-05   -0.91546E-08    44   0.190E-03    0.209E-04
RMM:  14    -0.239150309253E+02   -0.17820E-06    0.00000E+00    32   0.126E-03
    7 T=    78. E= -.23848204E+02 F= -.23915031E+02 E0= -.23918944E+02  EK= 0.40545E-01 SP= 0.12E-01 SK= 0.15E-01
       N       E                     dE             d eps       ncg     rms          rms(c)
DAV:   1    -0.239587750214E+02   -0.43744E-01   -0.71952E-01    64   0.970E+00    0.509E-01
RMM:   2    -0.239589102292E+02   -0.13521E-03   -0.30033E-02    64   0.137E+00    0.328E-01
RMM:   3    -0.239568632781E+02    0.20470E-02   -0.79729E-03    64   0.558E-01    0.152E-01
RMM:   4    -0.239591341293E+02   -0.22709E-02   -0.51904E-03    64   0.444E-01    0.989E-02
RMM:   5    -0.239601556865E+02   -0.10216E-02   -0.52991E-03    64   0.424E-01    0.169E-01
RMM:   6    -0.239595976093E+02    0.55808E-03   -0.32941E-03    64   0.335E-01    0.109E-01
RMM:   7    -0.239594489795E+02    0.14863E-03   -0.16935E-03    64   0.247E-01    0.391E-02
RMM:   8    -0.239595056957E+02   -0.56716E-04   -0.88760E-05    64   0.692E-02    0.211E-02
RMM:   9    -0.239595880395E+02   -0.82344E-04   -0.85073E-05    64   0.528E-02    0.725E-03
RMM:  10    -0.239596254418E+02   -0.37402E-04   -0.76973E-06    64   0.185E-02    0.373E-03
RMM:  11    -0.239596368431E+02   -0.11401E-04   -0.10627E-06    48   0.630E-03    0.128E-03
RMM:  12    -0.239596450261E+02   -0.81830E-05   -0.19393E-06    49   0.842E-03    0.182E-03
RMM:  13    -0.239596462790E+02   -0.12529E-05   -0.36824E-07    48   0.414E-03    0.960E-04
RMM:  14    -0.239596471343E+02   -0.85534E-06   -0.46029E-07    48   0.426E-03
    8 T=   111. E= -.23867419E+02 F= -.23959647E+02 E0= -.23967320E+02  EK= 0.57147E-01 SP= 0.16E-01 SK= 0.19E-01
       N       E                     dE             d eps       ncg     rms          rms(c)
DAV:   1    -0.239936480841E+02   -0.34002E-01   -0.12409E+00    64   0.109E+01    0.579E-01
RMM:   2    -0.239900339500E+02    0.36141E-02   -0.39866E-02    64   0.162E+00    0.431E-01
RMM:   3    -0.239865518619E+02    0.34821E-02   -0.19821E-02    64   0.862E-01    0.129E-01
RMM:   4    -0.239912151581E+02   -0.46633E-02   -0.17847E-02    64   0.776E-01    0.179E-01
RMM:   5    -0.239909375701E+02    0.27759E-03   -0.18741E-03    64   0.265E-01    0.744E-02
RMM:   6    -0.239911115993E+02   -0.17403E-03   -0.24827E-03    64   0.297E-01    0.319E-02
RMM:   7    -0.239912099954E+02   -0.98396E-04   -0.10075E-04    64   0.696E-02    0.162E-02
RMM:   8    -0.239912381331E+02   -0.28138E-04   -0.12775E-04    64   0.642E-02    0.908E-03
RMM:   9    -0.239912580124E+02   -0.19879E-04   -0.32939E-05    64   0.331E-02    0.563E-03
RMM:  10    -0.239912662563E+02   -0.82439E-05   -0.18887E-06    48   0.983E-03    0.300E-03
RMM:  11    -0.239912698756E+02   -0.36194E-05   -0.81696E-06    64   0.164E-02    0.299E-03
RMM:  12    -0.239912706803E+02   -0.80463E-06   -0.97622E-07    48   0.653E-03
    9 T=   176. E= -.23848925E+02 F= -.23991271E+02 E0= -.23996799E+02  EK= 0.91041E-01 SP= 0.21E-01 SK= 0.30E-01
       N       E                     dE             d eps       ncg     rms          rms(c)
DAV:   1    -0.238887883676E+02    0.10248E+00   -0.10178E+00    64   0.102E+01    0.693E-01
RMM:   2    -0.239487310115E+02   -0.59943E-01   -0.32393E-01    64   0.368E+00    0.130E+00
RMM:   3    -0.238844431809E+02    0.64288E-01   -0.21696E-01    64   0.274E+00    0.165E-01
RMM:   4    -0.238885375142E+02   -0.40943E-02   -0.27944E-02    64   0.105E+00    0.249E-01
RMM:   5    -0.238895447323E+02   -0.10072E-02   -0.12727E-02    64   0.702E-01    0.285E-01
RMM:   6    -0.238880198635E+02    0.15249E-02   -0.23721E-03    64   0.330E-01    0.707E-02
RMM:   7    -0.238880750351E+02   -0.55172E-04   -0.81210E-04    64   0.175E-01    0.299E-02
RMM:   8    -0.238882960039E+02   -0.22097E-03   -0.15712E-04    64   0.829E-02    0.814E-02
RMM:   9    -0.238882545539E+02    0.41450E-04   -0.97938E-05    64   0.603E-02    0.184E-02
RMM:  10    -0.238883079294E+02   -0.53375E-04   -0.94420E-05    64   0.577E-02    0.834E-03
RMM:  11    -0.238883289908E+02   -0.21061E-04   -0.39326E-06    60   0.148E-02    0.634E-03
RMM:  12    -0.238883415593E+02   -0.12568E-04   -0.23038E-05    64   0.272E-02    0.831E-03
RMM:  13    -0.238883426574E+02   -0.10981E-05   -0.30166E-06    60   0.105E-02    0.111E-03
RMM:  14    -0.238883439699E+02   -0.13125E-05   -0.69968E-07    48   0.614E-03    0.175E-03
RMM:  15    -0.238883443089E+02   -0.33897E-06   -0.13139E-07    48   0.316E-03
   10 T=    59. E= -.23791326E+02 F= -.23888344E+02 E0= -.23896373E+02  EK= 0.30713E-01 SP= 0.28E-01 SK= 0.38E-01
