 vasp.5.4.4.18Apr17-6-g9f103f2a35 (build Jul 12 2018 13:43:46) complex           
 executed on             LinuxGNU date 2019.06.22  02:17:36
 running on    1 total cores
 distrk:  each k-point on    1 cores,    1 groups
 distr:  one band on NCORES_PER_BAND=   1 cores,    1 groups


--------------------------------------------------------------------------------------------------------


 INCAR:
 POTCAR:    PAW_PBE H 15Jun2001                   
 POTCAR:    PAW_PBE C 08Apr2002                   
 POTCAR:    PAW_PBE H 15Jun2001                   
   VRHFIN =H: ultrasoft test                                                    
   LEXCH  = PE                                                                  
   EATOM  =    12.4884 eV,    0.9179 Ry                                         
                                                                                
   TITEL  = PAW_PBE H 15Jun2001                                                 
   LULTRA =        F    use ultrasoft PP ?                                      
   IUNSCR =        0    unscreen: 0-lin 1-nonlin 2-no                           
   RPACOR =    0.000    partial core radius                                     
   POMASS =    1.000; ZVAL   =    1.000    mass and valenz                      
   RCORE  =    1.100    outmost cutoff radius                                   
   RWIGS  =    0.700; RWIGS  =    0.370    wigner-seitz radius (au A)           
   ENMAX  =  250.000; ENMIN  =  200.000 eV                                      
   RCLOC  =    0.701    cutoff for local pot                                    
   LCOR   =        T    correct aug charges                                     
   LPAW   =        T    paw PP                                                  
   EAUG   =  400.000                                                            
   RMAX   =    1.123    core radius for proj-oper                               
   RAUG   =    1.200    factor for augmentation sphere                          
   RDEP   =    1.112    radius for radial grids                                 
   RDEPT  =    0.926    core radius for aug-charge                              
                                                                                
   Atomic configuration                                                         
    2 entries                                                                   
     n  l   j            E        occ.                                          
     1  0  0.50        -6.4927   1.0000                                         
     2  1  0.50        -3.4015   0.0000                                         
   Description                                                                  
     l       E           TYP  RCUT    TYP  RCUT                                 
     0     -6.4927494     23  1.100                                             
     0      6.8029130     23  1.100                                             
     1     -4.0817478     23  1.100                                             
  local pseudopotential read in
  atomic valenz-charges read in
  non local Contribution for L=           0  read in
    real space projection operators read in
  non local Contribution for L=           0  read in
    real space projection operators read in
  non local Contribution for L=           1  read in
    real space projection operators read in
    PAW grid and wavefunctions read in

   number of l-projection  operators is LMAX  =           3
   number of lm-projection operators is LMMAX =           5

 POTCAR:    PAW_PBE C 08Apr2002                   
   VRHFIN =C: s2p2                                                              
   LEXCH  = PE                                                                  
   EATOM  =   147.1560 eV,   10.8157 Ry                                         
                                                                                
   TITEL  = PAW_PBE C 08Apr2002                                                 
   LULTRA =        F    use ultrasoft PP ?                                      
   IUNSCR =        1    unscreen: 0-lin 1-nonlin 2-no                           
   RPACOR =    1.200    partial core radius                                     
   POMASS =   12.011; ZVAL   =    4.000    mass and valenz                      
   RCORE  =    1.500    outmost cutoff radius                                   
   RWIGS  =    1.630; RWIGS  =    0.863    wigner-seitz radius (au A)           
   ENMAX  =  400.000; ENMIN  =  300.000 eV                                      
   ICORE  =        2    local potential                                         
   LCOR   =        T    correct aug charges                                     
   LPAW   =        T    paw PP                                                  
   EAUG   =  644.873                                                            
   DEXC   =    0.000                                                            
   RMAX   =    1.529    core radius for proj-oper                               
   RAUG   =    1.300    factor for augmentation sphere                          
   RDEP   =    1.501    radius for radial grids                                 
   RDEPT  =    1.300    core radius for aug-charge                              
                                                                                
   Atomic configuration                                                         
    4 entries                                                                   
     n  l   j            E        occ.                                          
     1  0  0.50      -273.3789   2.0000                                         
     2  0  0.50       -13.7508   2.0000                                         
     2  1  0.50        -5.2854   2.0000                                         
     3  2  1.50        -5.4423   0.0000                                         
   Description                                                                  
     l       E           TYP  RCUT    TYP  RCUT                                 
     0    -13.7508458     23  1.200                                             
     0     -8.2022199     23  1.200                                             
     1     -5.2854383     23  1.500                                             
     1     34.0145650     23  1.500                                             
     2     -5.4423304      7  1.500                                             
  local pseudopotential read in
  partial core-charges read in
  partial kinetic energy density read in
  atomic valenz-charges read in
  non local Contribution for L=           0  read in
    real space projection operators read in
  non local Contribution for L=           0  read in
    real space projection operators read in
  non local Contribution for L=           1  read in
    real space projection operators read in
  non local Contribution for L=           1  read in
    real space projection operators read in
    PAW grid and wavefunctions read in

   number of l-projection  operators is LMAX  =           4
   number of lm-projection operators is LMMAX =           8


 ----------------------------------------------------------------------------- 
|                                                                             |
|  ADVICE TO THIS USER RUNNING 'VASP/VAMP'   (HEAR YOUR MASTER'S VOICE ...):  |
|                                                                             |
|      You have a (more or less) 'small supercell' and for smaller cells      |
|      it is recommended  to use the reciprocal-space projection scheme!      |
|      The real space optimization is not  efficient for small cells and it   |
|      is also less accurate ...                                              |
|      Therefore set LREAL=.FALSE. in the  INCAR file                         |
|                                                                             |
 ----------------------------------------------------------------------------- 


 ----------------------------------------------------------------------------- 
|                                                                             |
|           W    W    AA    RRRRR   N    N  II  N    N   GGGG   !!!           |
|           W    W   A  A   R    R  NN   N  II  NN   N  G    G  !!!           |
|           W    W  A    A  R    R  N N  N  II  N N  N  G       !!!           |
|           W WW W  AAAAAA  RRRRR   N  N N  II  N  N N  G  GGG   !            |
|           WW  WW  A    A  R   R   N   NN  II  N   NN  G    G                |
|           W    W  A    A  R    R  N    N  II  N    N   GGGG   !!!           |
|                                                                             |
|     The real-space-projection scheme for the treatment of the nonlocal      |
|     pseudopotentials has been switched on -- but on file POTCAR I have      |
|     not found any entries signalling me that you have ever performed a      |
|     real-space optimization of all nonlocal projectors! BE WARNED that      |
|     a calculation using the real-space-projection scheme together with      |
|     nonlocal projectors which were not real-space-optimized (according      |
|     to the plane-wave-cutoff used in this calculation) might give more      |
|     or less inaccurate results                                              |
|     I hope you know what you are doing                                      |
|                                                                             |
 ----------------------------------------------------------------------------- 

  PAW_PBE H 15Jun2001                   :
 energy of atom  1       EATOM=  -12.4884
 kinetic energy error for atom=    0.0098 (will be added to EATOM!!)
  PAW_PBE C 08Apr2002                   :
 energy of atom  2       EATOM= -147.1560
 kinetic energy error for atom=    0.0288 (will be added to EATOM!!)


 POSCAR:  H  C                                   
  positions in cartesian coordinates
  No initial velocities read in
 exchange correlation table for  LEXCH =        8
   RHO(1)=    0.500       N(1)  =     2000
   RHO(2)=  100.500       N(2)  =     4000



--------------------------------------------------------------------------------------------------------


 ion  position               nearest neighbor table
   1  0.538  0.407  0.361-   5 1.08
   2  0.394  0.480  0.438-   5 1.10
   3  0.552  0.565  0.443-   5 1.08
   4  0.528  0.416  0.539-   5 1.11
   5  0.503  0.467  0.446-   3 1.08   1 1.08   2 1.10   4 1.11


IMPORTANT INFORMATION: All symmetrisations will be switched off!
NOSYMM: (Re-)initialisation of all symmetry stuff for point group C_1.




Automatic generation of k-mesh.
 generate k-points for:    2    2    2
Space group operators:
 irot       det(A)        alpha          n_x          n_y          n_z        tau_x        tau_y        tau_z
    1     1.000000     0.000000     1.000000     0.000000     0.000000     0.000000     0.000000     0.000000
 
 Subroutine IBZKPT returns following result:
 ===========================================
 
 Found      4 irreducible k-points:
 
 Following reciprocal coordinates:
            Coordinates               Weight
  0.250000  0.250000  0.250000      2.000000
 -0.250000  0.250000  0.250000      2.000000
  0.250000 -0.250000  0.250000      2.000000
 -0.250000 -0.250000  0.250000      2.000000
 
 Following cartesian coordinates:
            Coordinates               Weight
  0.024811  0.025596  0.025079      2.000000
 -0.024811  0.025481  0.026148      2.000000
  0.024811 -0.025481  0.023823      2.000000
 -0.024811 -0.025596  0.024892      2.000000
 


--------------------------------------------------------------------------------------------------------




 Dimension of arrays:
   k-points           NKPTS =      4   k-points in BZ     NKDIM =      4   number of bands    NBANDS=      8
   number of dos      NEDOS =    301   number of ions     NIONS =      5
   non local maximal  LDIM  =      4   non local SUM 2l+1 LMDIM =      8
   total plane-waves  NPLWV = 313600
   max r-space proj   IRMAX =    754   max aug-charges    IRDMAX=   3949
   dimension x,y,z NGX =    70 NGY =   64 NGZ =   70
   dimension x,y,z NGXF=   140 NGYF=  128 NGZF=  140
   support grid    NGXF=   140 NGYF=  128 NGZF=  140
   ions per type =               4   1
   NGX,Y,Z   is equivalent  to a cutoff of  11.55, 10.87, 11.62 a.u.
   NGXF,Y,Z  is equivalent  to a cutoff of  23.10, 21.74, 23.25 a.u.

 SYSTEM =  unknown system                          
 POSCAR =   H  C                                   

 Startparameter for this run:
   NWRITE =      2    write-flag & timer
   PREC   = a         normal or accurate (medium, high low for compatibility)
   ISTART =      0    job   : 0-new  1-cont  2-samecut
   ICHARG =      2    charge: 1-file 2-atom 10-const
   ISPIN  =      1    spin polarized calculation?
   LNONCOLLINEAR =      F non collinear calculations
   LSORBIT =      F    spin-orbit coupling
   INIWAV =      1    electr: 0-lowe 1-rand  2-diag
   LASPH  =      F    aspherical Exc in radial PAW
   METAGGA=      F    non-selfconsistent MetaGGA calc.

 Electronic Relaxation 1
   ENCUT  =  400.0 eV  29.40 Ry    5.42 a.u.  16.43 15.96 16.33*2*pi/ulx,y,z
   ENINI  =  400.0     initial cutoff
   ENAUG  =  644.9 eV  augmentation charge cutoff
   NELM   =     60;   NELMIN=  2; NELMDL= -5     # of ELM steps 
   EDIFF  = 0.1E-05   stopping-criterion for ELM
   LREAL  =      T    real-space projection
   NLSPLINE    = F    spline interpolate recip. space projectors
   LCOMPAT=      F    compatible to vasp.4.4
   GGA_COMPAT  = T    GGA compatible to vasp.4.4-vasp.4.6
   LMAXPAW     = -100 max onsite density
   LMAXMIX     =    2 max onsite mixed and CHGCAR
   VOSKOWN=      0    Vosko Wilk Nusair interpolation
   ROPT   =    0.00000   0.00000
 Ionic relaxation
   EDIFFG = 0.1E-04   stopping-criterion for IOM
   NSW    =     10    number of steps for IOM
   NBLOCK =      1;   KBLOCK =      1    inner block; outer block 
   IBRION =      0    ionic relax: 0-MD 1-quasi-New 2-CG
   NFREE  =      0    steps in history (QN), initial steepest desc. (CG)
   ISIF   =      2    stress and relaxation
   IWAVPR =     12    prediction:  0-non 1-charg 2-wave 3-comb
   ISYM   =      0    0-nonsym 1-usesym 2-fastsym
   LCORR  =      T    Harris-Foulkes like correction to forces

   POTIM  = 2.0000    time-step for ionic-motion
   TEIN   =   50.0    initial temperature
   TEBEG  =   50.0;   TEEND  =  50.0 temperature during run
   SMASS  =   0.00    Nose mass-parameter (am)
   estimated Nose-frequenzy (Omega)   =  0.79E+14 period in steps = 40.00 mass=   0.123E-29a.u.
   SCALEE = 1.0000    scale energy and forces
   NPACO  =    256;   APACO  = 16.0  distance and # of slots for P.C.
   PSTRESS=    0.0 pullay stress

  Mass of Ions in am
   POMASS =   1.00 12.01
  Ionic Valenz
   ZVAL   =   1.00  4.00
  Atomic Wigner-Seitz radii
   RWIGS  =  -1.00 -1.00
  virtual crystal weights 
   VCA    =   1.00  1.00
   NELECT =       8.0000    total number of electrons
   NUPDOWN=      -1.0000    fix difference up-down

 DOS related values:
   EMIN   =  10.00;   EMAX   =-10.00  energy-range for DOS
   EFERMI =   0.00
   ISMEAR =     1;   SIGMA  =   0.20  broadening in eV -4-tet -1-fermi 0-gaus

 Electronic relaxation 2 (details)
   IALGO  =     68    algorithm
   LDIAG  =      T    sub-space diagonalisation (order eigenvalues)
   LSUBROT=      F    optimize rotation matrix (better conditioning)
   TURBO    =      0    0=normal 1=particle mesh
   IRESTART =      0    0=no restart 2=restart with 2 vectors
   NREBOOT  =      0    no. of reboots
   NMIN     =      0    reboot dimension
   EREF     =   0.00    reference energy to select bands
   IMIX   =      4    mixing-type and parameters
     AMIX     =   0.40;   BMIX     =  1.00
     AMIX_MAG =   1.60;   BMIX_MAG =  1.00
     AMIN     =   0.10
     WC   =   100.;   INIMIX=   1;  MIXPRE=   1;  MAXMIX=  50

 Intra band minimization:
   WEIMIN = 0.0010     energy-eigenvalue tresh-hold
   EBREAK =  0.31E-07  absolut break condition
   DEPER  =   0.30     relativ break condition  

   TIME   =   0.40     timestep for ELM

  volume/ion in A,a.u.               =     197.39      1332.04
  Fermi-wavevector in a.u.,A,eV,Ry     =   0.328858  0.621451  1.471433  0.108147
  Thomas-Fermi vector in A             =   1.222807

 Write flags
   LWAVE        =      F    write WAVECAR
   LDOWNSAMPLE  =      F    k-point downsampling of WAVECAR
   LCHARG       =      F    write CHGCAR
   LVTOT        =      F    write LOCPOT, total local potential
   LVHAR        =      F    write LOCPOT, Hartree potential only
   LELF         =      F    write electronic localiz. function (ELF)
   LORBIT       =      0    0 simple, 1 ext, 2 COOP (PROOUT), +10 PAW based schemes


 Dipole corrections
   LMONO  =      F    monopole corrections only (constant potential shift)
   LDIPOL =      F    correct potential (dipole corrections)
   IDIPOL =      0    1-x, 2-y, 3-z, 4-all directions 
   EPSILON=  1.0000000 bulk dielectric constant

 Exchange correlation treatment:
   GGA     =    --    GGA type
   LEXCH   =     8    internal setting for exchange type
   VOSKOWN=      0    Vosko Wilk Nusair interpolation
   LHFCALC =     F    Hartree Fock is set to
   LHFONE  =     F    Hartree Fock one center treatment
   AEXX    =    0.0000 exact exchange contribution

 Linear response parameters
   LEPSILON=     F    determine dielectric tensor
   LRPA    =     F    only Hartree local field effects (RPA)
   LNABLA  =     F    use nabla operator in PAW spheres
   LVEL    =     F    velocity operator in full k-point grid
   LINTERFAST=   F  fast interpolation
   KINTER  =     0    interpolate to denser k-point grid
   CSHIFT  =0.1000    complex shift for real part using Kramers Kronig
   OMEGAMAX=  -1.0    maximum frequency
   DEG_THRESHOLD= 0.2000000E-02 threshold for treating states as degnerate
   RTIME   =   -0.100 relaxation time in fs
  (WPLASMAI=    0.000 imaginary part of plasma frequency in eV, 0.658/RTIME)
   DFIELD  = 0.0000000 0.0000000 0.0000000 field for delta impulse in time

 Orbital magnetization related:
   ORBITALMAG=     F  switch on orbital magnetization
   LCHIMAG   =     F  perturbation theory with respect to B field
   DQ        =  0.001000  dq finite difference perturbation B field
   LLRAUG    =     F  two centre corrections for induced B field



--------------------------------------------------------------------------------------------------------


 molecular dynamics for ions
   using nose mass (canonical ensemble)
 charge density and potential will be updated during run
 non-spin polarized calculation
 RMM-DIIS sequential band-by-band and
  variant of blocked Davidson during initial phase
 perform sub-space diagonalisation
    before iterative eigenvector-optimisation
 modified Broyden-mixing scheme, WC =      100.0
 initial mixing is a Kerker type mixing with AMIX =  0.4000 and BMIX =      1.0000
 Hartree-type preconditioning will be used
 using additional bands            4
 real space projection scheme for non local part
 use partial core corrections
 calculate Harris-corrections to forces   (improved forces if not selfconsistent)
 use gradient corrections 
 use of overlap-Matrix (Vanderbilt PP)
 Methfessel and Paxton  Order N= 1 SIGMA  =   0.20


--------------------------------------------------------------------------------------------------------


  energy-cutoff  :      400.00
  volume of cell :      986.94
      direct lattice vectors                 reciprocal lattice vectors
    10.076030144  0.000000000  0.000000000     0.099245436  0.000230398 -0.002138596
    -0.022725802  9.789268237  0.000000000    -0.000000000  0.102152681  0.002511123
     0.216181295 -0.245962832 10.005788143     0.000000000 -0.000000000  0.099942152

  length of vectors
    10.076030144  9.789294616 10.011145211     0.099268742  0.102183541  0.099942152



 k-points in units of 2pi/SCALE and weight: read from INCAR                         
   0.02481136  0.02559577  0.02507867       0.250
  -0.02481136  0.02548057  0.02614797       0.250
   0.02481136 -0.02548057  0.02382311       0.250
  -0.02481136 -0.02559577  0.02489241       0.250

 k-points in reciprocal lattice and weights: read from INCAR                         
   0.25000000  0.25000000  0.25000000       0.250
  -0.25000000  0.25000000  0.25000000       0.250
   0.25000000 -0.25000000  0.25000000       0.250
  -0.25000000 -0.25000000  0.25000000       0.250

 position of ions in fractional coordinates (direct lattice) 
   0.53804537  0.40664610  0.36060392
   0.39443840  0.48010718  0.43835920
   0.55226884  0.56498887  0.44328471
   0.52827162  0.41649142  0.53915628
   0.50284744  0.46722088  0.44550437

 position of ions in cartesian coordinates  (Angst):
   5.49007583  3.89207254  3.60812642
   4.05822748  4.59207788  4.38612933
   5.64766751  5.42179605  4.43541290
   5.42997114  3.94453387  5.39468348
   5.15239769  4.46417296  4.45762229



--------------------------------------------------------------------------------------------------------


 k-point  1 :   0.2500 0.2500 0.2500  plane waves:   17907
 k-point  2 :  -0.2500 0.2500 0.2500  plane waves:   17932
 k-point  3 :   0.2500-0.2500 0.2500  plane waves:   17924
 k-point  4 :  -0.2500-0.2500 0.2500  plane waves:   17941

 maximum and minimum number of plane-waves per node :     17941    17907

 maximum number of plane-waves:     17941
 maximum index in each direction: 
   IXMAX=   16   IYMAX=   16   IZMAX=   16
   IXMIN=  -16   IYMIN=  -16   IZMIN=  -16


 serial   3D FFT for wavefunctions
 parallel 3D FFT for charge:
    minimum data exchange during FFTs selected (reduces bandwidth)


 total amount of memory used by VASP MPI-rank0   280495. kBytes
=======================================================================

   base      :      30000. kBytes
   nonlr-proj:        154. kBytes
   fftplans  :      86584. kBytes
   grid      :     154542. kBytes
   one-center:         15. kBytes
   wavefun   :       9200. kBytes

     INWAV:  cpu time    0.0000: real time    0.0000
 Broyden mixing: mesh for mixing (old mesh)
   NGX = 33   NGY = 31   NGZ = 33
  (NGX  =140   NGY  =128   NGZ  =140)
  gives a total of  33759 points

 initial charge density was supplied:
 charge density of overlapping atoms calculated
 number of electron       8.0000000 magnetization 
 keeping initial charge density in first step


--------------------------------------------------------------------------------------------------------


 Maximum index for non-local projection operator          679
 Maximum index for augmentation-charges         3636 (set IRDMAX)


--------------------------------------------------------------------------------------------------------


 First call to EWALD:  gamma=   0.178
 Maximum number of real-space cells 3x 3x 3
 Maximum number of reciprocal cells 3x 3x 3

    FEWALD:  cpu time    0.0008: real time    0.0008


--------------------------------------- Iteration      1(   1)  ---------------------------------------


    POTLOK:  cpu time    1.6797: real time    1.6839
    SETDIJ:  cpu time    0.0066: real time    0.0066
     EDDAV:  cpu time    2.9458: real time    2.9528
       DOS:  cpu time    0.0003: real time    0.0003
    --------------------------------------------
      LOOP:  cpu time    4.6323: real time    4.6436

 eigenvalue-minimisations  :    96
 total energy-change (2. order) : 0.1360465E+02  (-0.1928903E+03)
 number of electron       8.0000000 magnetization 
 augmentation part        8.0000000 magnetization 

 Free energy of the ion-electron system (eV)
  ---------------------------------------------------
  alpha Z        PSCENC =         0.24545632
  Ewald energy   TEWEN  =       129.37961510
  -Hartree energ DENC   =      -244.07022775
  -exchange      EXHF   =         0.00000000
  -V(xc)+E(xc)   XCENC  =        22.03817885
  PAW double counting   =       117.05815612     -117.66307307
  entropy T*S    EENTRO =         0.00289895
  eigenvalues    EBANDS =       -90.42811018
  atomic energy  EATOM  =       197.04175453
  Solvation  Ediel_sol  =         0.00000000
  ---------------------------------------------------
  free energy    TOTEN  =        13.60464888 eV

  energy without entropy =       13.60174993  energy(sigma->0) =       13.60368256


--------------------------------------------------------------------------------------------------------




--------------------------------------- Iteration      1(   2)  ---------------------------------------


     EDDAV:  cpu time    2.1193: real time    2.1244
       DOS:  cpu time    0.0002: real time    0.0002
    --------------------------------------------
      LOOP:  cpu time    2.1195: real time    2.1246

 eigenvalue-minimisations  :    64
 total energy-change (2. order) :-0.3669721E+02  (-0.3669721E+02)
 number of electron       8.0000000 magnetization 
 augmentation part        8.0000000 magnetization 

 Free energy of the ion-electron system (eV)
  ---------------------------------------------------
  alpha Z        PSCENC =         0.24545632
  Ewald energy   TEWEN  =       129.37961510
  -Hartree energ DENC   =      -244.07022775
  -exchange      EXHF   =         0.00000000
  -V(xc)+E(xc)   XCENC  =        22.03817885
  PAW double counting   =       117.05815612     -117.66307307
  entropy T*S    EENTRO =         0.00297733
  eigenvalues    EBANDS =      -127.12539433
  atomic energy  EATOM  =       197.04175453
  Solvation  Ediel_sol  =         0.00000000
  ---------------------------------------------------
  free energy    TOTEN  =       -23.09255690 eV

  energy without entropy =      -23.09553423  energy(sigma->0) =      -23.09354934


--------------------------------------------------------------------------------------------------------




--------------------------------------- Iteration      1(   3)  ---------------------------------------


     EDDAV:  cpu time    2.1050: real time    2.1100
       DOS:  cpu time    0.0002: real time    0.0002
    --------------------------------------------
      LOOP:  cpu time    2.1052: real time    2.1102

 eigenvalue-minimisations  :    64
 total energy-change (2. order) :-0.4347478E+01  (-0.4365329E+01)
 number of electron       8.0000000 magnetization 
 augmentation part        8.0000000 magnetization 

 Free energy of the ion-electron system (eV)
  ---------------------------------------------------
  alpha Z        PSCENC =         0.24545632
  Ewald energy   TEWEN  =       129.37961510
  -Hartree energ DENC   =      -244.07022775
  -exchange      EXHF   =         0.00000000
  -V(xc)+E(xc)   XCENC  =        22.03817885
  PAW double counting   =       117.05815612     -117.66307307
  entropy T*S    EENTRO =         0.03547528
  eigenvalues    EBANDS =      -131.50537017
  atomic energy  EATOM  =       197.04175453
  Solvation  Ediel_sol  =         0.00000000
  ---------------------------------------------------
  free energy    TOTEN  =       -27.44003479 eV

  energy without entropy =      -27.47551007  energy(sigma->0) =      -27.45185988


--------------------------------------------------------------------------------------------------------




--------------------------------------- Iteration      1(   4)  ---------------------------------------


     EDDAV:  cpu time    3.7775: real time    3.7865
       DOS:  cpu time    0.0002: real time    0.0002
    --------------------------------------------
      LOOP:  cpu time    3.7777: real time    3.7867

 eigenvalue-minimisations  :   128
 total energy-change (2. order) :-0.1725728E+00  (-0.1716775E+00)
 number of electron       8.0000000 magnetization 
 augmentation part        8.0000000 magnetization 

 Free energy of the ion-electron system (eV)
  ---------------------------------------------------
  alpha Z        PSCENC =         0.24545632
  Ewald energy   TEWEN  =       129.37961510
  -Hartree energ DENC   =      -244.07022775
  -exchange      EXHF   =         0.00000000
  -V(xc)+E(xc)   XCENC  =        22.03817885
  PAW double counting   =       117.05815612     -117.66307307
  entropy T*S    EENTRO =         0.03588534
  eigenvalues    EBANDS =      -131.67835305
  atomic energy  EATOM  =       197.04175453
  Solvation  Ediel_sol  =         0.00000000
  ---------------------------------------------------
  free energy    TOTEN  =       -27.61260761 eV

  energy without entropy =      -27.64849294  energy(sigma->0) =      -27.62456939


--------------------------------------------------------------------------------------------------------




--------------------------------------- Iteration      1(   5)  ---------------------------------------


     EDDAV:  cpu time    2.6565: real time    2.6628
       DOS:  cpu time    0.0002: real time    0.0002
    CHARGE:  cpu time    0.2002: real time    0.2007
    MIXING:  cpu time    0.0399: real time    0.0400
    --------------------------------------------
      LOOP:  cpu time    2.8968: real time    2.9037

 eigenvalue-minimisations  :    88
 total energy-change (2. order) :-0.5338816E-04  (-0.5338806E-04)
 number of electron       8.0000001 magnetization 
 augmentation part        0.2259168 magnetization 

 Broyden mixing:
  rms(total) = 0.87906E+00    rms(broyden)= 0.87883E+00
  rms(prec ) = 0.12503E+01
  weight for this iteration     100.00

 Free energy of the ion-electron system (eV)
  ---------------------------------------------------
  alpha Z        PSCENC =         0.24545632
  Ewald energy   TEWEN  =       129.37961510
  -Hartree energ DENC   =      -244.07022775
  -exchange      EXHF   =         0.00000000
  -V(xc)+E(xc)   XCENC  =        22.03817885
  PAW double counting   =       117.05815612     -117.66307307
  entropy T*S    EENTRO =         0.03588560
  eigenvalues    EBANDS =      -131.67840670
  atomic energy  EATOM  =       197.04175453
  Solvation  Ediel_sol  =         0.00000000
  ---------------------------------------------------
  free energy    TOTEN  =       -27.61266100 eV

  energy without entropy =      -27.64854660  energy(sigma->0) =      -27.62462286


--------------------------------------------------------------------------------------------------------




--------------------------------------- Iteration      1(   6)  ---------------------------------------


    POTLOK:  cpu time    1.6957: real time    1.6997
    SETDIJ:  cpu time    0.0066: real time    0.0066
    EDDIAG:  cpu time    0.4594: real time    0.4605
  RMM-DIIS:  cpu time    1.4733: real time    1.4768
    ORTHCH:  cpu time    0.0118: real time    0.0118
       DOS:  cpu time    0.0002: real time    0.0002
    CHARGE:  cpu time    0.1937: real time    0.1941
    MIXING:  cpu time    0.0402: real time    0.0403
    --------------------------------------------
      LOOP:  cpu time    3.8808: real time    3.8900

 eigenvalue-minimisations  :    64
 total energy-change (2. order) : 0.2961917E+01  (-0.5517474E+00)
 number of electron       8.0000001 magnetization 
 augmentation part        0.1989837 magnetization 

 Broyden mixing:
  rms(total) = 0.42082E+00    rms(broyden)= 0.42072E+00
  rms(prec ) = 0.55476E+00
  weight for this iteration     100.00

 eigenvalues of (default mixing * dielectric matrix)
  average eigenvalue GAMMA=   1.3005
  1.3005

 Free energy of the ion-electron system (eV)
  ---------------------------------------------------
  alpha Z        PSCENC =         0.24545632
  Ewald energy   TEWEN  =       129.37961510
  -Hartree energ DENC   =      -264.01910910
  -exchange      EXHF   =         0.00000000
  -V(xc)+E(xc)   XCENC  =        23.24938293
  PAW double counting   =       228.26028365     -229.04269544
  entropy T*S    EENTRO =         0.03788769
  eigenvalues    EBANDS =      -109.80331940
  atomic energy  EATOM  =       197.04175453
  Solvation  Ediel_sol  =         0.00000000
  ---------------------------------------------------
  free energy    TOTEN  =       -24.65074373 eV

  energy without entropy =      -24.68863142  energy(sigma->0) =      -24.66337296


--------------------------------------------------------------------------------------------------------




--------------------------------------- Iteration      1(   7)  ---------------------------------------


    POTLOK:  cpu time    1.7054: real time    1.7095
    SETDIJ:  cpu time    0.0065: real time    0.0065
    EDDIAG:  cpu time    0.4378: real time    0.4388
  RMM-DIIS:  cpu time    1.5215: real time    1.5251
    ORTHCH:  cpu time    0.0125: real time    0.0125
       DOS:  cpu time    0.0002: real time    0.0002
    CHARGE:  cpu time    0.1920: real time    0.1925
    MIXING:  cpu time    0.0409: real time    0.0410
    --------------------------------------------
      LOOP:  cpu time    3.9168: real time    3.9261

 eigenvalue-minimisations  :    64
 total energy-change (2. order) : 0.5009082E+00  (-0.1259483E+00)
 number of electron       8.0000001 magnetization 
 augmentation part        0.1883916 magnetization 

 Broyden mixing:
  rms(total) = 0.22528E+00    rms(broyden)= 0.22520E+00
  rms(prec ) = 0.27766E+00
  weight for this iteration     100.00

 eigenvalues of (default mixing * dielectric matrix)
  average eigenvalue GAMMA=   1.6072
  1.5199  1.6945

 Free energy of the ion-electron system (eV)
  ---------------------------------------------------
  alpha Z        PSCENC =         0.24545632
  Ewald energy   TEWEN  =       129.37961510
  -Hartree energ DENC   =      -275.80748605
  -exchange      EXHF   =         0.00000000
  -V(xc)+E(xc)   XCENC  =        24.11354304
  PAW double counting   =       339.67258913     -340.49508131
  entropy T*S    EENTRO =         0.03913853
  eigenvalues    EBANDS =       -98.33936485
  atomic energy  EATOM  =       197.04175453
  Solvation  Ediel_sol  =         0.00000000
  ---------------------------------------------------
  free energy    TOTEN  =       -24.14983555 eV

  energy without entropy =      -24.18897409  energy(sigma->0) =      -24.16288173


--------------------------------------------------------------------------------------------------------




--------------------------------------- Iteration      1(   8)  ---------------------------------------


    POTLOK:  cpu time    1.6881: real time    1.6921
    SETDIJ:  cpu time    0.0065: real time    0.0065
    EDDIAG:  cpu time    0.4548: real time    0.4559
  RMM-DIIS:  cpu time    1.5706: real time    1.5743
    ORTHCH:  cpu time    0.0114: real time    0.0114
       DOS:  cpu time    0.0002: real time    0.0002
    CHARGE:  cpu time    0.1800: real time    0.1805
    MIXING:  cpu time    0.0405: real time    0.0406
    --------------------------------------------
      LOOP:  cpu time    3.9522: real time    3.9616

 eigenvalue-minimisations  :    64
 total energy-change (2. order) : 0.1199721E+00  (-0.1181623E-01)
 number of electron       8.0000001 magnetization 
 augmentation part        0.1870310 magnetization 

 Broyden mixing:
  rms(total) = 0.97794E-01    rms(broyden)= 0.97712E-01
  rms(prec ) = 0.13631E+00
  weight for this iteration     100.00

 eigenvalues of (default mixing * dielectric matrix)
  average eigenvalue GAMMA=   1.4267
  2.2243  1.4515  0.6042

 Free energy of the ion-electron system (eV)
  ---------------------------------------------------
  alpha Z        PSCENC =         0.24545632
  Ewald energy   TEWEN  =       129.37961510
  -Hartree energ DENC   =      -280.12077950
  -exchange      EXHF   =         0.00000000
  -V(xc)+E(xc)   XCENC  =        24.53333002
  PAW double counting   =       411.21943696     -412.01793165
  entropy T*S    EENTRO =         0.03910346
  eigenvalues    EBANDS =       -94.34984866
  atomic energy  EATOM  =       197.04175453
  Solvation  Ediel_sol  =         0.00000000
  ---------------------------------------------------
  free energy    TOTEN  =       -24.02986341 eV

  energy without entropy =      -24.06896688  energy(sigma->0) =      -24.04289790


--------------------------------------------------------------------------------------------------------




--------------------------------------- Iteration      1(   9)  ---------------------------------------


    POTLOK:  cpu time    1.6657: real time    1.6697
    SETDIJ:  cpu time    0.0065: real time    0.0065
    EDDIAG:  cpu time    0.4717: real time    0.4728
  RMM-DIIS:  cpu time    1.5553: real time    1.5590
    ORTHCH:  cpu time    0.0111: real time    0.0111
       DOS:  cpu time    0.0002: real time    0.0002
    CHARGE:  cpu time    0.1729: real time    0.1733
    MIXING:  cpu time    0.0418: real time    0.0420
    --------------------------------------------
      LOOP:  cpu time    3.9252: real time    3.9346

 eigenvalue-minimisations  :    64
 total energy-change (2. order) : 0.3277955E-01  (-0.3216691E-02)
 number of electron       8.0000001 magnetization 
 augmentation part        0.1865331 magnetization 

 Broyden mixing:
  rms(total) = 0.46420E-01    rms(broyden)= 0.46407E-01
  rms(prec ) = 0.71776E-01
  weight for this iteration     100.00

 eigenvalues of (default mixing * dielectric matrix)
  average eigenvalue GAMMA=   1.3031
  2.1635  1.4167  0.8161  0.8161

 Free energy of the ion-electron system (eV)
  ---------------------------------------------------
  alpha Z        PSCENC =         0.24545632
  Ewald energy   TEWEN  =       129.37961510
  -Hartree energ DENC   =      -281.91854992
  -exchange      EXHF   =         0.00000000
  -V(xc)+E(xc)   XCENC  =        24.69090074
  PAW double counting   =       434.89525951     -435.68646483
  entropy T*S    EENTRO =         0.03870340
  eigenvalues    EBANDS =       -92.68375870
  atomic energy  EATOM  =       197.04175453
  Solvation  Ediel_sol  =         0.00000000
  ---------------------------------------------------
  free energy    TOTEN  =       -23.99708386 eV

  energy without entropy =      -24.03578726  energy(sigma->0) =      -24.00998500


--------------------------------------------------------------------------------------------------------




--------------------------------------- Iteration      1(  10)  ---------------------------------------


    POTLOK:  cpu time    1.6792: real time    1.6833
    SETDIJ:  cpu time    0.0065: real time    0.0065
    EDDIAG:  cpu time    0.4699: real time    0.4710
  RMM-DIIS:  cpu time    1.5807: real time    1.5845
    ORTHCH:  cpu time    0.0114: real time    0.0115
       DOS:  cpu time    0.0002: real time    0.0002
    CHARGE:  cpu time    0.1851: real time    0.1855
    MIXING:  cpu time    0.0420: real time    0.0421
    --------------------------------------------
      LOOP:  cpu time    3.9750: real time    3.9845

 eigenvalue-minimisations  :    64
 total energy-change (2. order) : 0.2769093E-02  (-0.8016529E-03)
 number of electron       8.0000001 magnetization 
 augmentation part        0.1861289 magnetization 

 Broyden mixing:
  rms(total) = 0.33573E-01    rms(broyden)= 0.33464E-01
  rms(prec ) = 0.53331E-01
  weight for this iteration     100.00

 eigenvalues of (default mixing * dielectric matrix)
  average eigenvalue GAMMA=   1.3038
  2.0040  1.7404  1.2560  0.7594  0.7594

 Free energy of the ion-electron system (eV)
  ---------------------------------------------------
  alpha Z        PSCENC =         0.24545632
  Ewald energy   TEWEN  =       129.37961510
  -Hartree energ DENC   =      -282.74590587
  -exchange      EXHF   =         0.00000000
  -V(xc)+E(xc)   XCENC  =        24.72567092
  PAW double counting   =       432.92781373     -433.72156275
  entropy T*S    EENTRO =         0.03798978
  eigenvalues    EBANDS =       -91.88514654
  atomic energy  EATOM  =       197.04175453
  Solvation  Ediel_sol  =         0.00000000
  ---------------------------------------------------
  free energy    TOTEN  =       -23.99431477 eV

  energy without entropy =      -24.03230455  energy(sigma->0) =      -24.00697803


--------------------------------------------------------------------------------------------------------




--------------------------------------- Iteration      1(  11)  ---------------------------------------


    POTLOK:  cpu time    1.6753: real time    1.6793
    SETDIJ:  cpu time    0.0067: real time    0.0067
    EDDIAG:  cpu time    0.4765: real time    0.4776
  RMM-DIIS:  cpu time    1.5809: real time    1.5847
    ORTHCH:  cpu time    0.0124: real time    0.0124
       DOS:  cpu time    0.0002: real time    0.0002
    CHARGE:  cpu time    0.2052: real time    0.2056
    MIXING:  cpu time    0.0429: real time    0.0430
    --------------------------------------------
      LOOP:  cpu time    4.0000: real time    4.0096

 eigenvalue-minimisations  :    64
 total energy-change (2. order) : 0.1320628E-02  (-0.4154246E-03)
 number of electron       8.0000001 magnetization 
 augmentation part        0.1857531 magnetization 

 Broyden mixing:
  rms(total) = 0.30494E-01    rms(broyden)= 0.30447E-01
  rms(prec ) = 0.44865E-01
  weight for this iteration     100.00

 eigenvalues of (default mixing * dielectric matrix)
  average eigenvalue GAMMA=   1.5131
  2.6942  2.6942  1.1686  1.1686  0.6765  0.6765

 Free energy of the ion-electron system (eV)
  ---------------------------------------------------
  alpha Z        PSCENC =         0.24545632
  Ewald energy   TEWEN  =       129.37961510
  -Hartree energ DENC   =      -283.77375820
  -exchange      EXHF   =         0.00000000
  -V(xc)+E(xc)   XCENC  =        24.76980632
  PAW double counting   =       431.02583190     -431.81893325
  entropy T*S    EENTRO =         0.03794123
  eigenvalues    EBANDS =       -90.90070808
  atomic energy  EATOM  =       197.04175453
  Solvation  Ediel_sol  =         0.00000000
  ---------------------------------------------------
  free energy    TOTEN  =       -23.99299414 eV

  energy without entropy =      -24.03093537  energy(sigma->0) =      -24.00564122


--------------------------------------------------------------------------------------------------------




--------------------------------------- Iteration      1(  12)  ---------------------------------------


    POTLOK:  cpu time    1.5852: real time    1.5890
    SETDIJ:  cpu time    0.0065: real time    0.0065
    EDDIAG:  cpu time    0.4699: real time    0.4710
  RMM-DIIS:  cpu time    1.5646: real time    1.5684
    ORTHCH:  cpu time    0.0126: real time    0.0127
       DOS:  cpu time    0.0002: real time    0.0002
    CHARGE:  cpu time    0.1964: real time    0.1969
    MIXING:  cpu time    0.0444: real time    0.0445
    --------------------------------------------
      LOOP:  cpu time    3.8799: real time    3.8891

 eigenvalue-minimisations  :    64
 total energy-change (2. order) : 0.4280022E-02  (-0.2328005E-03)
 number of electron       8.0000001 magnetization 
 augmentation part        0.1856561 magnetization 

 Broyden mixing:
  rms(total) = 0.77524E-02    rms(broyden)= 0.76975E-02
  rms(prec ) = 0.14277E-01
  weight for this iteration     100.00

 eigenvalues of (default mixing * dielectric matrix)
  average eigenvalue GAMMA=   1.4851
  3.2608  2.3843  1.2199  1.0863  1.0863  0.6789  0.6789

 Free energy of the ion-electron system (eV)
  ---------------------------------------------------
  alpha Z        PSCENC =         0.24545632
  Ewald energy   TEWEN  =       129.37961510
  -Hartree energ DENC   =      -284.58404551
  -exchange      EXHF   =         0.00000000
  -V(xc)+E(xc)   XCENC  =        24.79756943
  PAW double counting   =       426.49599452     -427.28731099
  entropy T*S    EENTRO =         0.03727252
  eigenvalues    EBANDS =       -90.11502003
  atomic energy  EATOM  =       197.04175453
  Solvation  Ediel_sol  =         0.00000000
  ---------------------------------------------------
  free energy    TOTEN  =       -23.98871412 eV

  energy without entropy =      -24.02598664  energy(sigma->0) =      -24.00113829


--------------------------------------------------------------------------------------------------------




--------------------------------------- Iteration      1(  13)  ---------------------------------------


    POTLOK:  cpu time    1.5816: real time    1.5854
    SETDIJ:  cpu time    0.0064: real time    0.0065
    EDDIAG:  cpu time    0.4714: real time    0.4725
  RMM-DIIS:  cpu time    1.5399: real time    1.5435
    ORTHCH:  cpu time    0.0112: real time    0.0112
       DOS:  cpu time    0.0002: real time    0.0002
    CHARGE:  cpu time    0.1929: real time    0.1934
    MIXING:  cpu time    0.0478: real time    0.0480
    --------------------------------------------
      LOOP:  cpu time    3.8514: real time    3.8606

 eigenvalue-minimisations  :    64
 total energy-change (2. order) :-0.2925677E-02  (-0.4358954E-04)
 number of electron       8.0000001 magnetization 
 augmentation part        0.1855748 magnetization 

 Broyden mixing:
  rms(total) = 0.70751E-02    rms(broyden)= 0.70690E-02
  rms(prec ) = 0.11869E-01
  weight for this iteration     100.00

 eigenvalues of (default mixing * dielectric matrix)
  average eigenvalue GAMMA=   1.6925
  3.8701  2.6147  2.6147  1.3216  0.6821  0.6821  0.9191  0.8355

 Free energy of the ion-electron system (eV)
  ---------------------------------------------------
  alpha Z        PSCENC =         0.24545632
  Ewald energy   TEWEN  =       129.37961510
  -Hartree energ DENC   =      -284.91413689
  -exchange      EXHF   =         0.00000000
  -V(xc)+E(xc)   XCENC  =        24.81264540
  PAW double counting   =       427.81009144     -428.60060275
  entropy T*S    EENTRO =         0.03729665
  eigenvalues    EBANDS =       -89.80375958
  atomic energy  EATOM  =       197.04175453
  Solvation  Ediel_sol  =         0.00000000
  ---------------------------------------------------
  free energy    TOTEN  =       -23.99163980 eV

  energy without entropy =      -24.02893644  energy(sigma->0) =      -24.00407201


--------------------------------------------------------------------------------------------------------




--------------------------------------- Iteration      1(  14)  ---------------------------------------


    POTLOK:  cpu time    1.5113: real time    1.5149
    SETDIJ:  cpu time    0.0065: real time    0.0065
    EDDIAG:  cpu time    0.4713: real time    0.4724
  RMM-DIIS:  cpu time    1.5201: real time    1.5237
    ORTHCH:  cpu time    0.0116: real time    0.0116
       DOS:  cpu time    0.0002: real time    0.0002
    CHARGE:  cpu time    0.2059: real time    0.2064
    MIXING:  cpu time    0.0472: real time    0.0473
    --------------------------------------------
      LOOP:  cpu time    3.7741: real time    3.7830

 eigenvalue-minimisations  :    64
 total energy-change (2. order) :-0.6331588E-02  (-0.1629841E-03)
 number of electron       8.0000001 magnetization 
 augmentation part        0.1856362 magnetization 

 Broyden mixing:
  rms(total) = 0.13869E-01    rms(broyden)= 0.13851E-01
  rms(prec ) = 0.18422E-01
  weight for this iteration     100.00

 eigenvalues of (default mixing * dielectric matrix)
  average eigenvalue GAMMA=   1.7105
  4.9944  2.8877  2.2953  1.1685  1.0618  1.0618  0.6733  0.6733  0.5787

 Free energy of the ion-electron system (eV)
  ---------------------------------------------------
  alpha Z        PSCENC =         0.24545632
  Ewald energy   TEWEN  =       129.37961510
  -Hartree energ DENC   =      -285.01193457
  -exchange      EXHF   =         0.00000000
  -V(xc)+E(xc)   XCENC  =        24.80722835
  PAW double counting   =       427.63300412     -428.42286044
  entropy T*S    EENTRO =         0.03744795
  eigenvalues    EBANDS =       -89.70768274
  atomic energy  EATOM  =       197.04175453
  Solvation  Ediel_sol  =         0.00000000
  ---------------------------------------------------
  free energy    TOTEN  =       -23.99797138 eV

  energy without entropy =      -24.03541933  energy(sigma->0) =      -24.01045403


--------------------------------------------------------------------------------------------------------




--------------------------------------- Iteration      1(  15)  ---------------------------------------


    POTLOK:  cpu time    1.5164: real time    1.5200
    SETDIJ:  cpu time    0.0064: real time    0.0064
    EDDIAG:  cpu time    0.4534: real time    0.4545
  RMM-DIIS:  cpu time    1.5119: real time    1.5155
    ORTHCH:  cpu time    0.0117: real time    0.0117
       DOS:  cpu time    0.0002: real time    0.0002
    CHARGE:  cpu time    0.2085: real time    0.2090
    MIXING:  cpu time    0.0492: real time    0.0493
    --------------------------------------------
      LOOP:  cpu time    3.7577: real time    3.7666

 eigenvalue-minimisations  :    64
 total energy-change (2. order) :-0.7445311E-03  (-0.3053165E-04)
 number of electron       8.0000001 magnetization 
 augmentation part        0.1855473 magnetization 

 Broyden mixing:
  rms(total) = 0.36859E-02    rms(broyden)= 0.36776E-02
  rms(prec ) = 0.55005E-02
  weight for this iteration     100.00

 eigenvalues of (default mixing * dielectric matrix)
  average eigenvalue GAMMA=   1.8493
  5.1652  3.2166  2.4416  2.4416  1.2497  1.0148  1.0148  0.6737  0.6737  0.6014

 Free energy of the ion-electron system (eV)
  ---------------------------------------------------
  alpha Z        PSCENC =         0.24545632
  Ewald energy   TEWEN  =       129.37961510
  -Hartree energ DENC   =      -285.04622882
  -exchange      EXHF   =         0.00000000
  -V(xc)+E(xc)   XCENC  =        24.80331729
  PAW double counting   =       426.33721359     -427.12821846
  entropy T*S    EENTRO =         0.03729550
  eigenvalues    EBANDS =       -89.66892096
  atomic energy  EATOM  =       197.04175453
  Solvation  Ediel_sol  =         0.00000000
  ---------------------------------------------------
  free energy    TOTEN  =       -23.99871592 eV

  energy without entropy =      -24.03601141  energy(sigma->0) =      -24.01114775


--------------------------------------------------------------------------------------------------------




--------------------------------------- Iteration      1(  16)  ---------------------------------------


    POTLOK:  cpu time    1.5291: real time    1.5328
    SETDIJ:  cpu time    0.0066: real time    0.0067
    EDDIAG:  cpu time    0.4521: real time    0.4532
  RMM-DIIS:  cpu time    1.4991: real time    1.5026
    ORTHCH:  cpu time    0.0115: real time    0.0115
       DOS:  cpu time    0.0002: real time    0.0002
    CHARGE:  cpu time    0.2076: real time    0.2081
    MIXING:  cpu time    0.0486: real time    0.0487
    --------------------------------------------
      LOOP:  cpu time    3.7548: real time    3.7638

 eigenvalue-minimisations  :    64
 total energy-change (2. order) :-0.2182645E-02  (-0.6069042E-04)
 number of electron       8.0000001 magnetization 
 augmentation part        0.1854786 magnetization 

 Broyden mixing:
  rms(total) = 0.97874E-02    rms(broyden)= 0.97727E-02
  rms(prec ) = 0.12874E-01
  weight for this iteration     100.00

 eigenvalues of (default mixing * dielectric matrix)
  average eigenvalue GAMMA=   1.9371
  6.2663  3.9675  2.5784  2.0857  1.2961  1.2961  0.6722  0.6722  0.9711  0.8826
  0.6202

 Free energy of the ion-electron system (eV)
  ---------------------------------------------------
  alpha Z        PSCENC =         0.24545632
  Ewald energy   TEWEN  =       129.37961510
  -Hartree energ DENC   =      -285.02370085
  -exchange      EXHF   =         0.00000000
  -V(xc)+E(xc)   XCENC  =        24.79637361
  PAW double counting   =       426.05505269     -426.84652807
  entropy T*S    EENTRO =         0.03730786
  eigenvalues    EBANDS =       -89.68622974
  atomic energy  EATOM  =       197.04175453
  Solvation  Ediel_sol  =         0.00000000
  ---------------------------------------------------
  free energy    TOTEN  =       -24.00089856 eV

  energy without entropy =      -24.03820642  energy(sigma->0) =      -24.01333451


--------------------------------------------------------------------------------------------------------




--------------------------------------- Iteration      1(  17)  ---------------------------------------


    POTLOK:  cpu time    1.5017: real time    1.5053
    SETDIJ:  cpu time    0.0066: real time    0.0066
    EDDIAG:  cpu time    0.4523: real time    0.4534
  RMM-DIIS:  cpu time    1.4569: real time    1.4604
    ORTHCH:  cpu time    0.0114: real time    0.0115
       DOS:  cpu time    0.0003: real time    0.0003
    CHARGE:  cpu time    0.2003: real time    0.2008
    MIXING:  cpu time    0.0507: real time    0.0509
    --------------------------------------------
      LOOP:  cpu time    3.6802: real time    3.6890

 eigenvalue-minimisations  :    64
 total energy-change (2. order) :-0.8398658E-04  (-0.1071288E-04)
 number of electron       8.0000001 magnetization 
 augmentation part        0.1854989 magnetization 

 Broyden mixing:
  rms(total) = 0.18751E-02    rms(broyden)= 0.18661E-02
  rms(prec ) = 0.25818E-02
  weight for this iteration     100.00

 eigenvalues of (default mixing * dielectric matrix)
  average eigenvalue GAMMA=   1.9709
  6.9034  4.4006  2.4999  2.4999  1.0782  1.0782  1.2102  1.0075  1.0075  0.6730
  0.6730  0.6197

 Free energy of the ion-electron system (eV)
  ---------------------------------------------------
  alpha Z        PSCENC =         0.24545632
  Ewald energy   TEWEN  =       129.37961510
  -Hartree energ DENC   =      -285.02595998
  -exchange      EXHF   =         0.00000000
  -V(xc)+E(xc)   XCENC  =        24.79857518
  PAW double counting   =       426.94862968     -427.73934811
  entropy T*S    EENTRO =         0.03727147
  eigenvalues    EBANDS =       -89.68697673
  atomic energy  EATOM  =       197.04175453
  Solvation  Ediel_sol  =         0.00000000
  ---------------------------------------------------
  free energy    TOTEN  =       -24.00098255 eV

  energy without entropy =      -24.03825402  energy(sigma->0) =      -24.01340637


--------------------------------------------------------------------------------------------------------




--------------------------------------- Iteration      1(  18)  ---------------------------------------


    POTLOK:  cpu time    1.4926: real time    1.4963
    SETDIJ:  cpu time    0.0065: real time    0.0065
    EDDIAG:  cpu time    0.4710: real time    0.4721
  RMM-DIIS:  cpu time    1.3648: real time    1.3680
    ORTHCH:  cpu time    0.0113: real time    0.0113
       DOS:  cpu time    0.0002: real time    0.0002
    CHARGE:  cpu time    0.1931: real time    0.1936
    MIXING:  cpu time    0.0510: real time    0.0511
    --------------------------------------------
      LOOP:  cpu time    3.5905: real time    3.5991

 eigenvalue-minimisations  :    60
 total energy-change (2. order) :-0.1710119E-03  (-0.1008850E-05)
 number of electron       8.0000001 magnetization 
 augmentation part        0.1854989 magnetization 

 Broyden mixing:
  rms(total) = 0.15312E-02    rms(broyden)= 0.15302E-02
  rms(prec ) = 0.20271E-02
  weight for this iteration     100.00

 eigenvalues of (default mixing * dielectric matrix)
  average eigenvalue GAMMA=   2.1154
  7.7239  4.6605  3.2570  2.5157  2.1898  1.2153  1.2153  0.6724  0.6724  0.6224
  0.9597  0.9597  0.8357

 Free energy of the ion-electron system (eV)
  ---------------------------------------------------
  alpha Z        PSCENC =         0.24545632
  Ewald energy   TEWEN  =       129.37961510
  -Hartree energ DENC   =      -285.01187141
  -exchange      EXHF   =         0.00000000
  -V(xc)+E(xc)   XCENC  =        24.79685502
  PAW double counting   =       426.61969066     -427.41052306
  entropy T*S    EENTRO =         0.03727054
  eigenvalues    EBANDS =       -89.69940125
  atomic energy  EATOM  =       197.04175453
  Solvation  Ediel_sol  =         0.00000000
  ---------------------------------------------------
  free energy    TOTEN  =       -24.00115356 eV

  energy without entropy =      -24.03842410  energy(sigma->0) =      -24.01357707


--------------------------------------------------------------------------------------------------------




--------------------------------------- Iteration      1(  19)  ---------------------------------------


    POTLOK:  cpu time    1.5308: real time    1.5345
    SETDIJ:  cpu time    0.0065: real time    0.0065
    EDDIAG:  cpu time    0.4746: real time    0.4757
  RMM-DIIS:  cpu time    1.4191: real time    1.4225
    ORTHCH:  cpu time    0.0117: real time    0.0117
       DOS:  cpu time    0.0002: real time    0.0002
    CHARGE:  cpu time    0.2024: real time    0.2029
    MIXING:  cpu time    0.0532: real time    0.0533
    --------------------------------------------
      LOOP:  cpu time    3.6985: real time    3.7073

 eigenvalue-minimisations  :    64
 total energy-change (2. order) :-0.1094097E-03  (-0.1494078E-05)
 number of electron       8.0000001 magnetization 
 augmentation part        0.1855020 magnetization 

 Broyden mixing:
  rms(total) = 0.13465E-02    rms(broyden)= 0.13416E-02
  rms(prec ) = 0.18003E-02
  weight for this iteration     100.00

 eigenvalues of (default mixing * dielectric matrix)
  average eigenvalue GAMMA=   2.1073
  7.9426  4.7988  3.5092  2.5602  2.2887  0.6724  0.6724  1.1936  1.1936  1.1963
  1.0432  1.0432  0.6239  0.7645

 Free energy of the ion-electron system (eV)
  ---------------------------------------------------
  alpha Z        PSCENC =         0.24545632
  Ewald energy   TEWEN  =       129.37961510
  -Hartree energ DENC   =      -285.03018501
  -exchange      EXHF   =         0.00000000
  -V(xc)+E(xc)   XCENC  =        24.79844504
  PAW double counting   =       426.72479007     -427.51550808
  entropy T*S    EENTRO =         0.03728004
  eigenvalues    EBANDS =       -89.68291099
  atomic energy  EATOM  =       197.04175453
  Solvation  Ediel_sol  =         0.00000000
  ---------------------------------------------------
  free energy    TOTEN  =       -24.00126297 eV

  energy without entropy =      -24.03854301  energy(sigma->0) =      -24.01368965


--------------------------------------------------------------------------------------------------------




--------------------------------------- Iteration      1(  20)  ---------------------------------------


    POTLOK:  cpu time    1.5685: real time    1.5723
    SETDIJ:  cpu time    0.0066: real time    0.0067
    EDDIAG:  cpu time    0.4463: real time    0.4473
  RMM-DIIS:  cpu time    1.1572: real time    1.1599
    ORTHCH:  cpu time    0.0116: real time    0.0116
       DOS:  cpu time    0.0002: real time    0.0002
    CHARGE:  cpu time    0.2001: real time    0.2005
    MIXING:  cpu time    0.0536: real time    0.0537
    --------------------------------------------
      LOOP:  cpu time    3.4440: real time    3.4522

 eigenvalue-minimisations  :    48
 total energy-change (2. order) :-0.1084520E-04  (-0.1013482E-06)
 number of electron       8.0000001 magnetization 
 augmentation part        0.1855028 magnetization 

 Broyden mixing:
  rms(total) = 0.14451E-03    rms(broyden)= 0.14170E-03
  rms(prec ) = 0.19219E-03
  weight for this iteration     100.00

 eigenvalues of (default mixing * dielectric matrix)
  average eigenvalue GAMMA=   2.2001
  8.4268  5.2456  3.8934  2.7882  2.4648  2.0368  1.2486  1.2486  0.6724  0.6724
  1.0315  1.0315  0.6232  0.8286  0.7892

 Free energy of the ion-electron system (eV)
  ---------------------------------------------------
  alpha Z        PSCENC =         0.24545632
  Ewald energy   TEWEN  =       129.37961510
  -Hartree energ DENC   =      -285.03171007
  -exchange      EXHF   =         0.00000000
  -V(xc)+E(xc)   XCENC  =        24.79845845
  PAW double counting   =       426.70549686     -427.49624637
  entropy T*S    EENTRO =         0.03727609
  eigenvalues    EBANDS =       -89.68137472
  atomic energy  EATOM  =       197.04175453
  Solvation  Ediel_sol  =         0.00000000
  ---------------------------------------------------
  free energy    TOTEN  =       -24.00127381 eV

  energy without entropy =      -24.03854991  energy(sigma->0) =      -24.01369918


--------------------------------------------------------------------------------------------------------




--------------------------------------- Iteration      1(  21)  ---------------------------------------


    POTLOK:  cpu time    1.5955: real time    1.5993
    SETDIJ:  cpu time    0.0064: real time    0.0065
    EDDIAG:  cpu time    0.4620: real time    0.4631
  RMM-DIIS:  cpu time    1.1345: real time    1.1372
    ORTHCH:  cpu time    0.0115: real time    0.0116
       DOS:  cpu time    0.0002: real time    0.0002
    CHARGE:  cpu time    0.1909: real time    0.1913
    MIXING:  cpu time    0.0537: real time    0.0539
    --------------------------------------------
      LOOP:  cpu time    3.4548: real time    3.4630

 eigenvalue-minimisations  :    48
 total energy-change (2. order) :-0.8391966E-05  (-0.4158300E-07)
 number of electron       8.0000001 magnetization 
 augmentation part        0.1855033 magnetization 

 Broyden mixing:
  rms(total) = 0.81294E-04    rms(broyden)= 0.80976E-04
  rms(prec ) = 0.10362E-03
  weight for this iteration     100.00

 eigenvalues of (default mixing * dielectric matrix)
  average eigenvalue GAMMA=   2.1166
  8.4116  5.3062  3.8914  2.5538  2.5538  2.0522  1.2611  1.2611  0.6724  0.6724
  0.6233  1.0446  0.9303  0.9303  0.9226  0.7789

 Free energy of the ion-electron system (eV)
  ---------------------------------------------------
  alpha Z        PSCENC =         0.24545632
  Ewald energy   TEWEN  =       129.37961510
  -Hartree energ DENC   =      -285.03149732
  -exchange      EXHF   =         0.00000000
  -V(xc)+E(xc)   XCENC  =        24.79838388
  PAW double counting   =       426.70517539     -427.49593372
  entropy T*S    EENTRO =         0.03727517
  eigenvalues    EBANDS =       -89.68151155
  atomic energy  EATOM  =       197.04175453
  Solvation  Ediel_sol  =         0.00000000
  ---------------------------------------------------
  free energy    TOTEN  =       -24.00128221 eV

  energy without entropy =      -24.03855738  energy(sigma->0) =      -24.01370726


--------------------------------------------------------------------------------------------------------




--------------------------------------- Iteration      1(  22)  ---------------------------------------


    POTLOK:  cpu time    1.5735: real time    1.5772
    SETDIJ:  cpu time    0.0065: real time    0.0066
    EDDIAG:  cpu time    0.4524: real time    0.4535
  RMM-DIIS:  cpu time    1.1289: real time    1.1316
    ORTHCH:  cpu time    0.0117: real time    0.0117
       DOS:  cpu time    0.0002: real time    0.0002
    CHARGE:  cpu time    0.1919: real time    0.1924
    MIXING:  cpu time    0.0556: real time    0.0557
    --------------------------------------------
      LOOP:  cpu time    3.4207: real time    3.4289

 eigenvalue-minimisations  :    44
 total energy-change (2. order) :-0.1026759E-05  (-0.7314462E-08)
 number of electron       8.0000001 magnetization 
 augmentation part        0.1855028 magnetization 

 Broyden mixing:
  rms(total) = 0.57955E-04    rms(broyden)= 0.57938E-04
  rms(prec ) = 0.75643E-04
  weight for this iteration     100.00

 eigenvalues of (default mixing * dielectric matrix)
  average eigenvalue GAMMA=   2.2094
  8.4824  5.3479  4.2512  2.9418  2.5484  2.5484  2.2483  0.6724  0.6724  1.2232
  1.2232  0.6233  1.1092  0.9335  0.9335  0.9968  0.8041

 Free energy of the ion-electron system (eV)
  ---------------------------------------------------
  alpha Z        PSCENC =         0.24545632
  Ewald energy   TEWEN  =       129.37961510
  -Hartree energ DENC   =      -285.03208693
  -exchange      EXHF   =         0.00000000
  -V(xc)+E(xc)   XCENC  =        24.79838598
  PAW double counting   =       426.70010740     -427.49087249
  entropy T*S    EENTRO =         0.03727484
  eigenvalues    EBANDS =       -89.68091798
  atomic energy  EATOM  =       197.04175453
  Solvation  Ediel_sol  =         0.00000000
  ---------------------------------------------------
  free energy    TOTEN  =       -24.00128323 eV

  energy without entropy =      -24.03855807  energy(sigma->0) =      -24.01370818


--------------------------------------------------------------------------------------------------------




--------------------------------------- Iteration      1(  23)  ---------------------------------------


    POTLOK:  cpu time    1.5804: real time    1.5842
    SETDIJ:  cpu time    0.0065: real time    0.0065
    EDDIAG:  cpu time    0.4494: real time    0.4505
  RMM-DIIS:  cpu time    1.2100: real time    1.2129
    ORTHCH:  cpu time    0.0114: real time    0.0114
       DOS:  cpu time    0.0002: real time    0.0002
    CHARGE:  cpu time    0.1906: real time    0.1911
    MIXING:  cpu time    0.0563: real time    0.0565
    --------------------------------------------
      LOOP:  cpu time    3.5048: real time    3.5132

 eigenvalue-minimisations  :    48
 total energy-change (2. order) :-0.1296866E-05  (-0.1379237E-07)
 number of electron       8.0000001 magnetization 
 augmentation part        0.1855023 magnetization 

 Broyden mixing:
  rms(total) = 0.59223E-04    rms(broyden)= 0.59134E-04
  rms(prec ) = 0.76769E-04
  weight for this iteration     100.00

 eigenvalues of (default mixing * dielectric matrix)
  average eigenvalue GAMMA=   2.1335
  8.4879  5.4212  4.1465  3.1213  2.6452  2.3893  2.1583  0.6724  0.6724  1.2179
  1.2179  0.6233  1.1302  0.9545  0.9545  1.0217  0.7845  0.7845

 Free energy of the ion-electron system (eV)
  ---------------------------------------------------
  alpha Z        PSCENC =         0.24545632
  Ewald energy   TEWEN  =       129.37961510
  -Hartree energ DENC   =      -285.03242907
  -exchange      EXHF   =         0.00000000
  -V(xc)+E(xc)   XCENC  =        24.79834826
  PAW double counting   =       426.69026685     -427.48104881
  entropy T*S    EENTRO =         0.03727464
  eigenvalues    EBANDS =       -89.68052235
  atomic energy  EATOM  =       197.04175453
  Solvation  Ediel_sol  =         0.00000000
  ---------------------------------------------------
  free energy    TOTEN  =       -24.00128453 eV

  energy without entropy =      -24.03855917  energy(sigma->0) =      -24.01370941


--------------------------------------------------------------------------------------------------------




--------------------------------------- Iteration      1(  24)  ---------------------------------------


    POTLOK:  cpu time    1.5816: real time    1.5854
    SETDIJ:  cpu time    0.0065: real time    0.0065
    EDDIAG:  cpu time    0.4541: real time    0.4552
  RMM-DIIS:  cpu time    0.9672: real time    0.9695
    ORTHCH:  cpu time    0.0113: real time    0.0113
       DOS:  cpu time    0.0002: real time    0.0002
    --------------------------------------------
      LOOP:  cpu time    3.0208: real time    3.0280

 eigenvalue-minimisations  :    32
 total energy-change (2. order) :-0.1656589E-06  ( 0.0000000E+00)
 number of electron       8.0000001 magnetization 
 augmentation part        0.1855023 magnetization 

 Free energy of the ion-electron system (eV)
  ---------------------------------------------------
  alpha Z        PSCENC =         0.24545632
  Ewald energy   TEWEN  =       129.37961510
  -Hartree energ DENC   =      -285.03167802
  -exchange      EXHF   =         0.00000000
  -V(xc)+E(xc)   XCENC  =        24.79832429
  PAW double counting   =       426.69487636     -427.48564891
  entropy T*S    EENTRO =         0.03727480
  eigenvalues    EBANDS =       -89.68125916
  atomic energy  EATOM  =       197.04175453
  Solvation  Ediel_sol  =         0.00000000
  ---------------------------------------------------
  free energy    TOTEN  =       -24.00128469 eV

  energy without entropy =      -24.03855950  energy(sigma->0) =      -24.01370963


--------------------------------------------------------------------------------------------------------




 average (electrostatic) potential at core
  the test charge radii are     0.5201  0.6991
  (the norm of the test charge is              1.0000)
       1 -41.6365       2 -41.4231       3 -41.5974       4 -41.4430       5 -57.9286



 E-fermi :  -9.1203     XC(G=0):  -0.7034     alpha+bet : -0.2135


 k-point     1 :       0.2500    0.2500    0.2500
  band No.  band energies     occupation 
      1     -16.9377      2.00000
      2      -9.3464      2.06780
      3      -9.2912      2.00542
      4      -9.2622      1.92629
      5      -0.3071      0.00000
      6       0.5803      0.00000
      7       0.6786      0.00000
      8       0.7044      0.00000

 k-point     2 :      -0.2500    0.2500    0.2500
  band No.  band energies     occupation 
      1     -16.9377      2.00000
      2      -9.3464      2.06781
      3      -9.2913      2.00569
      4      -9.2623      1.92675
      5      -0.3035      0.00000
      6       0.5664      0.00000
      7       0.6605      0.00000
      8       0.7053      0.00000

 k-point     3 :       0.2500   -0.2500    0.2500
  band No.  band energies     occupation 
      1     -16.9377      2.00000
      2      -9.3464      2.06781
      3      -9.2913      2.00555
      4      -9.2623      1.92668
      5      -0.3118      0.00000
      6       0.5801      0.00000
      7       0.6882      0.00000
      8       0.7236      0.00000

 k-point     4 :      -0.2500   -0.2500    0.2500
  band No.  band energies     occupation 
      1     -16.9378      2.00000
      2      -9.3464      2.06782
      3      -9.2913      2.00559
      4      -9.2624      1.92679
      5      -0.3077      0.00000
      6       0.5753      0.00000
      7       0.6717      0.00000
      8       0.7190      0.00000


--------------------------------------------------------------------------------------------------------


 soft charge-density along one line, spin component           1
         0         1         2         3         4         5         6         7         8         9
 total charge-density along one line

 pseudopotential strength for first ion, spin component:           1
 -2.342  -4.036  -0.001  -0.001   0.001
 -4.036  -6.870  -0.003  -0.005   0.002
 -0.001  -0.003  -0.336   0.002  -0.001
 -0.001  -0.005   0.002  -0.334  -0.001
  0.001   0.002  -0.001  -0.001  -0.337
 total augmentation occupancy for first ion, spin component:           1
  4.013  -0.801   0.245   0.382  -0.155
 -0.801   0.174  -0.050  -0.078   0.031
  0.245  -0.050   0.021   0.020  -0.008
  0.382  -0.078   0.020   0.040  -0.013
 -0.155   0.031  -0.008  -0.013   0.015


------------------------ aborting loop because EDIFF is reached ----------------------------------------


    CHARGE:  cpu time    0.1974: real time    0.1979
    FORLOC:  cpu time    0.1108: real time    0.1111
    FORNL :  cpu time    0.6645: real time    0.6661
    STRESS:  cpu time    2.0992: real time    2.1042
    FORCOR:  cpu time    1.6730: real time    1.6769
    FORHAR:  cpu time    0.5417: real time    0.5430
    MIXING:  cpu time    0.0666: real time    0.0667
    OFIELD:  cpu time    0.0000: real time    0.0000

  FORCE on cell =-STRESS in cart. coord.  units (eV):
  Direction    XX          YY          ZZ          XY          YZ          ZX
  --------------------------------------------------------------------------------------
  Alpha Z     0.24546     0.24546     0.24546
  Ewald      42.43032    44.06890    42.88038     0.80802    -0.07648     1.17952
  Hartree    94.08542    96.26889    94.67658     0.32527    -0.39194     0.85458
  E(xc)     -27.26305   -27.28431   -27.26843     0.00277    -0.00347     0.00841
  Local    -195.36211  -198.70230  -196.45266    -1.28980     0.52367    -2.20520
  n-local   -15.74516   -16.00417   -15.64264    -0.26060    -0.44519    -0.19409
  augment     0.11650     0.10915     0.11564     0.00195    -0.00047     0.00257
  Kinetic   101.31471   101.35947   101.88579     0.79460     0.62250    -0.01798
  Fock        0.00000     0.00000     0.00000     0.00000     0.00000     0.00000
  -------------------------------------------------------------------------------------
  Total      -0.17792     0.06108     0.44011     0.38220     0.22861    -0.37220
  in kB      -0.28883     0.09916     0.71447     0.62046     0.37112    -0.60422
  external pressure =        0.17 kB  Pullay stress =        0.00 kB

  kinetic pressure (ideal gas correction) =      0.03 kB
  total pressure  =      0.20 kB
  Total+kin.    -0.270       0.124       0.754       0.611       0.382      -0.615

 VOLUME and BASIS-vectors are now :
 -----------------------------------------------------------------------------
  energy-cutoff  :      400.00
  volume of cell :      986.94
      direct lattice vectors                 reciprocal lattice vectors
    10.076030144  0.000000000  0.000000000     0.099245436  0.000230398 -0.002138596
    -0.022725802  9.789268237  0.000000000    -0.000000000  0.102152681  0.002511123
     0.216181295 -0.245962832 10.005788143     0.000000000 -0.000000000  0.099942152

  length of vectors
    10.076030144  9.789294616 10.011145211     0.099268742  0.102183541  0.099942152


 FORCES acting on ions
    electron-ion (+dipol)            ewald-force                    non-local-force                 convergence-correction
 -----------------------------------------------------------------------------------------------
   -.169E+02 0.287E+02 0.422E+02   0.188E+02 -.321E+02 -.474E+02   -.186E+01 0.353E+01 0.442E+01   -.117E-04 0.832E-04 0.102E-03
   0.521E+02 -.632E+01 0.321E+01   -.573E+02 0.669E+01 -.354E+01   0.559E+01 -.440E+00 0.868E+00   0.111E-03 -.156E-04 0.309E-04
   -.244E+02 -.478E+02 0.114E+01   0.275E+02 0.535E+02 -.112E+01   -.257E+01 -.479E+01 -.152E+00   -.228E-04 -.101E-03 0.102E-04
   -.130E+02 0.248E+02 -.444E+02   0.142E+02 -.270E+02 0.487E+02   -.145E+01 0.231E+01 -.443E+01   -.210E-04 0.596E-04 -.694E-04
   0.279E+01 0.935E+00 -.284E+01   -.322E+01 -.111E+01 0.330E+01   -.679E+00 0.655E+00 -.796E+00   0.297E-03 0.138E-03 0.420E-03
 -----------------------------------------------------------------------------------------------
   0.464E+00 0.245E+00 -.628E+00   0.000E+00 0.711E-14 0.711E-14   -.977E+00 0.125E+01 -.848E-01   0.353E-03 0.164E-03 0.494E-03


 POSITION                                       TOTAL-FORCE (eV/Angst)
 -----------------------------------------------------------------------------------
      5.49008      3.89207      3.60813        -0.023167      0.136297     -0.706541
      4.05823      4.59208      4.38613         0.435962     -0.068107      0.534920
      5.64767      5.42180      4.43541         0.456589      0.869796     -0.125385
      5.42997      3.94453      5.39468        -0.270661      0.081836     -0.080769
      5.15240      4.46417      4.45762        -1.110910      0.480663     -0.334848
 -----------------------------------------------------------------------------------
    total drift:                               -0.512188      1.500486     -0.712622


--------------------------------------------------------------------------------------------------------



  FREE ENERGIE OF THE ION-ELECTRON SYSTEM (eV)
  ---------------------------------------------------
  free  energy   TOTEN  =       -24.00128469 eV

  energy  without entropy=      -24.03855950  energy(sigma->0) =      -24.01370963



--------------------------------------------------------------------------------------------------------


    POTLOK:  cpu time    1.6699: real time    1.6738


--------------------------------------------------------------------------------------------------------


           RANDOM_SEED =         578496080                0                0
           RANDOM_SEED =         578496080               30                0
   IONSTEP:  cpu time    0.0016: real time    0.0018

  ENERGY OF THE ELECTRON-ION-THERMOSTAT SYSTEM (eV)
  ---------------------------------------------------
% ion-electron   TOTEN  =       -24.001285  see above
  kinetic energy EKIN   =         0.033934
  kin. lattice  EKIN_LAT=         0.000000  (temperature   65.63 K)
  nose potential ES     =         0.000000
  nose kinetic   EPS    =         0.000008
  ---------------------------------------------------
  total energy   ETOTAL =       -23.967343 eV

  maximum distance moved by ions :      0.45E-02


 mean value of Nose-termostat <S>:     1.004 mean value of <T> :    65.632
 mean temperature <T/S>/<1/S>  :    65.632

    WAVPRE:  cpu time    0.4430: real time    0.4478
    FEWALD:  cpu time    0.0004: real time    0.0004
    ORTHCH:  cpu time    0.2313: real time    0.2319
     LOOP+:  cpu time   93.7234: real time   93.9522


--------------------------------------- Iteration      2(   1)  ---------------------------------------


    POTLOK:  cpu time    1.7663: real time    1.7714
    SETDIJ:  cpu time    0.0105: real time    0.0105
     EDDAV:  cpu time    2.0915: real time    2.0966
       DOS:  cpu time    0.0002: real time    0.0002
    CHARGE:  cpu time    0.1979: real time    0.1983
    MIXING:  cpu time    0.0424: real time    0.0425
    --------------------------------------------
      LOOP:  cpu time    4.1089: real time    4.1197

 eigenvalue-minimisations  :    64
 total energy-change (2. order) :-0.5006671E-01  (-0.1990267E+00)
 number of electron       7.9999999 magnetization 
 augmentation part        0.1796064 magnetization 

 Broyden mixing:
  rms(total) = 0.93612E-01    rms(broyden)= 0.93508E-01
  rms(prec ) = 0.11962E+00
  weight for this iteration     100.00

 Free energy of the ion-electron system (eV)
  ---------------------------------------------------
  alpha Z        PSCENC =         0.24545632
  Ewald energy   TEWEN  =       124.68373284
  -Hartree energ DENC   =      -282.29616759
  -exchange      EXHF   =         0.00000000
  -V(xc)+E(xc)   XCENC  =        24.65973311
  PAW double counting   =       426.69670440     -427.48746434
  entropy T*S    EENTRO =         0.04091202
  eigenvalues    EBANDS =       -87.63601253
  atomic energy  EATOM  =       197.04175453
  Solvation  Ediel_sol  =         0.00000000
  ---------------------------------------------------
  free energy    TOTEN  =       -24.05135124 eV

  energy without entropy =      -24.09226327  energy(sigma->0) =      -24.06498858


--------------------------------------------------------------------------------------------------------




--------------------------------------- Iteration      2(   2)  ---------------------------------------


    POTLOK:  cpu time    1.4828: real time    1.4863
    SETDIJ:  cpu time    0.0065: real time    0.0065
    EDDIAG:  cpu time    0.4716: real time    0.4727
  RMM-DIIS:  cpu time    1.5294: real time    1.5330
    ORTHCH:  cpu time    0.0115: real time    0.0115
       DOS:  cpu time    0.0002: real time    0.0002
    CHARGE:  cpu time    0.1784: real time    0.1788
    MIXING:  cpu time    0.0590: real time    0.0591
    --------------------------------------------
      LOOP:  cpu time    3.7393: real time    3.7482

 eigenvalue-minimisations  :    64
 total energy-change (2. order) :-0.1565277E-01  (-0.8007226E-02)
 number of electron       7.9999999 magnetization 
 augmentation part        0.1796123 magnetization 

 Broyden mixing:
  rms(total) = 0.10158E+00    rms(broyden)= 0.10154E+00
  rms(prec ) = 0.12919E+00
  weight for this iteration     100.00

 eigenvalues of (default mixing * dielectric matrix)
  average eigenvalue GAMMA=   2.1384
  8.5149  5.4864  4.4171  3.4227  2.5456  2.3208  2.0322  2.0322  1.7138  0.6724
  0.6724  1.2396  1.2396  0.6233  1.1220  1.1220  1.0132  0.8036  0.8874  0.8874

 Free energy of the ion-electron system (eV)
  ---------------------------------------------------
  alpha Z        PSCENC =         0.24545632
[...]
  rms(prec ) = 0.85270E-03
  weight for this iteration     100.00

 eigenvalues of (default mixing * dielectric matrix)
  average eigenvalue GAMMA=   2.5469
  6.2426  5.2396  4.6031  4.4376  0.4859  4.1102  0.8226  0.9850  0.9850  0.9601
  1.1192  1.1192  3.6075  3.6075  3.3669  1.8289  1.8289  1.6603  1.7798  1.7798
  2.4575  2.4575  1.8948  3.0076  3.0076  2.0851  2.1706  2.1706  2.8778  2.8778
  2.9453  2.9030  2.6925  2.6925  2.6348  2.6348  2.7331  2.7597  2.5035  2.5035
  2.3522  2.3522  2.4542  2.4542  2.4424  2.5221

 Free energy of the ion-electron system (eV)
  ---------------------------------------------------
  alpha Z        PSCENC =         0.24545632
  Ewald energy   TEWEN  =       132.62917485
  -Hartree energ DENC   =      -287.76472027
  -exchange      EXHF   =         0.00000000
  -V(xc)+E(xc)   XCENC  =        24.94321245
  PAW double counting   =       463.62773157     -464.43059389
  entropy T*S    EENTRO =         0.02409388
  eigenvalues    EBANDS =       -90.20443842
  atomic energy  EATOM  =       197.04175453
  Solvation  Ediel_sol  =         0.00000000
  ---------------------------------------------------
  free energy    TOTEN  =       -23.88832899 eV

  energy without entropy =      -23.91242287  energy(sigma->0) =      -23.89636028


--------------------------------------------------------------------------------------------------------




--------------------------------------- Iteration     10(  12)  ---------------------------------------


    POTLOK:  cpu time    1.7380: real time    1.7421
    SETDIJ:  cpu time    0.0064: real time    0.0064
    EDDIAG:  cpu time    0.4759: real time    0.4770
  RMM-DIIS:  cpu time    1.5935: real time    1.5972
    ORTHCH:  cpu time    0.0219: real time    0.0219
       DOS:  cpu time    0.0004: real time    0.0004
    CHARGE:  cpu time    0.2350: real time    0.2356
    MIXING:  cpu time    0.1976: real time    0.1981
    --------------------------------------------
      LOOP:  cpu time    4.2686: real time    4.2788

 eigenvalue-minimisations  :    64
 total energy-change (2. order) :-0.1256849E-04  (-0.2303826E-05)
 number of electron       8.0000004 magnetization 
 augmentation part        0.1893686 magnetization 

 Broyden mixing:
  rms(total) = 0.83131E-03    rms(broyden)= 0.83103E-03
  rms(prec ) = 0.11032E-02
  weight for this iteration     100.00

 eigenvalues of (default mixing * dielectric matrix)
  average eigenvalue GAMMA=   2.5366
  6.2424  5.2470  4.6646  4.6646  0.4113  4.0936  0.7221  1.0642  1.0642  0.9158
  1.0401  1.0401  3.5674  3.5674  3.3747  1.5660  1.5660  3.0579  3.0579  2.4062
  2.4062  1.8199  1.8199  1.9325  1.9325  1.8900  2.9671  2.9671  2.0475  2.9486
  2.2412  2.2412  2.8879  2.3196  2.3731  2.3731  2.6801  2.6801  2.6279  2.6279
  2.5443  2.5443  2.4990  2.4990  2.5335  2.7228  2.7607

 Free energy of the ion-electron system (eV)
  ---------------------------------------------------
  alpha Z        PSCENC =         0.24545632
  Ewald energy   TEWEN  =       132.62917485
  -Hartree energ DENC   =      -287.73720940
  -exchange      EXHF   =         0.00000000
  -V(xc)+E(xc)   XCENC  =        24.94209566
  PAW double counting   =       463.72887998     -464.53145190
  entropy T*S    EENTRO =         0.02410633
  eigenvalues    EBANDS =       -90.23114793
  atomic energy  EATOM  =       197.04175453
  Solvation  Ediel_sol  =         0.00000000
  ---------------------------------------------------
  free energy    TOTEN  =       -23.88834156 eV

  energy without entropy =      -23.91244789  energy(sigma->0) =      -23.89637700


--------------------------------------------------------------------------------------------------------




--------------------------------------- Iteration     10(  13)  ---------------------------------------


    POTLOK:  cpu time    1.6847: real time    1.7542
    SETDIJ:  cpu time    0.0065: real time    0.0065
    EDDIAG:  cpu time    0.4742: real time    0.4753
  RMM-DIIS:  cpu time    1.3775: real time    1.3807
    ORTHCH:  cpu time    0.0202: real time    0.0202
       DOS:  cpu time    0.0003: real time    0.0003
    CHARGE:  cpu time    0.2814: real time    0.2821
    MIXING:  cpu time    0.1526: real time    0.1530
    --------------------------------------------
      LOOP:  cpu time    3.9975: real time    4.0724

 eigenvalue-minimisations  :    60
 total energy-change (2. order) :-0.1098107E-05  (-0.3016614E-06)
 number of electron       8.0000004 magnetization 
 augmentation part        0.1893563 magnetization 

 Broyden mixing:
  rms(total) = 0.11127E-03    rms(broyden)= 0.10944E-03
  rms(prec ) = 0.14109E-03
  weight for this iteration     100.00

 eigenvalues of (default mixing * dielectric matrix)
  average eigenvalue GAMMA=   2.5455
  6.2422  5.4683  5.1117  0.4114  4.3412  4.2565  0.7276  1.0770  1.0770  0.9012
  0.9246  1.2016  1.2016  3.7172  1.5666  1.5666  3.4216  3.4216  3.3696  2.3807
  2.3807  1.8246  1.8246  1.8907  1.8907  3.0761  3.0761  2.1618  2.1618  2.9314
  2.9314  2.2916  2.2916  2.8847  2.5586  2.5586  2.7973  2.6945  2.6945  2.7359
  2.7359  2.3732  2.3732  2.4793  2.5659  2.5401  2.5374  2.5374

 Free energy of the ion-electron system (eV)
  ---------------------------------------------------
  alpha Z        PSCENC =         0.24545632
  Ewald energy   TEWEN  =       132.62917485
  -Hartree energ DENC   =      -287.74941809
  -exchange      EXHF   =         0.00000000
  -V(xc)+E(xc)   XCENC  =        24.94258506
  PAW double counting   =       463.68103068     -464.48374221
  entropy T*S    EENTRO =         0.02408503
  eigenvalues    EBANDS =       -90.21926883
  atomic energy  EATOM  =       197.04175453
  Solvation  Ediel_sol  =         0.00000000
  ---------------------------------------------------
  free energy    TOTEN  =       -23.88834266 eV

  energy without entropy =      -23.91242769  energy(sigma->0) =      -23.89637100


--------------------------------------------------------------------------------------------------------




--------------------------------------- Iteration     10(  14)  ---------------------------------------


    POTLOK:  cpu time    1.7876: real time    1.7918
    SETDIJ:  cpu time    0.0063: real time    0.0063
    EDDIAG:  cpu time    0.4671: real time    0.4682
  RMM-DIIS:  cpu time    1.3837: real time    1.4312
    ORTHCH:  cpu time    0.0109: real time    0.0109
       DOS:  cpu time    0.0002: real time    0.0002
    CHARGE:  cpu time    0.1650: real time    0.1654
    MIXING:  cpu time    0.2019: real time    0.2023
    --------------------------------------------
      LOOP:  cpu time    4.0226: real time    4.0764

 eigenvalue-minimisations  :    48
 total energy-change (2. order) :-0.1312483E-05  (-0.6996796E-07)
 number of electron       8.0000004 magnetization 
 augmentation part        0.1893532 magnetization 

 Broyden mixing:
  rms(total) = 0.17536E-03    rms(broyden)= 0.17532E-03
  rms(prec ) = 0.22997E-03
  weight for this iteration     100.00

 eigenvalues of (default mixing * dielectric matrix)
  average eigenvalue GAMMA=   2.5271
  6.4893  5.9752  5.1761  4.3693  0.3410  4.1721  0.7238  0.7238  0.8192  1.0365
  1.0365  0.9274  1.1784  1.1784  3.7156  3.5256  2.4218  2.4218  3.3463  1.6977
  1.6977  1.7102  1.9078  1.9078  1.8523  3.1405  3.1405  3.0209  3.0209  2.1787
  2.1787  2.9667  2.9667  2.8239  2.3018  2.7583  2.6732  2.6732  2.7129  2.4736
  2.4736  2.5867  2.5867  2.4251  2.4251  2.5656  2.5317  2.4662  2.3858

 Free energy of the ion-electron system (eV)
  ---------------------------------------------------
  alpha Z        PSCENC =         0.24545632
  Ewald energy   TEWEN  =       132.62917485
  -Hartree energ DENC   =      -287.75226186
  -exchange      EXHF   =         0.00000000
  -V(xc)+E(xc)   XCENC  =        24.94267704
  PAW double counting   =       463.65293431     -464.45567839
  entropy T*S    EENTRO =         0.02409146
  eigenvalues    EBANDS =       -90.21649222
  atomic energy  EATOM  =       197.04175453
  Solvation  Ediel_sol  =         0.00000000
  ---------------------------------------------------
  free energy    TOTEN  =       -23.88834397 eV

  energy without entropy =      -23.91243543  energy(sigma->0) =      -23.89637446


--------------------------------------------------------------------------------------------------------




--------------------------------------- Iteration     10(  15)  ---------------------------------------


    POTLOK:  cpu time    1.7882: real time    1.7924
    SETDIJ:  cpu time    0.0119: real time    0.0120
    EDDIAG:  cpu time    0.5734: real time    0.6106
  RMM-DIIS:  cpu time    1.4105: real time    1.4403
    ORTHCH:  cpu time    0.0111: real time    0.0112
       DOS:  cpu time    0.0002: real time    0.0002
    --------------------------------------------
      LOOP:  cpu time    3.7953: real time    3.8666

 eigenvalue-minimisations  :    48
 total energy-change (2. order) :-0.3389654E-06  (-0.1313862E-07)
 number of electron       8.0000004 magnetization 
 augmentation part        0.1893532 magnetization 

 Free energy of the ion-electron system (eV)
  ---------------------------------------------------
  alpha Z        PSCENC =         0.24545632
  Ewald energy   TEWEN  =       132.62917485
  -Hartree energ DENC   =      -287.75145927
  -exchange      EXHF   =         0.00000000
  -V(xc)+E(xc)   XCENC  =        24.94264030
  PAW double counting   =       463.66447314     -464.46720797
  entropy T*S    EENTRO =         0.02408523
  eigenvalues    EBANDS =       -90.21726143
  atomic energy  EATOM  =       197.04175453
  Solvation  Ediel_sol  =         0.00000000
  ---------------------------------------------------
  free energy    TOTEN  =       -23.88834431 eV

  energy without entropy =      -23.91242954  energy(sigma->0) =      -23.89637272


--------------------------------------------------------------------------------------------------------




 average (electrostatic) potential at core
  the test charge radii are     0.5201  0.6991
  (the norm of the test charge is              1.0000)
       1 -42.1885       2 -41.2637       3 -41.5032       4 -41.6001       5 -57.8642



 E-fermi :  -8.9880     XC(G=0):  -0.6999     alpha+bet : -0.2135


 k-point     1 :       0.2500    0.2500    0.2500
  band No.  band energies     occupation 
      1     -17.0479      2.00000
      2      -9.7382      2.00000
      3      -9.1820      2.04340
      4      -9.1394      1.95634
      5      -0.2929      0.00000
      6       0.5825      0.00000
      7       0.6795      0.00000
      8       0.7086      0.00000

 k-point     2 :      -0.2500    0.2500    0.2500
  band No.  band energies     occupation 
      1     -17.0479      2.00000
      2      -9.7382      2.00000
      3      -9.1822      2.04361
      4      -9.1394      1.95637
      5      -0.2902      0.00000
      6       0.5775      0.00000
      7       0.6628      0.00000
      8       0.7068      0.00000

 k-point     3 :       0.2500   -0.2500    0.2500
  band No.  band energies     occupation 
      1     -17.0479      2.00000
      2      -9.7382      2.00000
      3      -9.1821      2.04349
      4      -9.1395      1.95662
      5      -0.2981      0.00000
      6       0.5890      0.00000
      7       0.6895      0.00000
      8       0.7239      0.00000

 k-point     4 :      -0.2500   -0.2500    0.2500
  band No.  band energies     occupation 
      1     -17.0480      2.00000
      2      -9.7383      2.00000
      3      -9.1822      2.04359
      4      -9.1395      1.95657
      5      -0.2934      0.00000
      6       0.5761      0.00000
      7       0.6771      0.00000
      8       0.7235      0.00000


--------------------------------------------------------------------------------------------------------


 soft charge-density along one line, spin component           1
         0         1         2         3         4         5         6         7         8         9
 total charge-density along one line

 pseudopotential strength for first ion, spin component:           1
 -2.347  -4.046  -0.001  -0.002   0.001
 -4.046  -6.889  -0.003  -0.006   0.002
 -0.001  -0.003  -0.333   0.002  -0.001
 -0.002  -0.006   0.002  -0.329  -0.002
  0.001   0.002  -0.001  -0.002  -0.334
 total augmentation occupancy for first ion, spin component:           1
  3.757  -0.653   0.200   0.464  -0.157
 -0.653   0.130  -0.037  -0.081   0.028
  0.200  -0.037   0.020   0.020  -0.007
  0.464  -0.081   0.020   0.061  -0.016
 -0.157   0.028  -0.007  -0.016   0.019


------------------------ aborting loop because EDIFF is reached ----------------------------------------


    CHARGE:  cpu time    0.2233: real time    0.2239
    FORLOC:  cpu time    0.1327: real time    0.1330
    FORNL :  cpu time    0.7557: real time    0.7575
    STRESS:  cpu time    2.7829: real time    2.8016
    FORCOR:  cpu time    2.0353: real time    2.0408
    FORHAR:  cpu time    0.5968: real time    0.5982
    MIXING:  cpu time    0.1905: real time    0.1910
    OFIELD:  cpu time    0.0000: real time    0.0000

  FORCE on cell =-STRESS in cart. coord.  units (eV):
  Direction    XX          YY          ZZ          XY          YZ          ZX
  --------------------------------------------------------------------------------------
  Alpha Z     0.24546     0.24546     0.24546
  Ewald      41.12929    41.00489    50.49499     0.26115    -1.07203    -1.17268
  Hartree    94.98586    96.62388    96.13996     0.35227    -1.06946     0.39275
  E(xc)     -27.42325   -27.45128   -27.41057     0.00809    -0.01536     0.00111
  Local    -195.85019  -196.90178  -203.04291    -0.73938     2.46132     0.08082
  n-local   -15.67002   -16.08670   -15.93465    -0.17485    -0.43184     0.06906
  augment     0.11575     0.11160     0.08209     0.00335    -0.00638     0.00841
  Kinetic   103.17875   102.80227   101.54416    -0.36250     0.83156     0.06583
  Fock        0.00000     0.00000     0.00000     0.00000     0.00000     0.00000
  -------------------------------------------------------------------------------------
  Total       0.71164     0.34834     2.11853    -0.65186     0.69781    -0.55470
  in kB       1.15526     0.56549     3.43918    -1.05821     1.13280    -0.90049
  external pressure =        1.72 kB  Pullay stress =        0.00 kB

  kinetic pressure (ideal gas correction) =      0.11 kB
  total pressure  =      1.83 kB
  Total+kin.     1.231       0.710       3.535      -1.045       1.235      -0.906

 VOLUME and BASIS-vectors are now :
 -----------------------------------------------------------------------------
  energy-cutoff  :      400.00
  volume of cell :      986.94
      direct lattice vectors                 reciprocal lattice vectors
    10.076030144  0.000000000  0.000000000     0.099245436  0.000230398 -0.002138596
    -0.022725802  9.789268237  0.000000000    -0.000000000  0.102152681  0.002511123
     0.216181295 -0.245962832 10.005788143     0.000000000 -0.000000000  0.099942152

  length of vectors
    10.076030144  9.789294616 10.011145211     0.099268742  0.102183541  0.099942152


 FORCES acting on ions
    electron-ion (+dipol)            ewald-force                    non-local-force                 convergence-correction
 -----------------------------------------------------------------------------------------------
   -.165E+02 0.226E+02 0.488E+02   0.193E+02 -.265E+02 -.569E+02   -.163E+01 0.263E+01 0.620E+01   -.343E-04 0.101E-03 0.204E-03
   0.528E+02 -.725E+01 0.853E+00   -.583E+02 0.798E+01 -.936E+00   0.483E+01 -.110E+01 -.509E-02   0.209E-03 -.197E-04 -.452E-05
   -.233E+02 -.472E+02 -.345E+01   0.257E+02 0.519E+02 0.390E+01   -.187E+01 -.459E+01 0.120E+00   -.604E-04 -.174E-03 -.210E-04
   -.129E+02 0.284E+02 -.434E+02   0.144E+02 -.315E+02 0.480E+02   -.110E+01 0.268E+01 -.370E+01   -.174E-04 0.100E-03 -.177E-03
   0.180E+00 0.218E+01 -.464E+01   -.110E+01 -.189E+01 0.593E+01   -.111E+01 0.233E+01 0.503E+00   0.536E-03 0.213E-03 0.746E-05
 -----------------------------------------------------------------------------------------------
   0.302E+00 -.131E+01 -.177E+01   0.355E-14 0.000E+00 0.000E+00   -.893E+00 0.194E+01 0.312E+01   0.633E-03 0.221E-03 0.837E-05


 POSITION                                       TOTAL-FORCE (eV/Angst)
 -----------------------------------------------------------------------------------
      5.45616      4.04842      3.56060         1.177632     -1.318591     -1.868513
      4.07102      4.60789      4.43522        -0.639752     -0.372282     -0.088631
      5.64189      5.44270      4.52458         0.480525      0.142108      0.572240
      5.41978      3.88022      5.34256         0.423286     -0.440898      0.949977
      5.15549      4.45345      4.45441        -2.031486      2.619444      1.788178
 -----------------------------------------------------------------------------------
    total drift:                               -0.589795      0.629780      1.353251


--------------------------------------------------------------------------------------------------------



  FREE ENERGIE OF THE ION-ELECTRON SYSTEM (eV)
  ---------------------------------------------------
  free  energy   TOTEN  =       -23.88834431 eV

  energy  without entropy=      -23.91242954  energy(sigma->0) =      -23.89637272

 d Force =-0.8478494E-01[-0.222E+00, 0.524E-01]  d Energy =-0.1029264E+00 0.181E-01
 d Force =-0.7138419E+01[-0.740E+01,-0.688E+01]  d Ewald  =-0.7133477E+01-0.494E-02


--------------------------------------------------------------------------------------------------------


    POTLOK:  cpu time    1.8397: real time    1.8470


--------------------------------------------------------------------------------------------------------


           RANDOM_SEED =         578496080               30                0
   IONSTEP:  cpu time    0.0001: real time    0.0001

  ENERGY OF THE ELECTRON-ION-THERMOSTAT SYSTEM (eV)
  ---------------------------------------------------
% ion-electron   TOTEN  =       -23.888344  see above
  kinetic energy EKIN   =         0.030713
  kin. lattice  EKIN_LAT=         0.000000  (temperature   59.40 K)
  nose potential ES     =         0.028197
  nose kinetic   EPS    =         0.038109
  ---------------------------------------------------
  total energy   ETOTAL =       -23.791326 eV

  maximum distance moved by ions :      0.53E-02


 mean value of Nose-termostat <S>:     1.976 mean value of <T> :    59.401
 mean temperature <T/S>/<1/S>  :    59.401

    WAVPRE:  cpu time    0.5231: real time    0.6115
    FEWALD:  cpu time    0.0003: real time    0.0003
    ORTHCH:  cpu time    0.2673: real time    0.2679
 Prediction of Wavefunctions ALPHA= 0.381 BETA=-0.678
    POTLOK:  cpu time    1.7284: real time    1.7325
    EDDIAG:  cpu time    0.4262: real time    0.4272
     LOOP+:  cpu time   76.7548: real time   77.3195
    4ORBIT:  cpu time    0.0000: real time    0.0000

 total amount of memory used by VASP MPI-rank0   298895. kBytes
=======================================================================

   base      :      30000. kBytes
   nonlr-proj:        154. kBytes
   fftplans  :      86584. kBytes
   grid      :     154542. kBytes
   one-center:         15. kBytes
   wavefun   :      27600. kBytes

  
  
 General timing and accounting informations for this job:
 ========================================================
  
                  Total CPU time used (sec):      720.965
                            User time (sec):      706.839
                          System time (sec):       14.126
                         Elapsed time (sec):      724.725
  
                   Maximum memory used (kb):      465760.
                   Average memory used (kb):           0.
  
                          Minor page faults:      2441105
                          Major page faults:            0
                 Voluntary context switches:          399
