<?xml version="1.0" encoding="ISO-8859-1"?>
<modeling>
 <generator>
  <i name="program" type="string">vasp </i>
  <i name="version" type="string">5.4.4.18Apr17-6-g9f103f2a35  </i>
  <i name="subversion" type="string">(build Jul 12 2018 13:43:46) complex            parallel </i>
  <i name="platform" type="string">LinuxGNU </i>
  <i name="date" type="string">2019 06 22 </i>
  <i name="time" type="string">02:17:36 </i>
 </generator>
 <incar>
  <i type="int" name="ISTART">     0</i>
  <i type="string" name="PREC">a</i>
  <i type="string" name="ALGO">fast</i>
  <i type="int" name="MAXMIX">    50</i>
  <i type="int" name="ICHARG">     2</i>
  <i type="int" name="IBRION">     0</i>
  <i name="EDIFF">      0.00000100</i>
  <i type="int" name="NSW">    10</i>
  <i type="int" name="ISIF">     2</i>
  <i type="int" name="ISYM">     0</i>
  <i type="int" name="NBLOCK">     1</i>
  <i type="int" name="KBLOCK">   100</i>
  <i name="ENCUT">    400.00000000</i>
  <i name="POTIM">      2.00000000</i>
  <i name="TEBEG">     50.00000000</i>
  <i name="TEEND">     50.00000000</i>
  <i name="SMASS">      0.00000000</i>
  <i type="logical" name="LREAL"> T  </i>
  <i type="int" name="ISMEAR">     1</i>
  <i name="SIGMA">      0.20000000</i>
  <i name="KSPACING">      0.50000000</i>
  <i type="logical" name="KGAMMA"> F  </i>
  <i name="PSTRESS">      0.00000000</i>
  <i type="logical" name="LWAVE"> F  </i>
  <i type="logical" name="LCHARG"> F  </i>
  <v type="int" name="KPOINT_BSE">    -1     0     0     0</v>
 </incar>
 <structure name="primitive_cell" >
  <crystal>
   <varray name="basis" >
    <v>      10.07603014       0.00000000       0.00000000 </v>
    <v>      -0.02272580       9.78926824       0.00000000 </v>
    <v>       0.21618129      -0.24596283      10.00578814 </v>
   </varray>
   <i name="volume">    986.94054337 </i>
   <varray name="rec_basis" >
    <v>       0.09924544       0.00023040      -0.00213860 </v>
    <v>      -0.00000000       0.10215268       0.00251112 </v>
    <v>       0.00000000      -0.00000000       0.09994215 </v>
   </varray>
  </crystal>
  <varray name="positions" >
   <v>      -0.46195463       0.40664610       0.36060392 </v>
   <v>      -0.49715256       0.46722088       0.44550437 </v>
   <v>      -0.44773116      -0.43501113       0.44328471 </v>
   <v>       0.39443840       0.48010718       0.43835920 </v>
   <v>      -0.47172838       0.41649142      -0.46084372 </v>
  </varray>
 </structure>
 <varray name="primitive_index" >
  <v type="int" >        1 </v>
  <v type="int" >        5 </v>
  <v type="int" >        3 </v>
  <v type="int" >        2 </v>
  <v type="int" >        4 </v>
 </varray>
 <kpoints>
  <generation param="Monkhorst-Pack">
   <v type="int" name="divisions">       2        2        2 </v>
   <v name="usershift">      0.00000000       0.00000000       0.00000000 </v>
   <v name="genvec1">      0.50000000       0.00000000       0.00000000 </v>
   <v name="genvec2">      0.00000000       0.50000000       0.00000000 </v>
   <v name="genvec3">      0.00000000       0.00000000       0.50000000 </v>
   <v name="shift">      0.50000000       0.50000000       0.50000000 </v>
  </generation>
  <varray name="kpointlist" >
   <v>       0.25000000       0.25000000       0.25000000 </v>
   <v>      -0.25000000       0.25000000       0.25000000 </v>
   <v>       0.25000000      -0.25000000       0.25000000 </v>
   <v>      -0.25000000      -0.25000000       0.25000000 </v>
  </varray>
  <varray name="weights" >
   <v>       0.25000000 </v>
   <v>       0.25000000 </v>
   <v>       0.25000000 </v>
   <v>       0.25000000 </v>
  </varray>
 </kpoints>
 <parameters>
  <separator name="general" >
   <i type="string" name="SYSTEM">unknown system</i>
   <i type="logical" name="LCOMPAT"> F  </i>
  </separator>
  <separator name="electronic" >
   <i type="string" name="PREC">a</i>
   <i name="ENMAX">    400.00000000</i>
   <i name="ENAUG">    644.87300000</i>
   <i name="EDIFF">      0.00000100</i>
   <i type="int" name="IALGO">    68</i>
   <i type="int" name="IWAVPR">    12</i>
   <i type="int" name="NBANDS">     8</i>
   <i name="NELECT">      8.00000000</i>
   <i type="int" name="TURBO">     0</i>
   <i type="int" name="IRESTART">     0</i>
   <i type="int" name="NREBOOT">     0</i>
   <i type="int" name="NMIN">     0</i>
   <i name="EREF">      0.00000000</i>
   <separator name="electronic smearing" >
    <i type="int" name="ISMEAR">     1</i>
    <i name="SIGMA">      0.20000000</i>
    <i name="KSPACING">      0.50000000</i>
    <i type="logical" name="KGAMMA"> F  </i>
   </separator>
   <separator name="electronic projectors" >
    <i type="logical" name="LREAL"> T  </i>
    <v name="ROPT">      0.00000000      0.00000000</v>
    <i type="int" name="LMAXPAW">  -100</i>
    <i type="int" name="LMAXMIX">     2</i>
    <i type="logical" name="NLSPLINE"> F  </i>
   </separator>
   <separator name="electronic startup" >
    <i type="int" name="ISTART">     0</i>
    <i type="int" name="ICHARG">     2</i>
    <i type="int" name="INIWAV">     1</i>
   </separator>
   <separator name="electronic spin" >
    <i type="int" name="ISPIN">     1</i>
    <i type="logical" name="LNONCOLLINEAR"> F  </i>
    <v name="MAGMOM">      1.00000000      1.00000000      1.00000000      1.00000000      1.00000000</v>
    <i name="NUPDOWN">     -1.00000000</i>
    <i type="logical" name="LSORBIT"> F  </i>
    <v name="SAXIS">      0.00000000      0.00000000      1.00000000</v>
    <i type="logical" name="LSPIRAL"> F  </i>
    <v name="QSPIRAL">      0.00000000      0.00000000      0.00000000</v>
    <i type="logical" name="LZEROZ"> F  </i>
   </separator>
   <separator name="electronic exchange-correlation" >
    <i type="logical" name="LASPH"> F  </i>
    <i type="logical" name="LMETAGGA"> F  </i>
   </separator>
   <separator name="electronic convergence" >
    <i type="int" name="NELM">    60</i>
    <i type="int" name="NELMDL">    -5</i>
    <i type="int" name="NELMIN">     2</i>
    <i name="ENINI">    400.00000000</i>
    <separator name="electronic convergence detail" >
     <i type="logical" name="LDIAG"> T  </i>
     <i type="logical" name="LSUBROT"> F  </i>
     <i name="WEIMIN">      0.00100000</i>
     <i name="EBREAK">      0.00000003</i>
     <i name="DEPER">      0.30000000</i>
     <i type="int" name="NRMM">     4</i>
     <i name="TIME">      0.40000000</i>
    </separator>
   </separator>
   <separator name="electronic mixer" >
    <i name="AMIX">      0.40000000</i>
    <i name="BMIX">      1.00000000</i>
    <i name="AMIN">      0.10000000</i>
    <i name="AMIX_MAG">      1.60000000</i>
    <i name="BMIX_MAG">      1.00000000</i>
    <separator name="electronic mixer details" >
     <i type="int" name="IMIX">     4</i>
     <i type="logical" name="MIXFIRST"> F  </i>
     <i type="int" name="MAXMIX">    50</i>
     <i name="WC">    100.00000000</i>
     <i type="int" name="INIMIX">     1</i>
     <i type="int" name="MIXPRE">     1</i>
     <i type="int" name="MREMOVE">     5</i>
    </separator>
   </separator>
   <separator name="electronic dipolcorrection" >
    <i type="logical" name="LDIPOL"> F  </i>
    <i type="logical" name="LMONO"> F  </i>
    <i type="int" name="IDIPOL">     0</i>
    <i name="EPSILON">      1.00000000</i>
    <v name="DIPOL">   -100.00000000   -100.00000000   -100.00000000</v>
    <i name="EFIELD">      0.00000000</i>
   </separator>
  </separator>
  <separator name="grids" >
   <i type="int" name="NGX">    70</i>
   <i type="int" name="NGY">    64</i>
   <i type="int" name="NGZ">    70</i>
   <i type="int" name="NGXF">   140</i>
   <i type="int" name="NGYF">   128</i>
   <i type="int" name="NGZF">   140</i>
   <i type="logical" name="ADDGRID"> F  </i>
  </separator>
  <separator name="ionic" >
   <i type="int" name="NSW">    10</i>
   <i type="int" name="IBRION">     0</i>
   <i type="int" name="MDALGO">     0</i>
   <i type="int" name="ISIF">     2</i>
   <i name="PSTRESS">      0.00000000</i>
   <i name="EDIFFG">      0.00001000</i>
   <i type="int" name="NFREE">     0</i>
   <i name="POTIM">      2.00000000</i>
   <i name="SMASS">      0.00159316</i>
   <i name="SCALEE">      1.00000000</i>
  </separator>
  <separator name="ionic md" >
   <i name="TEBEG">     50.00000000</i>
   <i name="TEEND">     50.00000000</i>
   <i type="int" name="NBLOCK">     1</i>
   <i type="int" name="KBLOCK">     1</i>
   <i type="int" name="NPACO">   256</i>
   <i name="APACO">     16.00000000</i>
  </separator>
  <separator name="symmetry" >
   <i type="int" name="ISYM">     0</i>
   <i name="SYMPREC">      0.00001000</i>
  </separator>
  <separator name="dos" >
   <i type="int" name="LORBIT">     0</i>
   <v name="RWIGS">     -1.00000000     -1.00000000</v>
   <i type="int" name="NEDOS">   301</i>
   <i name="EMIN">     10.00000000</i>
   <i name="EMAX">    -10.00000000</i>
   <i name="EFERMI">      0.00000000</i>
  </separator>
  <separator name="writing" >
   <i type="int" name="NWRITE">     2</i>
   <i type="logical" name="LWAVE"> F  </i>
   <i type="logical" name="LDOWNSAMPLE"> F  </i>
   <i type="logical" name="LCHARG"> F  </i>
   <i type="logical" name="LPARD"> F  </i>
   <i type="logical" name="LVTOT"> F  </i>
   <i type="logical" name="LVHAR"> F  </i>
   <i type="logical" name="LELF"> F  </i>
   <i type="logical" name="LOPTICS"> F  </i>
   <v name="STM">      0.00000000      0.00000000      0.00000000      0.00000000      0.00000000      0.00000000      0.00000000</v>
  </separator>
  <separator name="performance" >
   <i type="int" name="NPAR">     1</i>
   <i type="int" name="NSIM">     4</i>
   <i type="int" name="NBLK">    -1</i>
   <i type="logical" name="LPLANE"> T  </i>
   <i type="logical" name="LSCALAPACK"> T  </i>
   <i type="logical" name="LSCAAWARE"> F  </i>
   <i type="logical" name="LSCALU"> F  </i>
   <i type="logical" name="LASYNC"> F  </i>
   <i type="logical" name="LORBITALREAL"> F  </i>
  </separator>
  <separator name="miscellaneous" >
   <i type="int" name="IDIOT">     3</i>
   <i type="int" name="ISPECIAL">     0</i>
   <i type="logical" name="LMUSIC"> F  </i>
   <v name="POMASS">      1.00000000     12.01100000</v>
   <v name="DARWINR">      0.00000000      0.00000000</v>
   <v name="DARWINV">      1.00000000      1.00000000</v>
   <i type="logical" name="LCORR"> T  </i>
  </separator>
  <i type="logical" name="GGA_COMPAT"> T  </i>
  <i type="logical" name="LBERRY"> F  </i>
  <i type="int" name="ICORELEVEL">     0</i>
  <i type="logical" name="LDAU"> F  </i>
  <i type="int" name="I_CONSTRAINED_M">     0</i>
  <separator name="electronic exchange-correlation" >
   <i type="string" name="GGA">--</i>
   <i type="int" name="VOSKOWN">     0</i>
   <i type="logical" name="LHFCALC"> F  </i>
   <i type="string" name="PRECFOCK"></i>
   <i type="logical" name="LSYMGRAD"> F  </i>
   <i type="logical" name="LHFONE"> F  </i>
   <i type="logical" name="LRHFCALC"> F  </i>
   <i type="logical" name="LTHOMAS"> F  </i>
   <i type="logical" name="LMODELHF"> F  </i>
   <i name="ENCUT4O">     -1.00000000</i>
   <i type="int" name="EXXOEP">     0</i>
   <i type="int" name="FOURORBIT">     0</i>
   <i name="AEXX">      0.00000000</i>
   <i name="HFALPHA">      0.00000000</i>
   <i name="MCALPHA">      0.00000000</i>
   <i name="ALDAX">      1.00000000</i>
   <i name="AGGAX">      1.00000000</i>
   <i name="ALDAC">      1.00000000</i>
   <i name="AGGAC">      1.00000000</i>
   <i type="int" name="NKREDX">     1</i>
   <i type="int" name="NKREDY">     1</i>
   <i type="int" name="NKREDZ">     1</i>
   <i type="logical" name="SHIFTRED"> F  </i>
   <i type="logical" name="ODDONLY"> F  </i>
   <i type="logical" name="EVENONLY"> F  </i>
   <i type="int" name="LMAXFOCK">     0</i>
   <i type="int" name="NMAXFOCKAE">     0</i>
   <i type="logical" name="LFOCKAEDFT"> F  </i>
   <i name="HFSCREEN">      0.00000000</i>
   <i name="HFSCREENC">      0.00000000</i>
   <i type="int" name="NBANDSGWLOW">     0</i>
  </separator>
  <separator name="vdW DFT" >
   <i type="logical" name="LUSE_VDW"> F  </i>
   <i name="Zab_VDW">     -0.84910000</i>
   <i name="PARAM1">      0.12340000</i>
   <i name="PARAM2">      1.00000000</i>
   <i name="PARAM3">      0.00000000</i>
  </separator>
  <separator name="model GW" >
   <i type="int" name="MODEL_GW">     0</i>
   <i name="MODEL_EPS0">    118.43286520</i>
   <i name="MODEL_ALPHA">      1.00000000</i>
  </separator>
  <separator name="linear response parameters" >
   <i type="logical" name="LEPSILON"> F  </i>
   <i type="logical" name="LRPA"> F  </i>
   <i type="logical" name="LNABLA"> F  </i>
   <i type="logical" name="LVEL"> F  </i>
   <i type="int" name="KINTER">     0</i>
   <i name="CSHIFT">      0.10000000</i>
   <i name="OMEGAMAX">     -1.00000000</i>
   <i name="DEG_THRESHOLD">      0.00200000</i>
   <i name="RTIME">     -0.10000000</i>
   <i name="WPLASMAI">      0.00000000</i>
   <v name="DFIELD">      0.00000000      0.00000000      0.00000000</v>
   <v name="WPLASMA">      0.00000000      0.00000000      0.00000000      0.00000000      0.00000000      0.00000000      0.00000000      0.00000000      0.00000000</v>
  </separator>
  <separator name="orbital magnetization" >
   <i type="logical" name="NUCIND"> F  </i>
   <v name="MAGPOS">      0.00000000      0.00000000      0.00000000</v>
   <i type="logical" name="LNICSALL"> T  </i>
   <i type="logical" name="ORBITALMAG"> F  </i>
   <i type="logical" name="LMAGBLOCH"> F  </i>
   <i type="logical" name="LCHIMAG"> F  </i>
   <i type="logical" name="LGAUGE"> T  </i>
   <i type="int" name="MAGATOM">     0</i>
   <v name="MAGDIPOL">      0.00000000      0.00000000      0.00000000</v>
   <v name="AVECCONST">      0.00000000      0.00000000      0.00000000</v>
  </separator>
  <separator name="response functions" >
   <i type="logical" name="LADDER"> F  </i>
   <i type="logical" name="LRPAFORCE"> F  </i>
   <i type="logical" name="LFXC"> F  </i>
   <i type="logical" name="LHARTREE"> T  </i>
   <i type="int" name="IBSE">     0</i>
   <v type="int" name="KPOINT">    -1     0     0     0</v>
   <i type="logical" name="LTCTE"> F  </i>
   <i type="logical" name="LTETE"> F  </i>
   <i type="logical" name="LTRIPLET"> F  </i>
   <i type="logical" name="LFXCEPS"> F  </i>
   <i type="logical" name="LFXHEG"> F  </i>
   <i type="int" name="NATURALO">     2</i>
   <i type="logical" name="L2ORDER"> F  </i>
   <i type="logical" name="LMP2LT"> F  </i>
   <i type="logical" name="LUSEW"> F  </i>
   <i name="ENCUTGW">     -2.00000000</i>
   <i name="ENCUTGWSOFT">     -2.00000000</i>
   <i name="ENCUTLF">     -1.00000000</i>
   <i type="int" name="LMAXMP2">    -1</i>
   <i name="SCISSOR">      0.00000000</i>
   <i type="int" name="NOMEGA">     0</i>
   <i type="int" name="NOMEGAR">     0</i>
   <i type="int" name="NBANDSGW">    -1</i>
   <i type="int" name="NBANDSO">    -1</i>
   <i type="int" name="NBANDSV">    -1</i>
   <i type="int" name="NELM">     1</i>
   <i type="int" name="NELMHF">     1</i>
   <i type="int" name="DIM">     3</i>
   <i type="int" name="ANTIRES">     0</i>
   <i name="OMEGAMAX">    -30.00000000</i>
   <i name="OMEGAMIN">    -30.00000000</i>
   <i name="OMEGATL">   -200.00000000</i>
   <i type="int" name="OMEGAGRID">   140</i>
   <i name="CSHIFT">     -0.10000000</i>
   <i type="logical" name="SELFENERGY"> F  </i>
   <i type="logical" name="LSPECTRAL"> F  </i>
   <i type="logical" name="LSPECTRALGW"> F  </i>
   <i type="logical" name="LSINGLES"> F  </i>
   <i type="logical" name="LFERMIGW"> F  </i>
   <i type="logical" name="ODDONLYGW"> F  </i>
   <i type="logical" name="EVENONLYGW"> F  </i>
   <i type="int" name="NKREDLFX">     1</i>
   <i type="int" name="NKREDLFY">     1</i>
   <i type="int" name="NKREDLFZ">     1</i>
   <i type="int" name="MAXMEM">  2800</i>
   <i type="int" name="TELESCOPE">     0</i>
   <i type="int" name="TAUPAR">     1</i>
   <i type="int" name="OMEGAPAR">    -1</i>
   <i name="LAMBDA">      1.00000000</i>
  </separator>
  <separator name="External order field" >
   <i name="OFIELD_KAPPA">      0.00000000</i>
   <v name="OFIELD_K">      0.00000000      0.00000000      0.00000000</v>
   <i name="OFIELD_Q6_NEAR">      0.00000000</i>
   <i name="OFIELD_Q6_FAR">      0.00000000</i>
   <i name="OFIELD_A">      0.00000000</i>
  </separator>
 </parameters>
 <atominfo>
  <atoms>       5 </atoms>
  <types>       2 </types>
  <array name="atoms" >
   <dimension dim="1">ion</dimension>
   <field type="string">element</field>
   <field type="int">atomtype</field>
   <set>
    <rc><c>H </c><c>   1</c></rc>
    <rc><c>H </c><c>   1</c></rc>
    <rc><c>H </c><c>   1</c></rc>
    <rc><c>H </c><c>   1</c></rc>
    <rc><c>C </c><c>   2</c></rc>
   </set>
  </array>
  <array name="atomtypes" >
   <dimension dim="1">type</dimension>
   <field type="int">atomspertype</field>
   <field type="string">element</field>
   <field>mass</field>
   <field>valence</field>
   <field type="string">pseudopotential</field>
   <set>
    <rc><c>   4</c><c>H </c><c>      1.00000000</c><c>      1.00000000</c><c>  PAW_PBE H 15Jun2001                   </c></rc>
    <rc><c>   1</c><c>C </c><c>     12.01100000</c><c>      4.00000000</c><c>  PAW_PBE C 08Apr2002                   </c></rc>
   </set>
  </array>
 </atominfo>
 <structure name="initialpos" >
  <crystal>
   <varray name="basis" >
    <v>      10.07603014       0.00000000       0.00000000 </v>
    <v>      -0.02272580       9.78926824       0.00000000 </v>
    <v>       0.21618129      -0.24596283      10.00578814 </v>
   </varray>
   <i name="volume">    986.94054337 </i>
   <varray name="rec_basis" >
    <v>       0.09924544       0.00023040      -0.00213860 </v>
    <v>      -0.00000000       0.10215268       0.00251112 </v>
    <v>       0.00000000      -0.00000000       0.09994215 </v>
   </varray>
  </crystal>
  <varray name="positions" >
   <v>       0.53804537       0.40664610       0.36060392 </v>
   <v>       0.39443840       0.48010718       0.43835920 </v>
   <v>       0.55226884       0.56498887       0.44328471 </v>
   <v>       0.52827162       0.41649142       0.53915628 </v>
   <v>       0.50284744       0.46722088       0.44550437 </v>
  </varray>
  <varray name="velocities" >
   <v>      -0.00009561      -0.00100444      -0.00152078 </v>
   <v>      -0.00183203       0.00108993       0.00030734 </v>
   <v>      -0.00080844       0.00063279       0.00258252 </v>
   <v>       0.00012457      -0.00191238       0.00030065 </v>
   <v>       0.00021743       0.00009942      -0.00013902 </v>
  </varray>
 </structure>
 <calculation>
  <scstep>
   <time name="dav">    2.95    2.95</time>
   <time name="total">    4.63    4.64</time>
   <energy>
    <i name="alphaZ">      0.24545632 </i>
    <i name="ewald">    129.37961510 </i>
    <i name="hartreedc">   -244.07022775 </i>
    <i name="XCdc">     22.03817885 </i>
    <i name="pawpsdc">    117.05815612 </i>
    <i name="pawaedc">   -117.66307307 </i>
    <i name="eentropy">      0.00289895 </i>
    <i name="bandstr">    -90.42811018 </i>
    <i name="atom">    197.04175453 </i>
    <i name="e_fr_energy">     13.60464888 </i>
    <i name="e_wo_entrp">     13.60174993 </i>
    <i name="e_0_energy">     13.60368256 </i>
   </energy>
  </scstep>
  <scstep>
   <time name="dav">    2.12    2.12</time>
   <time name="total">    2.12    2.12</time>
   <energy>
    <i name="e_fr_energy">    -23.09255690 </i>
    <i name="e_wo_entrp">    -23.09553423 </i>
    <i name="e_0_energy">    -23.09354934 </i>
   </energy>
  </scstep>
  <scstep>
   <time name="dav">    2.11    2.11</time>
   <time name="total">    2.11    2.11</time>
   <energy>
    <i name="e_fr_energy">    -27.44003479 </i>
    <i name="e_wo_entrp">    -27.47551007 </i>
    <i name="e_0_energy">    -27.45185988 </i>
   </energy>
  </scstep>
  <scstep>
   <time name="dav">    3.78    3.79</time>
   <time name="total">    3.78    3.79</time>
   <energy>
    <i name="e_fr_energy">    -27.61260761 </i>
    <i name="e_wo_entrp">    -27.64849294 </i>
    <i name="e_0_energy">    -27.62456939 </i>
   </energy>
  </scstep>
  <scstep>
   <time name="dav">    2.66    2.66</time>
   <time name="total">    2.90    2.90</time>
   <energy>
    <i name="e_fr_energy">    -27.61266100 </i>
    <i name="e_wo_entrp">    -27.64854660 </i>
    <i name="e_0_energy">    -27.62462286 </i>
   </energy>
  </scstep>
  <scstep>
   <time name="diag">    0.46    0.46</time>
   <time name="diis">    1.47    1.48</time>
   <time name="orth">    0.01    0.01</time>
   <time name="total">    3.88    3.89</time>
   <energy>
    <i name="e_fr_energy">    -24.65074373 </i>
    <i name="e_wo_entrp">    -24.68863142 </i>
    <i name="e_0_energy">    -24.66337296 </i>
   </energy>
  </scstep>
  <scstep>
   <time name="diag">    0.44    0.44</time>
   <time name="diis">    1.52    1.53</time>
   <time name="orth">    0.01    0.01</time>
   <time name="total">    3.92    3.93</time>
   <energy>
    <i name="e_fr_energy">    -24.14983555 </i>
    <i name="e_wo_entrp">    -24.18897409 </i>
    <i name="e_0_energy">    -24.16288173 </i>
   </energy>
  </scstep>
  <scstep>
   <time name="diag">    0.45    0.46</time>
   <time name="diis">    1.57    1.57</time>
   <time name="orth">    0.01    0.01</time>
   <time name="total">    3.95    3.96</time>
   <energy>
    <i name="e_fr_energy">    -24.02986341 </i>
    <i name="e_wo_entrp">    -24.06896688 </i>
    <i name="e_0_energy">    -24.04289790 </i>
   </energy>
  </scstep>
  <scstep>
   <time name="diag">    0.47    0.47</time>
   <time name="diis">    1.56    1.56</time>
   <time name="orth">    0.01    0.01</time>
   <time name="total">    3.93    3.93</time>
   <energy>
    <i name="e_fr_energy">    -23.99708386 </i>
    <i name="e_wo_entrp">    -24.03578726 </i>
    <i name="e_0_energy">    -24.00998500 </i>
   </energy>
  </scstep>
  <scstep>
   <time name="diag">    0.47    0.47</time>
   <time name="diis">    1.58    1.58</time>
   <time name="orth">    0.01    0.01</time>
   <time name="total">    3.98    3.98</time>
   <energy>
    <i name="e_fr_energy">    -23.99431477 </i>
    <i name="e_wo_entrp">    -24.03230455 </i>
    <i name="e_0_energy">    -24.00697803 </i>
   </energy>
  </scstep>
  <scstep>
   <time name="diag">    0.48    0.48</time>
   <time name="diis">    1.58    1.58</time>
   <time name="orth">    0.01    0.01</time>
   <time name="total">    4.00    4.01</time>
   <energy>
    <i name="e_fr_energy">    -23.99299414 </i>
    <i name="e_wo_entrp">    -24.03093537 </i>
    <i name="e_0_energy">    -24.00564122 </i>
   </energy>
  </scstep>
  <scstep>
   <time name="diag">    0.47    0.47</time>
   <time name="diis">    1.56    1.57</time>
   <time name="orth">    0.01    0.01</time>
   <time name="total">    3.88    3.89</time>
   <energy>
    <i name="e_fr_energy">    -23.98871412 </i>
    <i name="e_wo_entrp">    -24.02598664 </i>
    <i name="e_0_energy">    -24.00113829 </i>
   </energy>
  </scstep>
  <scstep>
   <time name="diag">    0.47    0.47</time>
   <time name="diis">    1.54    1.54</time>
   <time name="orth">    0.01    0.01</time>
   <time name="total">    3.85    3.86</time>
   <energy>
    <i name="e_fr_energy">    -23.99163980 </i>
    <i name="e_wo_entrp">    -24.02893644 </i>
    <i name="e_0_energy">    -24.00407201 </i>
   </energy>
  </scstep>
  <scstep>
   <time name="diag">    0.47    0.47</time>
   <time name="diis">    1.52    1.52</time>
   <time name="orth">    0.01    0.01</time>
   <time name="total">    3.77    3.78</time>
   <energy>
    <i name="e_fr_energy">    -23.99797138 </i>
    <i name="e_wo_entrp">    -24.03541933 </i>
    <i name="e_0_energy">    -24.01045403 </i>
   </energy>
  </scstep>
  <scstep>
   <time name="diag">    0.45    0.45</time>
   <time name="diis">    1.51    1.52</time>
   <time name="orth">    0.01    0.01</time>
   <time name="total">    3.76    3.77</time>
   <energy>
    <i name="e_fr_energy">    -23.99871592 </i>
    <i name="e_wo_entrp">    -24.03601141 </i>
    <i name="e_0_energy">    -24.01114775 </i>
   </energy>
  </scstep>
  <scstep>
   <time name="diag">    0.45    0.45</time>
   <time name="diis">    1.50    1.50</time>
   <time name="orth">    0.01    0.01</time>
   <time name="total">    3.75    3.76</time>
   <energy>
    <i name="e_fr_energy">    -24.00089856 </i>
    <i name="e_wo_entrp">    -24.03820642 </i>
    <i name="e_0_energy">    -24.01333451 </i>
   </energy>
  </scstep>
  <scstep>
   <time name="diag">    0.45    0.45</time>
   <time name="diis">    1.46    1.46</time>
   <time name="orth">    0.01    0.01</time>
   <time name="total">    3.68    3.69</time>
   <energy>
    <i name="e_fr_energy">    -24.00098255 </i>
    <i name="e_wo_entrp">    -24.03825402 </i>
    <i name="e_0_energy">    -24.01340637 </i>
   </energy>
  </scstep>
  <scstep>
   <time name="diag">    0.47    0.47</time>
   <time name="diis">    1.36    1.37</time>
   <time name="orth">    0.01    0.01</time>
   <time name="total">    3.59    3.60</time>
   <energy>
    <i name="e_fr_energy">    -24.00115356 </i>
    <i name="e_wo_entrp">    -24.03842410 </i>
    <i name="e_0_energy">    -24.01357707 </i>
   </energy>
  </scstep>
  <scstep>
   <time name="diag">    0.47    0.48</time>
   <time name="diis">    1.42    1.42</time>
   <time name="orth">    0.01    0.01</time>
   <time name="total">    3.70    3.71</time>
   <energy>
    <i name="e_fr_energy">    -24.00126297 </i>
    <i name="e_wo_entrp">    -24.03854301 </i>
    <i name="e_0_energy">    -24.01368965 </i>
   </energy>
  </scstep>
  <scstep>
   <time name="diag">    0.45    0.45</time>
   <time name="diis">    1.16    1.16</time>
   <time name="orth">    0.01    0.01</time>
   <time name="total">    3.44    3.45</time>
   <energy>
    <i name="e_fr_energy">    -24.00127381 </i>
    <i name="e_wo_entrp">    -24.03854991 </i>
    <i name="e_0_energy">    -24.01369918 </i>
   </energy>
  </scstep>
  <scstep>
   <time name="diag">    0.46    0.46</time>
   <time name="diis">    1.13    1.14</time>
   <time name="orth">    0.01    0.01</time>
   <time name="total">    3.45    3.46</time>
   <energy>
    <i name="e_fr_energy">    -24.00128221 </i>
    <i name="e_wo_entrp">    -24.03855738 </i>
    <i name="e_0_energy">    -24.01370726 </i>
   </energy>
  </scstep>
  <scstep>
   <time name="diag">    0.45    0.45</time>
   <time name="diis">    1.13    1.13</time>
   <time name="orth">    0.01    0.01</time>
   <time name="total">    3.42    3.43</time>
   <energy>
    <i name="e_fr_energy">    -24.00128323 </i>
    <i name="e_wo_entrp">    -24.03855807 </i>
    <i name="e_0_energy">    -24.01370818 </i>
   </energy>
  </scstep>
  <scstep>
   <time name="diag">    0.45    0.45</time>
   <time name="diis">    1.21    1.21</time>
   <time name="orth">    0.01    0.01</time>
   <time name="total">    3.50    3.51</time>
   <energy>
    <i name="e_fr_energy">    -24.00128453 </i>
    <i name="e_wo_entrp">    -24.03855917 </i>
    <i name="e_0_energy">    -24.01370941 </i>
   </energy>
  </scstep>
  <scstep>
   <time name="diag">    0.45    0.46</time>
   <time name="diis">    0.97    0.97</time>
   <time name="orth">    0.01    0.01</time>
   <time name="total">    3.02    3.03</time>
   <energy>
    <i name="alphaZ">      0.24545632 </i>
    <i name="ewald">    129.37961510 </i>
    <i name="hartreedc">   -285.03167802 </i>
    <i name="XCdc">     24.79832429 </i>
    <i name="pawpsdc">    426.69487636 </i>
    <i name="pawaedc">   -427.48564891 </i>
    <i name="eentropy">      0.03727480 </i>
    <i name="bandstr">    -89.68125916 </i>
    <i name="atom">    197.04175453 </i>
    <i name="e_fr_energy">    -24.00128469 </i>
    <i name="e_wo_entrp">    -24.03855950 </i>
    <i name="e_0_energy">    -24.01370963 </i>
   </energy>
  </scstep>
  <structure>
   <crystal>
    <varray name="basis" >
     <v>      10.07603014       0.00000000       0.00000000 </v>
     <v>      -0.02272580       9.78926824       0.00000000 </v>
     <v>       0.21618129      -0.24596283      10.00578814 </v>
    </varray>
    <i name="volume">    986.94054337 </i>
    <varray name="rec_basis" >
     <v>       0.09924544       0.00023040      -0.00213860 </v>
     <v>      -0.00000000       0.10215268       0.00251112 </v>
     <v>       0.00000000      -0.00000000       0.09994215 </v>
    </varray>
   </crystal>
   <varray name="positions" >
    <v>       0.53804537       0.40664610       0.36060392 </v>
    <v>       0.39443840       0.48010718       0.43835920 </v>
    <v>       0.55226884       0.56498887       0.44328471 </v>
    <v>       0.52827162       0.41649142       0.53915628 </v>
    <v>       0.50284744       0.46722088       0.44550437 </v>
   </varray>
  </structure>
  <varray name="forces" >
   <v>      -0.02316713       0.13629723      -0.70654094 </v>
   <v>       0.43596206      -0.06810656       0.53492028 </v>
   <v>       0.45658870       0.86979603      -0.12538455 </v>
   <v>      -0.27066119       0.08183645      -0.08076894 </v>
   <v>      -1.11091036       0.48066329      -0.33484757 </v>
  </varray>
  <varray name="stress" >
   <v>      -0.28882567       0.62045545      -0.60421945 </v>
   <v>       0.62045545       0.09916322       0.37112089 </v>
   <v>      -0.60421945       0.37112089       0.71447168 </v>
  </varray>
  <energy>
   <i name="e_fr_energy">    -24.00128469 </i>
   <i name="e_wo_entrp">    -24.01370963 </i>
   <i name="e_0_energy">      0.03727480 </i>
   <i name="kinetic">      0.03393435 </i>
   <i name="lattice kinetic">      0.00000000 </i>
   <i name="nosepot">      0.00000000 </i>
   <i name="nosekinetic">      0.00000781 </i>
   <i name="total">    -23.96734254 </i>
  </energy>
  <dos>
   <i name="efermi">     -9.12030856 </i>
   <total>
    <array>
     <dimension dim="1">gridpoints</dimension>
     <dimension dim="2">spin</dimension>
     <field>energy</field>
     <field>total</field>
     <field>integrated</field>
     <set>
      <set comment="spin 1">
       <r>   -18.9378     0.0000     0.0000 </r>
       <r>   -18.8655     0.0000     0.0000 </r>
       <r>   -18.7933     0.0000     0.0000 </r>
       <r>   -18.7211     0.0000     0.0000 </r>
       <r>   -18.6489     0.0000     0.0000 </r>
       <r>   -18.5767    -0.0000    -0.0000 </r>
       <r>   -18.5045    -0.0000    -0.0000 </r>
       <r>   -18.4323    -0.0000    -0.0000 </r>
       <r>   -18.3601    -0.0000    -0.0000 </r>
       <r>   -18.2879    -0.0000    -0.0000 </r>
       <r>   -18.2157    -0.0000    -0.0000 </r>
       <r>   -18.1435    -0.0000    -0.0000 </r>
       <r>   -18.0713    -0.0000    -0.0000 </r>
       <r>   -17.9991    -0.0000    -0.0000 </r>
       <r>   -17.9269    -0.0000    -0.0000 </r>
       <r>   -17.8547    -0.0000    -0.0000 </r>
       <r>   -17.7825    -0.0000    -0.0000 </r>
       <r>   -17.7103    -0.0000    -0.0000 </r>
       <r>   -17.6381    -0.0001    -0.0000 </r>
       <r>   -17.5659    -0.0010    -0.0001 </r>
       <r>   -17.4937    -0.0073    -0.0006 </r>
       <r>   -17.4215    -0.0374    -0.0033 </r>
       <r>   -17.3493    -0.1372    -0.0132 </r>
       <r>   -17.2771    -0.3348    -0.0374 </r>
       <r>   -17.2048    -0.4194    -0.0677 </r>
       <r>   -17.1326     0.3197    -0.0446 </r>
       <r>   -17.0604     2.6663     0.1479 </r>
       <r>   -16.9882     6.0839     0.5872 </r>
       <r>   -16.9160     8.2419     1.1823 </r>
       <r>   -16.8438     7.2488     1.7057 </r>
       <r>   -16.7716     4.0047     1.9949 </r>
       <r>   -16.6994     1.0482     2.0706 </r>
       <r>   -16.6272    -0.2775     2.0505 </r>
       <r>   -16.5550    -0.4099     2.0209 </r>
       <r>   -16.4828    -0.2071     2.0060 </r>
       <r>   -16.4106    -0.0656     2.0012 </r>
       <r>   -16.3384    -0.0145     2.0002 </r>
       <r>   -16.2662    -0.0023     2.0000 </r>
       <r>   -16.1940    -0.0003     2.0000 </r>
       <r>   -16.1218    -0.0000     2.0000 </r>
       <r>   -16.0496    -0.0000     2.0000 </r>
       <r>   -15.9774    -0.0000     2.0000 </r>
       <r>   -15.9052    -0.0000     2.0000 </r>
       <r>   -15.8330    -0.0000     2.0000 </r>
       <r>   -15.7608    -0.0000     2.0000 </r>
       <r>   -15.6886    -0.0000     2.0000 </r>
       <r>   -15.6163     0.0000     2.0000 </r>
       <r>   -15.5441     0.0000     2.0000 </r>
       <r>   -15.4719     0.0000     2.0000 </r>
       <r>   -15.3997     0.0000     2.0000 </r>
       <r>   -15.3275     0.0000     2.0000 </r>
       <r>   -15.2553     0.0000     2.0000 </r>
       <r>   -15.1831     0.0000     2.0000 </r>
       <r>   -15.1109     0.0000     2.0000 </r>
       <r>   -15.0387     0.0000     2.0000 </r>
       <r>   -14.9665     0.0000     2.0000 </r>
       <r>   -14.8943     0.0000     2.0000 </r>
       <r>   -14.8221     0.0000     2.0000 </r>
       <r>   -14.7499     0.0000     2.0000 </r>
       <r>   -14.6777     0.0000     2.0000 </r>
       <r>   -14.6055     0.0000     2.0000 </r>
       <r>   -14.5333     0.0000     2.0000 </r>
       <r>   -14.4611     0.0000     2.0000 </r>
       <r>   -14.3889     0.0000     2.0000 </r>
       <r>   -14.3167     0.0000     2.0000 </r>
       <r>   -14.2445     0.0000     2.0000 </r>
       <r>   -14.1723     0.0000     2.0000 </r>
       <r>   -14.1001     0.0000     2.0000 </r>
       <r>   -14.0278     0.0000     2.0000 </r>
       <r>   -13.9556     0.0000     2.0000 </r>
       <r>   -13.8834     0.0000     2.0000 </r>
       <r>   -13.8112     0.0000     2.0000 </r>
       <r>   -13.7390     0.0000     2.0000 </r>
       <r>   -13.6668     0.0000     2.0000 </r>
       <r>   -13.5946     0.0000     2.0000 </r>
       <r>   -13.5224     0.0000     2.0000 </r>
       <r>   -13.4502     0.0000     2.0000 </r>
       <r>   -13.3780     0.0000     2.0000 </r>
       <r>   -13.3058     0.0000     2.0000 </r>
       <r>   -13.2336     0.0000     2.0000 </r>
       <r>   -13.1614     0.0000     2.0000 </r>
       <r>   -13.0892     0.0000     2.0000 </r>
       <r>   -13.0170     0.0000     2.0000 </r>
       <r>   -12.9448     0.0000     2.0000 </r>
       <r>   -12.8726     0.0000     2.0000 </r>
       <r>   -12.8004     0.0000     2.0000 </r>
       <r>   -12.7282     0.0000     2.0000 </r>
       <r>   -12.6560     0.0000     2.0000 </r>
       <r>   -12.5838     0.0000     2.0000 </r>
       <r>   -12.5116     0.0000     2.0000 </r>
       <r>   -12.4393     0.0000     2.0000 </r>
       <r>   -12.3671     0.0000     2.0000 </r>
       <r>   -12.2949     0.0000     2.0000 </r>
       <r>   -12.2227     0.0000     2.0000 </r>
       <r>   -12.1505     0.0000     2.0000 </r>
       <r>   -12.0783     0.0000     2.0000 </r>
       <r>   -12.0061     0.0000     2.0000 </r>
       <r>   -11.9339     0.0000     2.0000 </r>
       <r>   -11.8617     0.0000     2.0000 </r>
       <r>   -11.7895     0.0000     2.0000 </r>
       <r>   -11.7173     0.0000     2.0000 </r>
       <r>   -11.6451     0.0000     2.0000 </r>
       <r>   -11.5729     0.0000     2.0000 </r>
       <r>   -11.5007     0.0000     2.0000 </r>
       <r>   -11.4285     0.0000     2.0000 </r>
       <r>   -11.3563     0.0000     2.0000 </r>
       <r>   -11.2841     0.0000     2.0000 </r>
       <r>   -11.2119     0.0000     2.0000 </r>
       <r>   -11.1397     0.0000     2.0000 </r>
       <r>   -11.0675     0.0000     2.0000 </r>
       <r>   -10.9953    -0.0000     2.0000 </r>
       <r>   -10.9231    -0.0000     2.0000 </r>
       <r>   -10.8508    -0.0000     2.0000 </r>
       <r>   -10.7786    -0.0000     2.0000 </r>
       <r>   -10.7064    -0.0000     2.0000 </r>
       <r>   -10.6342    -0.0000     2.0000 </r>
       <r>   -10.5620    -0.0000     2.0000 </r>
       <r>   -10.4898    -0.0000     2.0000 </r>
       <r>   -10.4176    -0.0000     2.0000 </r>
       <r>   -10.3454    -0.0000     2.0000 </r>
       <r>   -10.2732    -0.0000     2.0000 </r>
       <r>   -10.2010    -0.0000     2.0000 </r>
       <r>   -10.1288    -0.0000     2.0000 </r>
       <r>   -10.0566    -0.0001     2.0000 </r>
       <r>    -9.9844    -0.0010     1.9999 </r>
       <r>    -9.9122    -0.0075     1.9994 </r>
       <r>    -9.8400    -0.0433     1.9963 </r>
       <r>    -9.7678    -0.1843     1.9830 </r>
       <r>    -9.6956    -0.5548     1.9429 </r>
       <r>    -9.6234    -1.0605     1.8663 </r>
       <r>    -9.5512    -0.7013     1.8157 </r>
       <r>    -9.4790     2.6784     2.0091 </r>
       <r>    -9.4068    10.4009     2.7601 </r>
       <r>    -9.3346    19.5793     4.1738 </r>
       <r>    -9.2623    23.7427     5.8881 </r>
       <r>    -9.1901    19.3528     7.2855 </r>
       <r>    -9.1179    10.0830     8.0135 </r>
       <r>    -9.0457     2.4356     8.1894 </r>
       <r>    -8.9735    -0.8020     8.1315 </r>
       <r>    -8.9013    -1.0666     8.0545 </r>
       <r>    -8.8291    -0.5360     8.0158 </r>
       <r>    -8.7569    -0.1719     8.0033 </r>
       <r>    -8.6847    -0.0389     8.0005 </r>
       <r>    -8.6125    -0.0065     8.0001 </r>
       <r>    -8.5403    -0.0008     8.0000 </r>
       <r>    -8.4681    -0.0001     8.0000 </r>
       <r>    -8.3959    -0.0000     8.0000 </r>
       <r>    -8.3237    -0.0000     8.0000 </r>
       <r>    -8.2515    -0.0000     8.0000 </r>
       <r>    -8.1793    -0.0000     8.0000 </r>
       <r>    -8.1071    -0.0000     8.0000 </r>
       <r>    -8.0349    -0.0000     8.0000 </r>
       <r>    -7.9627     0.0000     8.0000 </r>
       <r>    -7.8905     0.0000     8.0000 </r>
       <r>    -7.8183     0.0000     8.0000 </r>
       <r>    -7.7461     0.0000     8.0000 </r>
       <r>    -7.6738     0.0000     8.0000 </r>
       <r>    -7.6016     0.0000     8.0000 </r>
       <r>    -7.5294     0.0000     8.0000 </r>
       <r>    -7.4572     0.0000     8.0000 </r>
       <r>    -7.3850     0.0000     8.0000 </r>
       <r>    -7.3128     0.0000     8.0000 </r>
       <r>    -7.2406     0.0000     8.0000 </r>
       <r>    -7.1684     0.0000     8.0000 </r>
       <r>    -7.0962     0.0000     8.0000 </r>
       <r>    -7.0240     0.0000     8.0000 </r>
       <r>    -6.9518     0.0000     8.0000 </r>
       <r>    -6.8796     0.0000     8.0000 </r>
       <r>    -6.8074     0.0000     8.0000 </r>
       <r>    -6.7352     0.0000     8.0000 </r>
       <r>    -6.6630     0.0000     8.0000 </r>
       <r>    -6.5908     0.0000     8.0000 </r>
       <r>    -6.5186     0.0000     8.0000 </r>
       <r>    -6.4464     0.0000     8.0000 </r>
       <r>    -6.3742     0.0000     8.0000 </r>
       <r>    -6.3020     0.0000     8.0000 </r>
       <r>    -6.2298     0.0000     8.0000 </r>
       <r>    -6.1576     0.0000     8.0000 </r>
       <r>    -6.0853     0.0000     8.0000 </r>
       <r>    -6.0131     0.0000     8.0000 </r>
       <r>    -5.9409     0.0000     8.0000 </r>
       <r>    -5.8687     0.0000     8.0000 </r>
       <r>    -5.7965     0.0000     8.0000 </r>
       <r>    -5.7243     0.0000     8.0000 </r>
       <r>    -5.6521     0.0000     8.0000 </r>
       <r>    -5.5799     0.0000     8.0000 </r>
       <r>    -5.5077     0.0000     8.0000 </r>
       <r>    -5.4355     0.0000     8.0000 </r>
       <r>    -5.3633     0.0000     8.0000 </r>
       <r>    -5.2911     0.0000     8.0000 </r>
       <r>    -5.2189     0.0000     8.0000 </r>
       <r>    -5.1467     0.0000     8.0000 </r>
       <r>    -5.0745     0.0000     8.0000 </r>
       <r>    -5.0023     0.0000     8.0000 </r>
       <r>    -4.9301     0.0000     8.0000 </r>
       <r>    -4.8579     0.0000     8.0000 </r>
       <r>    -4.7857     0.0000     8.0000 </r>
       <r>    -4.7135     0.0000     8.0000 </r>
       <r>    -4.6413     0.0000     8.0000 </r>
       <r>    -4.5691     0.0000     8.0000 </r>
       <r>    -4.4968     0.0000     8.0000 </r>
       <r>    -4.4246     0.0000     8.0000 </r>
       <r>    -4.3524     0.0000     8.0000 </r>
       <r>    -4.2802     0.0000     8.0000 </r>
       <r>    -4.2080     0.0000     8.0000 </r>
       <r>    -4.1358     0.0000     8.0000 </r>
       <r>    -4.0636     0.0000     8.0000 </r>
       <r>    -3.9914     0.0000     8.0000 </r>
       <r>    -3.9192     0.0000     8.0000 </r>
       <r>    -3.8470     0.0000     8.0000 </r>
       <r>    -3.7748     0.0000     8.0000 </r>
       <r>    -3.7026     0.0000     8.0000 </r>
       <r>    -3.6304     0.0000     8.0000 </r>
       <r>    -3.5582     0.0000     8.0000 </r>
       <r>    -3.4860     0.0000     8.0000 </r>
       <r>    -3.4138     0.0000     8.0000 </r>
       <r>    -3.3416     0.0000     8.0000 </r>
       <r>    -3.2694     0.0000     8.0000 </r>
       <r>    -3.1972     0.0000     8.0000 </r>
       <r>    -3.1250     0.0000     8.0000 </r>
       <r>    -3.0528     0.0000     8.0000 </r>
       <r>    -2.9806     0.0000     8.0000 </r>
       <r>    -2.9083     0.0000     8.0000 </r>
       <r>    -2.8361     0.0000     8.0000 </r>
       <r>    -2.7639     0.0000     8.0000 </r>
       <r>    -2.6917     0.0000     8.0000 </r>
       <r>    -2.6195     0.0000     8.0000 </r>
       <r>    -2.5473     0.0000     8.0000 </r>
       <r>    -2.4751     0.0000     8.0000 </r>
       <r>    -2.4029     0.0000     8.0000 </r>
       <r>    -2.3307     0.0000     8.0000 </r>
       <r>    -2.2585     0.0000     8.0000 </r>
       <r>    -2.1863     0.0000     8.0000 </r>
       <r>    -2.1141     0.0000     8.0000 </r>
       <r>    -2.0419     0.0000     8.0000 </r>
       <r>    -1.9697    -0.0000     8.0000 </r>
       <r>    -1.8975    -0.0000     8.0000 </r>
       <r>    -1.8253    -0.0000     8.0000 </r>
       <r>    -1.7531    -0.0000     8.0000 </r>
       <r>    -1.6809    -0.0000     8.0000 </r>
       <r>    -1.6087    -0.0000     8.0000 </r>
       <r>    -1.5365    -0.0000     8.0000 </r>
       <r>    -1.4643    -0.0000     8.0000 </r>
       <r>    -1.3921    -0.0000     8.0000 </r>
       <r>    -1.3198    -0.0000     8.0000 </r>
       <r>    -1.2476    -0.0000     8.0000 </r>
       <r>    -1.1754    -0.0000     8.0000 </r>
       <r>    -1.1032    -0.0000     8.0000 </r>
       <r>    -1.0310    -0.0001     8.0000 </r>
       <r>    -0.9588    -0.0005     8.0000 </r>
       <r>    -0.8866    -0.0040     7.9997 </r>
       <r>    -0.8144    -0.0229     7.9980 </r>
       <r>    -0.7422    -0.0942     7.9912 </r>
       <r>    -0.6700    -0.2652     7.9721 </r>
       <r>    -0.5978    -0.4371     7.9405 </r>
       <r>    -0.5256    -0.0648     7.9358 </r>
       <r>    -0.4534     1.7313     8.0608 </r>
       <r>    -0.3812     4.9917     8.4213 </r>
       <r>    -0.3090     7.8455     8.9877 </r>
       <r>    -0.2368     7.9128     9.5591 </r>
       <r>    -0.1646     5.1323     9.9297 </r>
       <r>    -0.0924     1.8396    10.0625 </r>
       <r>    -0.0202    -0.0281    10.0605 </r>
       <r>     0.0520    -0.4558    10.0275 </r>
       <r>     0.1242    -0.3560    10.0018 </r>
       <r>     0.1964    -0.3775     9.9746 </r>
       <r>     0.2687    -0.6706     9.9262 </r>
       <r>     0.3409    -0.8341     9.8659 </r>
       <r>     0.4131     0.3445     9.8908 </r>
       <r>     0.4853     4.4631    10.2131 </r>
       <r>     0.5575    11.6782    11.0563 </r>
       <r>     0.6297    19.0177    12.4295 </r>
       <r>     0.7019    21.7323    13.9986 </r>
       <r>     0.7741    17.6274    15.2714 </r>
       <r>     0.8463     9.5956    15.9643 </r>
       <r>     0.9185     2.7154    16.1603 </r>
       <r>     0.9907    -0.4942    16.1246 </r>
       <r>     1.0629    -0.9571    16.0555 </r>
       <r>     1.1351    -0.5318    16.0171 </r>
       <r>     1.2073    -0.1838    16.0039 </r>
       <r>     1.2795    -0.0445    16.0007 </r>
       <r>     1.3517    -0.0079    16.0001 </r>
       <r>     1.4239    -0.0010    16.0000 </r>
       <r>     1.4961    -0.0001    16.0000 </r>
       <r>     1.5683    -0.0000    16.0000 </r>
       <r>     1.6405    -0.0000    16.0000 </r>
       <r>     1.7127    -0.0000    16.0000 </r>
       <r>     1.7849    -0.0000    16.0000 </r>
       <r>     1.8571    -0.0000    16.0000 </r>
       <r>     1.9294    -0.0000    16.0000 </r>
       <r>     2.0016    -0.0000    16.0000 </r>
       <r>     2.0738     0.0000    16.0000 </r>
       <r>     2.1460     0.0000    16.0000 </r>
       <r>     2.2182     0.0000    16.0000 </r>
       <r>     2.2904     0.0000    16.0000 </r>
       <r>     2.3626     0.0000    16.0000 </r>
       <r>     2.4348     0.0000    16.0000 </r>
       <r>     2.5070     0.0000    16.0000 </r>
       <r>     2.5792     0.0000    16.0000 </r>
       <r>     2.6514     0.0000    16.0000 </r>
       <r>     2.7236     0.0000    16.0000 </r>
      </set>
     </set>
    </array>
   </total>
  </dos>
  <time name="totalsc">   93.72   93.95</time>
 </calculation>
 <calculation>
  <scstep>
   <time name="dav">    2.09    2.10</time>
   <time name="total">    4.11    4.12</time>
   <energy>
    <i name="alphaZ">      0.24545632 </i>
    <i name="ewald">    124.68373284 </i>
    <i name="hartreedc">   -282.29616759 </i>
    <i name="XCdc">     24.65973311 </i>
    <i name="pawpsdc">    426.69670440 </i>
    <i name="pawaedc">   -427.48746434 </i>
    <i name="eentropy">      0.04091202 </i>
    <i name="bandstr">    -87.63601253 </i>
    <i name="atom">    197.04175453 </i>
    <i name="e_fr_energy">    -24.05135124 </i>
    <i name="e_wo_entrp">    -24.09226327 </i>
    <i name="e_0_energy">    -24.06498858 </i>
   </energy>
  </scstep>
  <scstep>
   <time name="diag">    0.47    0.47</time>
   <time name="diis">    1.53    1.53</time>
   <time name="orth">    0.01    0.01</time>
   <time name="total">    3.74    3.75</time>
   <energy>
    <i name="e_fr_energy">    -24.06700401 </i>
    <i name="e_wo_entrp">    -24.09840325 </i>
    <i name="e_0_energy">    -24.07747043 </i>
   </energy>
  </scstep>
  <scstep>
   <time name="diag">    0.48    0.48</time>
   <time name="diis">    1.50    1.50</time>
   <time name="orth">    0.01    0.01</time>
   <time name="total">    3.77    3.78</time>
   <energy>
    <i name="e_fr_energy">    -24.08135152 </i>
    <i name="e_wo_entrp">    -24.11612759 </i>
    <i name="e_0_energy">    -24.09294354 </i>
   </energy>
  </scstep>
  <scstep>
   <time name="diag">    0.47    0.47</time>
   <time name="diis">    1.49    1.50</time>
   <time name="orth">    0.01    0.01</time>
   <time name="total">    3.74    3.75</time>
   <energy>
    <i name="e_fr_energy">    -24.04152528 </i>
    <i name="e_wo_entrp">    -24.08231150 </i>
    <i name="e_0_energy">    -24.05512069 </i>
   </energy>
  </scstep>
  <scstep>
   <time name="diag">    0.46    0.46</time>
   <time name="diis">    1.47    1.48</time>
   <time name="orth">    0.01    0.01</time>
   <time name="total">    3.77    3.78</time>
   <energy>
    <i name="e_fr_energy">    -24.03772851 </i>
    <i name="e_wo_entrp">    -24.07583280 </i>
    <i name="e_0_energy">    -24.05042994 </i>
   </energy>
  </scstep>
  <scstep>
   <time name="diag">    0.47    0.47</time>
   <time name="diis">    1.46    1.47</time>
   <time name="orth">    0.01    0.01</time>
   <time name="total">    3.78    3.79</time>
   <energy>
    <i name="e_fr_energy">    -24.03799707 </i>
    <i name="e_wo_entrp">    -24.07682684 </i>
    <i name="e_0_energy">    -24.05094033 </i>
   </energy>
  </scstep>
  <scstep>
   <time name="diag">    0.45    0.45</time>
   <time name="diis">    1.47    1.48</time>
   <time name="orth">    0.01    0.01</time>
   <time name="total">    3.77    3.78</time>
   <energy>
    <i name="e_fr_energy">    -24.03725138 </i>
    <i name="e_wo_entrp">    -24.07527397 </i>
    <i name="e_0_energy">    -24.04992558 </i>
   </energy>
  </scstep>
  <scstep>
   <time name="diag">    0.44    0.44</time>
   <time name="diis">    1.52    1.53</time>
   <time name="orth">    0.01    0.01</time>
   <time name="total">    3.80    3.81</time>
   <energy>
    <i name="e_fr_energy">    -24.03665642 </i>
    <i name="e_wo_entrp">    -24.07385245 </i>
    <i name="e_0_energy">    -24.04905510 </i>
   </energy>
  </scstep>
  <scstep>
   <time name="diag">    0.43    0.43</time>
   <time name="diis">    1.55    1.55</time>
   <time name="orth">    0.01    0.01</time>
   <time name="total">    3.80    3.81</time>
   <energy>
    <i name="e_fr_energy">    -24.03669524 </i>
    <i name="e_wo_entrp">    -24.07395743 </i>
    <i name="e_0_energy">    -24.04911597 </i>
   </energy>
  </scstep>
  <scstep>
   <time name="diag">    0.45    0.45</time>
   <time name="diis">    1.56    1.56</time>
   <time name="orth">    0.01    0.01</time>
   <time name="total">    3.82    3.83</time>
   <energy>
    <i name="e_fr_energy">    -24.03676448 </i>
    <i name="e_wo_entrp">    -24.07402837 </i>
    <i name="e_0_energy">    -24.04918578 </i>
   </energy>
  </scstep>
  <scstep>
   <time name="diag">    0.44    0.44</time>
   <time name="diis">    1.56    1.56</time>
   <time name="orth">    0.01    0.01</time>
   <time name="total">    3.83    3.84</time>
   <energy>
    <i name="e_fr_energy">    -24.03679166 </i>
    <i name="e_wo_entrp">    -24.07402609 </i>
    <i name="e_0_energy">    -24.04920313 </i>
   </energy>
  </scstep>
  <scstep>
   <time name="diag">    0.45    0.45</time>
   <time name="diis">    1.39    1.39</time>
   <time name="orth">    0.01    0.01</time>
   <time name="total">    3.65    3.66</time>
   <energy>
    <i name="e_fr_energy">    -24.03681270 </i>
    <i name="e_wo_entrp">    -24.07403766 </i>
    <i name="e_0_energy">    -24.04922102 </i>
   </energy>
  </scstep>
  <scstep>
   <time name="diag">    0.44    0.44</time>
   <time name="diis">    1.54    1.54</time>
   <time name="orth">    0.01    0.01</time>
   <time name="total">    3.79    3.80</time>
   <energy>
    <i name="e_fr_energy">    -24.03682297 </i>
    <i name="e_wo_entrp">    -24.07406604 </i>
    <i name="e_0_energy">    -24.04923733 </i>
   </energy>
  </scstep>
  <scstep>
   <time name="diag">    0.45    0.46</time>
   <time name="diis">    1.41    1.41</time>
   <time name="orth">    0.01    0.01</time>
   <time name="total">    3.70    3.71</time>
   <energy>
    <i name="e_fr_energy">    -24.03682627 </i>
    <i name="e_wo_entrp">    -24.07405675 </i>
    <i name="e_0_energy">    -24.04923643 </i>
   </energy>
  </scstep>
  <scstep>
   <time name="diag">    0.46    0.46</time>
   <time name="diis">    1.19    1.19</time>
   <time name="orth">    0.01    0.01</time>
   <time name="total">    3.53    3.53</time>
   <energy>
    <i name="e_fr_energy">    -24.03683042 </i>
    <i name="e_wo_entrp">    -24.07406133 </i>
    <i name="e_0_energy">    -24.04924072 </i>
   </energy>
  </scstep>
  <scstep>
   <time name="diag">    0.46    0.46</time>
   <time name="diis">    1.19    1.20</time>
   <time name="orth">    0.01    0.01</time>
   <time name="total">    3.54    3.54</time>
   <energy>
    <i name="e_fr_energy">    -24.03683143 </i>
    <i name="e_wo_entrp">    -24.07406483 </i>
    <i name="e_0_energy">    -24.04924256 </i>
   </energy>
  </scstep>
  <scstep>
   <time name="diag">    0.47    0.47</time>
   <time name="diis">    1.18    1.18</time>
   <time name="orth">    0.01    0.01</time>
   <time name="total">    3.27    3.28</time>
   <energy>
    <i name="alphaZ">      0.24545632 </i>
    <i name="ewald">    124.68373284 </i>
    <i name="hartreedc">   -280.93201142 </i>
    <i name="XCdc">     24.58179478 </i>
    <i name="pawpsdc">    398.93211484 </i>
    <i name="pawaedc">   -399.70757408 </i>
    <i name="eentropy">      0.03723576 </i>
    <i name="bandstr">    -88.91933595 </i>
    <i name="atom">    197.04175453 </i>
    <i name="e_fr_energy">    -24.03683237 </i>
    <i name="e_wo_entrp">    -24.07406813 </i>
    <i name="e_0_energy">    -24.04924429 </i>
   </energy>
  </scstep>
  <structure>
   <crystal>
    <varray name="basis" >
     <v>      10.07603014       0.00000000       0.00000000 </v>
     <v>      -0.02272580       9.78926824       0.00000000 </v>
     <v>       0.21618129      -0.24596283      10.00578814 </v>
    </varray>
    <i name="volume">    986.94054337 </i>
    <varray name="rec_basis" >
     <v>       0.09924544       0.00023040      -0.00213860 </v>
     <v>      -0.00000000       0.10215268       0.00251112 </v>
     <v>       0.00000000      -0.00000000       0.09994215 </v>
    </varray>
   </crystal>
   <varray name="positions" >
    <v>       0.53803868       0.40574721       0.35653495 </v>
    <v>       0.39435135       0.48061374       0.44089876 </v>
    <v>       0.55334511       0.56866935       0.44555060 </v>
    <v>       0.52748554       0.41453244       0.53931661 </v>
    <v>       0.50283108       0.46711021       0.44542970 </v>
   </varray>
  </structure>
  <varray name="forces" >
   <v>      -0.57332269       0.41156717       0.29160181 </v>
   <v>       0.26591442      -0.44513772      -0.01179294 </v>
   <v>       0.08350362      -0.34395908       0.17388498 </v>
   <v>       0.06356651       0.25842435      -0.43346102 </v>
   <v>      -0.41266003       0.78507625      -0.72199911 </v>
  </varray>
  <varray name="stress" >
   <v>      -0.88258316       0.04536958       0.25027716 </v>
   <v>       0.04536957      -1.91001895       0.22323594 </v>
   <v>       0.25027716       0.22323594      -1.45893519 </v>
  </varray>
  <energy>
   <i name="e_fr_energy">    -24.03683237 </i>
   <i name="e_wo_entrp">    -24.04924429 </i>
   <i name="e_0_energy">      0.03723576 </i>
   <i name="kinetic">      0.05180941 </i>
   <i name="lattice kinetic">      0.00000000 </i>
   <i name="nosepot">      0.00019923 </i>
   <i name="nosekinetic">      0.00021335 </i>
   <i name="total">    -23.98461038 </i>
  </energy>
  <dos>
   <i name="efermi">     -9.04874634 </i>
   <total>
    <array>
     <dimension dim="1">gridpoints</dimension>
     <dimension dim="2">spin</dimension>
     <field>energy</field>
     <field>total</field>
     <field>integrated</field>
     <set>
      <set comment="spin 1">
       <r>   -18.7832     0.0000     0.0000 </r>
       <r>   -18.7115     0.0000     0.0000 </r>
       <r>   -18.6399     0.0000     0.0000 </r>
       <r>   -18.5682     0.0000     0.0000 </r>
       <r>   -18.4966     0.0000     0.0000 </r>
       <r>   -18.4249    -0.0000    -0.0000 </r>
       <r>   -18.3533    -0.0000    -0.0000 </r>
       <r>   -18.2816    -0.0000    -0.0000 </r>
       <r>   -18.2100    -0.0000    -0.0000 </r>
       <r>   -18.1383    -0.0000    -0.0000 </r>
       <r>   -18.0666    -0.0000    -0.0000 </r>
       <r>   -17.9950    -0.0000    -0.0000 </r>
       <r>   -17.9233    -0.0000    -0.0000 </r>
       <r>   -17.8517    -0.0000    -0.0000 </r>
       <r>   -17.7800    -0.0000    -0.0000 </r>
       <r>   -17.7084    -0.0000    -0.0000 </r>
       <r>   -17.6367    -0.0000    -0.0000 </r>
       <r>   -17.5651    -0.0000    -0.0000 </r>
       <r>   -17.4934    -0.0001    -0.0000 </r>
       <r>   -17.4218    -0.0008    -0.0001 </r>
       <r>   -17.3501    -0.0055    -0.0005 </r>
       <r>   -17.2784    -0.0295    -0.0026 </r>
       <r>   -17.2068    -0.1136    -0.0107 </r>
       <r>   -17.1351    -0.2976    -0.0320 </r>
       <r>   -17.0635    -0.4380    -0.0634 </r>
       <r>   -16.9918     0.0740    -0.0581 </r>
       <r>   -16.9202     2.0794     0.0909 </r>
       <r>   -16.8485     5.4059     0.4782 </r>
       <r>   -16.7769     8.0242     1.0532 </r>
       <r>   -16.7052     7.7338     1.6074 </r>
       <r>   -16.6335     4.7963     1.9510 </r>
       <r>   -16.5619     1.6023     2.0659 </r>
       <r>   -16.4902    -0.1042     2.0584 </r>
       <r>   -16.4186    -0.4363     2.0271 </r>
       <r>   -16.3469    -0.2597     2.0085 </r>
       <r>   -16.2753    -0.0920     2.0019 </r>
       <r>   -16.2036    -0.0225     2.0003 </r>
       <r>   -16.1320    -0.0040     2.0000 </r>
       <r>   -16.0603    -0.0005     2.0000 </r>
       <r>   -15.9887    -0.0001     2.0000 </r>
       <r>   -15.9170    -0.0000     2.0000 </r>
       <r>   -15.8453    -0.0000     2.0000 </r>
       <r>   -15.7737    -0.0000     2.0000 </r>
       <r>   -15.7020    -0.0000     2.0000 </r>
       <r>   -15.6304    -0.0000     2.0000 </r>
       <r>   -15.5587    -0.0000     2.0000 </r>
       <r>   -15.4871     0.0000     2.0000 </r>
       <r>   -15.4154     0.0000     2.0000 </r>
       <r>   -15.3438     0.0000     2.0000 </r>
       <r>   -15.2721     0.0000     2.0000 </r>
       <r>   -15.2005     0.0000     2.0000 </r>
       <r>   -15.1288     0.0000     2.0000 </r>
       <r>   -15.0571     0.0000     2.0000 </r>
       <r>   -14.9855     0.0000     2.0000 </r>
       <r>   -14.9138     0.0000     2.0000 </r>
       <r>   -14.8422     0.0000     2.0000 </r>
       <r>   -14.7705     0.0000     2.0000 </r>
       <r>   -14.6989     0.0000     2.0000 </r>
       <r>   -14.6272     0.0000     2.0000 </r>
       <r>   -14.5556     0.0000     2.0000 </r>
       <r>   -14.4839     0.0000     2.0000 </r>
       <r>   -14.4122     0.0000     2.0000 </r>
       <r>   -14.3406     0.0000     2.0000 </r>
       <r>   -14.2689     0.0000     2.0000 </r>
       <r>   -14.1973     0.0000     2.0000 </r>
       <r>   -14.1256     0.0000     2.0000 </r>
       <r>   -14.0540     0.0000     2.0000 </r>
       <r>   -13.9823     0.0000     2.0000 </r>
       <r>   -13.9107     0.0000     2.0000 </r>
       <r>   -13.8390     0.0000     2.0000 </r>
       <r>   -13.7674     0.0000     2.0000 </r>
       <r>   -13.6957     0.0000     2.0000 </r>
       <r>   -13.6240     0.0000     2.0000 </r>
       <r>   -13.5524     0.0000     2.0000 </r>
       <r>   -13.4807     0.0000     2.0000 </r>
       <r>   -13.4091     0.0000     2.0000 </r>
       <r>   -13.3374     0.0000     2.0000 </r>
       <r>   -13.2658     0.0000     2.0000 </r>
       <r>   -13.1941     0.0000     2.0000 </r>
       <r>   -13.1225     0.0000     2.0000 </r>
       <r>   -13.0508     0.0000     2.0000 </r>
       <r>   -12.9791     0.0000     2.0000 </r>
       <r>   -12.9075     0.0000     2.0000 </r>
       <r>   -12.8358     0.0000     2.0000 </r>
       <r>   -12.7642     0.0000     2.0000 </r>
       <r>   -12.6925     0.0000     2.0000 </r>
       <r>   -12.6209     0.0000     2.0000 </r>
       <r>   -12.5492     0.0000     2.0000 </r>
       <r>   -12.4776     0.0000     2.0000 </r>
       <r>   -12.4059     0.0000     2.0000 </r>
       <r>   -12.3343     0.0000     2.0000 </r>
       <r>   -12.2626     0.0000     2.0000 </r>
       <r>   -12.1909     0.0000     2.0000 </r>
       <r>   -12.1193     0.0000     2.0000 </r>
       <r>   -12.0476     0.0000     2.0000 </r>
       <r>   -11.9760     0.0000     2.0000 </r>
       <r>   -11.9043     0.0000     2.0000 </r>
       <r>   -11.8327     0.0000     2.0000 </r>
       <r>   -11.7610     0.0000     2.0000 </r>
       <r>   -11.6894     0.0000     2.0000 </r>
       <r>   -11.6177     0.0000     2.0000 </r>
       <r>   -11.5460     0.0000     2.0000 </r>
       <r>   -11.4744     0.0000     2.0000 </r>
       <r>   -11.4027     0.0000     2.0000 </r>
       <r>   -11.3311     0.0000     2.0000 </r>
       <r>   -11.2594     0.0000     2.0000 </r>
       <r>   -11.1878     0.0000     2.0000 </r>
       <r>   -11.1161     0.0000     2.0000 </r>
       <r>   -11.0445     0.0000     2.0000 </r>
       <r>   -10.9728     0.0000     2.0000 </r>
       <r>   -10.9012    -0.0000     2.0000 </r>
       <r>   -10.8295    -0.0000     2.0000 </r>
       <r>   -10.7578    -0.0000     2.0000 </r>
       <r>   -10.6862    -0.0000     2.0000 </r>
       <r>   -10.6145    -0.0000     2.0000 </r>
       <r>   -10.5429    -0.0000     2.0000 </r>
       <r>   -10.4712    -0.0000     2.0000 </r>
       <r>   -10.3996    -0.0000     2.0000 </r>
       <r>   -10.3279    -0.0000     2.0000 </r>
       <r>   -10.2563    -0.0000     2.0000 </r>
       <r>   -10.1846    -0.0000     2.0000 </r>
       <r>   -10.1130    -0.0000     2.0000 </r>
       <r>   -10.0413    -0.0000     2.0000 </r>
       <r>    -9.9696    -0.0001     2.0000 </r>
       <r>    -9.8980    -0.0011     1.9999 </r>
       <r>    -9.8263    -0.0083     1.9993 </r>
       <r>    -9.7547    -0.0480     1.9959 </r>
       <r>    -9.6830    -0.2045     1.9812 </r>
       <r>    -9.6114    -0.6129     1.9373 </r>
       <r>    -9.5397    -1.1546     1.8546 </r>
       <r>    -9.4681    -0.7030     1.8042 </r>
       <r>    -9.3964     3.0592     2.0234 </r>
       <r>    -9.3247    11.3170     2.8343 </r>
       <r>    -9.2531    20.6122     4.3113 </r>
       <r>    -9.1814    24.1320     6.0405 </r>
       <r>    -9.1098    18.8702     7.3926 </r>
       <r>    -9.0381     9.2803     8.0576 </r>
       <r>    -8.9665     1.9088     8.1944 </r>
       <r>    -8.8948    -0.9579     8.1257 </r>
       <r>    -8.8232    -1.0524     8.0503 </r>
       <r>    -8.7515    -0.5033     8.0143 </r>
       <r>    -8.6799    -0.1572     8.0030 </r>
       <r>    -8.6082    -0.0351     8.0005 </r>
       <r>    -8.5365    -0.0058     8.0001 </r>
       <r>    -8.4649    -0.0007     8.0000 </r>
       <r>    -8.3932    -0.0001     8.0000 </r>
       <r>    -8.3216    -0.0000     8.0000 </r>
       <r>    -8.2499    -0.0000     8.0000 </r>
       <r>    -8.1783    -0.0000     8.0000 </r>
       <r>    -8.1066    -0.0000     8.0000 </r>
       <r>    -8.0350    -0.0000     8.0000 </r>
       <r>    -7.9633    -0.0000     8.0000 </r>
       <r>    -7.8916     0.0000     8.0000 </r>
       <r>    -7.8200     0.0000     8.0000 </r>
       <r>    -7.7483     0.0000     8.0000 </r>
       <r>    -7.6767     0.0000     8.0000 </r>
       <r>    -7.6050     0.0000     8.0000 </r>
       <r>    -7.5334     0.0000     8.0000 </r>
       <r>    -7.4617     0.0000     8.0000 </r>
       <r>    -7.3901     0.0000     8.0000 </r>
       <r>    -7.3184     0.0000     8.0000 </r>
       <r>    -7.2468     0.0000     8.0000 </r>
       <r>    -7.1751     0.0000     8.0000 </r>
       <r>    -7.1034     0.0000     8.0000 </r>
       <r>    -7.0318     0.0000     8.0000 </r>
       <r>    -6.9601     0.0000     8.0000 </r>
       <r>    -6.8885     0.0000     8.0000 </r>
       <r>    -6.8168     0.0000     8.0000 </r>
       <r>    -6.7452     0.0000     8.0000 </r>
       <r>    -6.6735     0.0000     8.0000 </r>
       <r>    -6.6019     0.0000     8.0000 </r>
       <r>    -6.5302     0.0000     8.0000 </r>
       <r>    -6.4585     0.0000     8.0000 </r>
       <r>    -6.3869     0.0000     8.0000 </r>
       <r>    -6.3152     0.0000     8.0000 </r>
       <r>    -6.2436     0.0000     8.0000 </r>
       <r>    -6.1719     0.0000     8.0000 </r>
       <r>    -6.1003     0.0000     8.0000 </r>
       <r>    -6.0286     0.0000     8.0000 </r>
       <r>    -5.9570     0.0000     8.0000 </r>
       <r>    -5.8853     0.0000     8.0000 </r>
       <r>    -5.8137     0.0000     8.0000 </r>
       <r>    -5.7420     0.0000     8.0000 </r>
       <r>    -5.6703     0.0000     8.0000 </r>
       <r>    -5.5987     0.0000     8.0000 </r>
       <r>    -5.5270     0.0000     8.0000 </r>
       <r>    -5.4554     0.0000     8.0000 </r>
       <r>    -5.3837     0.0000     8.0000 </r>
       <r>    -5.3121     0.0000     8.0000 </r>
       <r>    -5.2404     0.0000     8.0000 </r>
       <r>    -5.1688     0.0000     8.0000 </r>
       <r>    -5.0971     0.0000     8.0000 </r>
       <r>    -5.0255     0.0000     8.0000 </r>
       <r>    -4.9538     0.0000     8.0000 </r>
       <r>    -4.8821     0.0000     8.0000 </r>
       <r>    -4.8105     0.0000     8.0000 </r>
       <r>    -4.7388     0.0000     8.0000 </r>
       <r>    -4.6672     0.0000     8.0000 </r>
       <r>    -4.5955     0.0000     8.0000 </r>
       <r>    -4.5239     0.0000     8.0000 </r>
       <r>    -4.4522     0.0000     8.0000 </r>
       <r>    -4.3806     0.0000     8.0000 </r>
       <r>    -4.3089     0.0000     8.0000 </r>
       <r>    -4.2372     0.0000     8.0000 </r>
       <r>    -4.1656     0.0000     8.0000 </r>
       <r>    -4.0939     0.0000     8.0000 </r>
       <r>    -4.0223     0.0000     8.0000 </r>
       <r>    -3.9506     0.0000     8.0000 </r>
       <r>    -3.8790     0.0000     8.0000 </r>
       <r>    -3.8073     0.0000     8.0000 </r>
       <r>    -3.7357     0.0000     8.0000 </r>
       <r>    -3.6640     0.0000     8.0000 </r>
       <r>    -3.5924     0.0000     8.0000 </r>
       <r>    -3.5207     0.0000     8.0000 </r>
       <r>    -3.4490     0.0000     8.0000 </r>
       <r>    -3.3774     0.0000     8.0000 </r>
       <r>    -3.3057     0.0000     8.0000 </r>
       <r>    -3.2341     0.0000     8.0000 </r>
       <r>    -3.1624     0.0000     8.0000 </r>
       <r>    -3.0908     0.0000     8.0000 </r>
       <r>    -3.0191     0.0000     8.0000 </r>
       <r>    -2.9475     0.0000     8.0000 </r>
       <r>    -2.8758     0.0000     8.0000 </r>
       <r>    -2.8041     0.0000     8.0000 </r>
       <r>    -2.7325     0.0000     8.0000 </r>
       <r>    -2.6608     0.0000     8.0000 </r>
       <r>    -2.5892     0.0000     8.0000 </r>
       <r>    -2.5175     0.0000     8.0000 </r>
       <r>    -2.4459     0.0000     8.0000 </r>
       <r>    -2.3742     0.0000     8.0000 </r>
       <r>    -2.3026     0.0000     8.0000 </r>
       <r>    -2.2309     0.0000     8.0000 </r>
       <r>    -2.1593     0.0000     8.0000 </r>
       <r>    -2.0876     0.0000     8.0000 </r>
       <r>    -2.0159     0.0000     8.0000 </r>
       <r>    -1.9443    -0.0000     8.0000 </r>
       <r>    -1.8726    -0.0000     8.0000 </r>
       <r>    -1.8010    -0.0000     8.0000 </r>
       <r>    -1.7293    -0.0000     8.0000 </r>
       <r>    -1.6577    -0.0000     8.0000 </r>
       <r>    -1.5860    -0.0000     8.0000 </r>
       <r>    -1.5144    -0.0000     8.0000 </r>
       <r>    -1.4427    -0.0000     8.0000 </r>
       <r>    -1.3710    -0.0000     8.0000 </r>
       <r>    -1.2994    -0.0000     8.0000 </r>
       <r>    -1.2277    -0.0000     8.0000 </r>
       <r>    -1.1561    -0.0000     8.0000 </r>
       <r>    -1.0844    -0.0000     8.0000 </r>
       <r>    -1.0128    -0.0002     8.0000 </r>
       <r>    -0.9411    -0.0020     7.9998 </r>
       <r>    -0.8695    -0.0125     7.9989 </r>
       <r>    -0.7978    -0.0577     7.9948 </r>
       <r>    -0.7262    -0.1877     7.9814 </r>
       <r>    -0.6545    -0.3920     7.9533 </r>
       <r>    -0.5828    -0.3360     7.9292 </r>
       <r>    -0.5112     0.7900     7.9858 </r>
       <r>    -0.4395     3.5459     8.2399 </r>
       <r>    -0.3679     6.8742     8.7325 </r>
       <r>    -0.2962     8.3059     9.3276 </r>
       <r>    -0.2246     6.5713     9.7985 </r>
       <r>    -0.1529     3.1954    10.0274 </r>
       <r>    -0.0813     0.5958    10.0701 </r>
       <r>    -0.0096    -0.3811    10.0428 </r>
       <r>     0.0620    -0.4040    10.0139 </r>
       <r>     0.1337    -0.2969     9.9926 </r>
       <r>     0.2054    -0.4276     9.9620 </r>
       <r>     0.2770    -0.7468     9.9084 </r>
       <r>     0.3487    -0.6421     9.8624 </r>
       <r>     0.4203     1.2287     9.9505 </r>
       <r>     0.4920     6.1555    10.3916 </r>
       <r>     0.5636    13.5514    11.3626 </r>
       <r>     0.6353    19.9762    12.7940 </r>
       <r>     0.7069    21.1584    14.3101 </r>
       <r>     0.7786    15.9967    15.4563 </r>
       <r>     0.8503     7.9984    16.0294 </r>
       <r>     0.9219     1.8455    16.1617 </r>
       <r>     0.9936    -0.7060    16.1111 </r>
       <r>     1.0652    -0.9002    16.0466 </r>
       <r>     1.1369    -0.4581    16.0138 </r>
       <r>     1.2085    -0.1503    16.0030 </r>
       <r>     1.2802    -0.0350    16.0005 </r>
       <r>     1.3518    -0.0060    16.0001 </r>
       <r>     1.4235    -0.0008    16.0000 </r>
       <r>     1.4951    -0.0001    16.0000 </r>
       <r>     1.5668    -0.0000    16.0000 </r>
       <r>     1.6385    -0.0000    16.0000 </r>
       <r>     1.7101    -0.0000    16.0000 </r>
       <r>     1.7818    -0.0000    16.0000 </r>
       <r>     1.8534    -0.0000    16.0000 </r>
       <r>     1.9251    -0.0000    16.0000 </r>
       <r>     1.9967    -0.0000    16.0000 </r>
       <r>     2.0684     0.0000    16.0000 </r>
       <r>     2.1400     0.0000    16.0000 </r>
       <r>     2.2117     0.0000    16.0000 </r>
       <r>     2.2834     0.0000    16.0000 </r>
       <r>     2.3550     0.0000    16.0000 </r>
       <r>     2.4267     0.0000    16.0000 </r>
       <r>     2.4983     0.0000    16.0000 </r>
       <r>     2.5700     0.0000    16.0000 </r>
       <r>     2.6416     0.0000    16.0000 </r>
       <r>     2.7133     0.0000    16.0000 </r>
      </set>
     </set>
    </array>
   </total>
  </dos>
  <time name="totalsc">   71.14   71.32</time>
 </calculation>
 <calculation>
  <scstep>
   <time name="dav">    2.07    2.08</time>
   <time name="total">    3.92    3.93</time>
   <energy>
    <i name="alphaZ">      0.24545632 </i>
    <i name="ewald">    123.75171034 </i>
    <i name="hartreedc">   -279.37850845 </i>
    <i name="XCdc">     24.49883231 </i>
    <i name="pawpsdc">    379.41537427 </i>
    <i name="pawaedc">   -380.17982355 </i>
    <i name="eentropy">      0.03502887 </i>
    <i name="bandstr">    -89.44244867 </i>
    <i name="atom">    197.04175453 </i>
    <i name="e_fr_energy">    -24.01262403 </i>
    <i name="e_wo_entrp">    -24.04765290 </i>
    <i name="e_0_energy">    -24.02430032 </i>
   </energy>
  </scstep>
  <scstep>
   <time name="diag">    0.46    0.46</time>
   <time name="diis">    1.52    1.52</time>
   <time name="orth">    0.01    0.01</time>
   <time name="total">    3.74    3.74</time>
   <energy>
    <i name="e_fr_energy">    -24.01334213 </i>
    <i name="e_wo_entrp">    -24.05053425 </i>
    <i name="e_0_energy">    -24.02573951 </i>
   </energy>
  </scstep>
  <scstep>
   <time name="diag">    0.45    0.45</time>
   <time name="diis">    1.51    1.51</time>
   <time name="orth">    0.01    0.01</time>
   <time name="total">    3.78    3.78</time>
   <energy>
    <i name="e_fr_energy">    -24.01613021 </i>
    <i name="e_wo_entrp">    -24.05317901 </i>
    <i name="e_0_energy">    -24.02847981 </i>
   </energy>
  </scstep>
  <scstep>
   <time name="diag">    0.44    0.44</time>
   <time name="diis">    1.52    1.52</time>
   <time name="orth">    0.01    0.01</time>
   <time name="total">    3.82    3.82</time>
   <energy>
    <i name="e_fr_energy">    -24.01134952 </i>
    <i name="e_wo_entrp">    -24.04920375 </i>
    <i name="e_0_energy">    -24.02396760 </i>
   </energy>
  </scstep>
  <scstep>
   <time name="diag">    0.45    0.45</time>
   <time name="diis">    1.52    1.52</time>
   <time name="orth">    0.01    0.01</time>
   <time name="total">    3.84    3.85</time>
   <energy>
    <i name="e_fr_energy">    -24.01134523 </i>
    <i name="e_wo_entrp">    -24.04917282 </i>
    <i name="e_0_energy">    -24.02395443 </i>
   </energy>
  </scstep>
  <scstep>
   <time name="diag">    0.45    0.45</time>
   <time name="diis">    1.51    1.51</time>
   <time name="orth">    0.01    0.01</time>
   <time name="total">    3.76    3.77</time>
   <energy>
    <i name="e_fr_energy">    -24.01120279 </i>
    <i name="e_wo_entrp">    -24.04894920 </i>
    <i name="e_0_energy">    -24.02378492 </i>
   </energy>
  </scstep>
  <scstep>
   <time name="diag">    0.46    0.46</time>
   <time name="diis">    1.54    1.54</time>
   <time name="orth">    0.01    0.01</time>
   <time name="total">    3.82    3.83</time>
   <energy>
    <i name="e_fr_energy">    -24.01120683 </i>
    <i name="e_wo_entrp">    -24.04886987 </i>
    <i name="e_0_energy">    -24.02376118 </i>
   </energy>
  </scstep>
  <scstep>
   <time name="diag">    0.45    0.45</time>
   <time name="diis">    1.50    1.50</time>
   <time name="orth">    0.01    0.01</time>
   <time name="total">    3.83    3.84</time>
   <energy>
    <i name="e_fr_energy">    -24.01121336 </i>
    <i name="e_wo_entrp">    -24.04880187 </i>
    <i name="e_0_energy">    -24.02374286 </i>
   </energy>
  </scstep>
  <scstep>
   <time name="diag">    0.47    0.47</time>
   <time name="diis">    1.49    1.49</time>
   <time name="orth">    0.01    0.01</time>
   <time name="total">    3.82    3.83</time>
   <energy>
    <i name="e_fr_energy">    -24.01123131 </i>
    <i name="e_wo_entrp">    -24.04863779 </i>
    <i name="e_0_energy">    -24.02370013 </i>
   </energy>
  </scstep>
  <scstep>
   <time name="diag">    0.46    0.46</time>
   <time name="diis">    1.46    1.47</time>
   <time name="orth">    0.01    0.01</time>
   <time name="total">    3.87    3.88</time>
   <energy>
    <i name="e_fr_energy">    -24.01123124 </i>
    <i name="e_wo_entrp">    -24.04850718 </i>
    <i name="e_0_energy">    -24.02365656 </i>
   </energy>
  </scstep>
  <scstep>
   <time name="diag">    0.46    0.46</time>
   <time name="diis">    1.48    1.48</time>
   <time name="orth">    0.01    0.01</time>
   <time name="total">    3.85    3.86</time>
   <energy>
    <i name="e_fr_energy">    -24.01121421 </i>
    <i name="e_wo_entrp">    -24.04858523 </i>
    <i name="e_0_energy">    -24.02367122 </i>
   </energy>
  </scstep>
  <scstep>
   <time name="diag">    0.46    0.46</time>
   <time name="diis">    1.38    1.39</time>
   <time name="orth">    0.01    0.01</time>
   <time name="total">    3.79    3.80</time>
   <energy>
    <i name="e_fr_energy">    -24.01122410 </i>
    <i name="e_wo_entrp">    -24.04868389 </i>
    <i name="e_0_energy">    -24.02371070 </i>
   </energy>
  </scstep>
  <scstep>
   <time name="diag">    0.47    0.47</time>
   <time name="diis">    1.48    1.49</time>
   <time name="orth">    0.01    0.01</time>
   <time name="total">    3.89    3.90</time>
   <energy>
    <i name="e_fr_energy">    -24.01123014 </i>
    <i name="e_wo_entrp">    -24.04881362 </i>
    <i name="e_0_energy">    -24.02375797 </i>
   </energy>
  </scstep>
  <scstep>
   <time name="diag">    0.46    0.46</time>
   <time name="diis">    1.31    1.32</time>
   <time name="orth">    0.01    0.01</time>
   <time name="total">    3.75    3.76</time>
   <energy>
    <i name="e_fr_energy">    -24.01123279 </i>
    <i name="e_wo_entrp">    -24.04886610 </i>
    <i name="e_0_energy">    -24.02377723 </i>
   </energy>
  </scstep>
  <scstep>
   <time name="diag">    0.46    0.46</time>
   <time name="diis">    1.15    1.15</time>
   <time name="orth">    0.01    0.01</time>
   <time name="total">    3.59    3.60</time>
   <energy>
    <i name="e_fr_energy">    -24.01123524 </i>
    <i name="e_wo_entrp">    -24.04887840 </i>
    <i name="e_0_energy">    -24.02378296 </i>
   </energy>
  </scstep>
  <scstep>
   <time name="diag">    0.46    0.46</time>
   <time name="diis">    1.18    1.18</time>
   <time name="orth">    0.01    0.01</time>
   <time name="total">    3.28    3.29</time>
   <energy>
    <i name="alphaZ">      0.24545632 </i>
    <i name="ewald">    123.75171034 </i>
    <i name="hartreedc">   -280.09006424 </i>
    <i name="XCdc">     24.53837051 </i>
    <i name="pawpsdc">    392.80959387 </i>
    <i name="pawaedc">   -393.58201064 </i>
    <i name="eentropy">      0.03761183 </i>
    <i name="bandstr">    -88.76365787 </i>
    <i name="atom">    197.04175453 </i>
    <i name="e_fr_energy">    -24.01123535 </i>
    <i name="e_wo_entrp">    -24.04884719 </i>
    <i name="e_0_energy">    -24.02377263 </i>
   </energy>
  </scstep>
  <structure>
   <crystal>
    <varray name="basis" >
     <v>      10.07603014       0.00000000       0.00000000 </v>
     <v>      -0.02272580       9.78926824       0.00000000 </v>
     <v>       0.21618129      -0.24596283      10.00578814 </v>
    </varray>
    <i name="volume">    986.94054337 </i>
    <varray name="rec_basis" >
     <v>       0.09924544       0.00023040      -0.00213860 </v>
     <v>      -0.00000000       0.10215268       0.00251112 </v>
     <v>       0.00000000      -0.00000000       0.09994215 </v>
    </varray>
   </crystal>
   <varray name="positions" >
    <v>       0.53595920       0.40634098       0.35379416 </v>
    <v>       0.39540804       0.47920900       0.44353576 </v>
    <v>       0.55484392       0.57082146       0.44862929 </v>
    <v>       0.52711991       0.41340610       0.53798001 </v>
    <v>       0.50282189       0.46709233       0.44529330 </v>
   </varray>
  </structure>
  <varray name="forces" >
   <v>      -0.38093675       1.06777467       1.11137824 </v>
   <v>      -0.16361354      -0.52550140      -0.47853599 </v>
   <v>      -0.29554026      -0.99083496      -0.25644541 </v>
   <v>       0.52458192       0.12376581       0.26899946 </v>
   <v>       0.24026693       1.16217957      -0.94120363 </v>
  </varray>
  <varray name="stress" >
   <v>      -0.79464103      -0.46275684       0.22925775 </v>
   <v>      -0.46275684      -3.67381758      -0.88824339 </v>
   <v>       0.22925775      -0.88824339      -1.10768817 </v>
  </varray>
  <energy>
   <i name="e_fr_energy">    -24.01123535 </i>
   <i name="e_wo_entrp">    -24.02377263 </i>
   <i name="e_0_energy">      0.03761183 </i>
   <i name="kinetic">      0.04604150 </i>
   <i name="lattice kinetic">      0.00000000 </i>
   <i name="nosepot">      0.00103698 </i>
   <i name="nosekinetic">      0.00093404 </i>
   <i name="total">    -23.96322284 </i>
  </energy>
  <dos>
   <i name="efermi">     -8.97417377 </i>
   <total>
    <array>
     <dimension dim="1">gridpoints</dimension>
     <dimension dim="2">spin</dimension>
     <field>energy</field>
     <field>total</field>
     <field>integrated</field>
     <set>
      <set comment="spin 1">
       <r>   -18.7557     0.0000     0.0000 </r>
       <r>   -18.6842     0.0000     0.0000 </r>
       <r>   -18.6126     0.0000     0.0000 </r>
       <r>   -18.5410     0.0000     0.0000 </r>
       <r>   -18.4695     0.0000     0.0000 </r>
       <r>   -18.3979    -0.0000    -0.0000 </r>
       <r>   -18.3264    -0.0000    -0.0000 </r>
       <r>   -18.2548    -0.0000    -0.0000 </r>
       <r>   -18.1833    -0.0000    -0.0000 </r>
       <r>   -18.1117    -0.0000    -0.0000 </r>
       <r>   -18.0402    -0.0000    -0.0000 </r>
       <r>   -17.9686    -0.0000    -0.0000 </r>
       <r>   -17.8970    -0.0000    -0.0000 </r>
       <r>   -17.8255    -0.0000    -0.0000 </r>
       <r>   -17.7539    -0.0000    -0.0000 </r>
       <r>   -17.6824    -0.0000    -0.0000 </r>
       <r>   -17.6108    -0.0000    -0.0000 </r>
       <r>   -17.5393    -0.0000    -0.0000 </r>
       <r>   -17.4677    -0.0001    -0.0000 </r>
       <r>   -17.3962    -0.0007    -0.0001 </r>
       <r>   -17.3246    -0.0053    -0.0004 </r>
       <r>   -17.2531    -0.0282    -0.0025 </r>
       <r>   -17.1815    -0.1097    -0.0103 </r>
       <r>   -17.1099    -0.2907    -0.0311 </r>
       <r>   -17.0384    -0.4391    -0.0625 </r>
       <r>   -16.9668     0.0353    -0.0600 </r>
       <r>   -16.8953     1.9783     0.0816 </r>
       <r>   -16.8237     5.2784     0.4593 </r>
       <r>   -16.7522     7.9690     1.0295 </r>
       <r>   -16.6806     7.8082     1.5882 </r>
       <r>   -16.6091     4.9407     1.9417 </r>
       <r>   -16.5375     1.7135     2.0643 </r>
       <r>   -16.4660    -0.0640     2.0597 </r>
       <r>   -16.3944    -0.4383     2.0284 </r>
       <r>   -16.3228    -0.2697     2.0091 </r>
       <r>   -16.2513    -0.0976     2.0021 </r>
       <r>   -16.1797    -0.0243     2.0004 </r>
       <r>   -16.1082    -0.0044     2.0000 </r>
       <r>   -16.0366    -0.0006     2.0000 </r>
       <r>   -15.9651    -0.0001     2.0000 </r>
       <r>   -15.8935    -0.0000     2.0000 </r>
       <r>   -15.8220    -0.0000     2.0000 </r>
       <r>   -15.7504    -0.0000     2.0000 </r>
       <r>   -15.6789    -0.0000     2.0000 </r>
       <r>   -15.6073    -0.0000     2.0000 </r>
[...]
       <r>     0.2565    -0.5973     9.9399 </r>
       <r>     0.3290    -0.8768     9.8762 </r>
       <r>     0.4016    -0.1594     9.8647 </r>
       <r>     0.4742     3.2493    10.1005 </r>
       <r>     0.5467    10.0640    10.8308 </r>
       <r>     0.6193    17.9056    12.1303 </r>
       <r>     0.6919    21.8878    13.7188 </r>
       <r>     0.7645    18.8931    15.0899 </r>
       <r>     0.8370    11.0501    15.8918 </r>
       <r>     0.9096     3.6027    16.1533 </r>
       <r>     0.9822    -0.2334    16.1364 </r>
       <r>     1.0548    -0.9909    16.0644 </r>
       <r>     1.1273    -0.6024    16.0207 </r>
       <r>     1.1999    -0.2190    16.0048 </r>
       <r>     1.2725    -0.0550    16.0008 </r>
       <r>     1.3450    -0.0100    16.0001 </r>
       <r>     1.4176    -0.0014    16.0000 </r>
       <r>     1.4902    -0.0001    16.0000 </r>
       <r>     1.5628    -0.0000    16.0000 </r>
       <r>     1.6353    -0.0000    16.0000 </r>
       <r>     1.7079    -0.0000    16.0000 </r>
       <r>     1.7805    -0.0000    16.0000 </r>
       <r>     1.8531    -0.0000    16.0000 </r>
       <r>     1.9256    -0.0000    16.0000 </r>
       <r>     1.9982    -0.0000    16.0000 </r>
       <r>     2.0708     0.0000    16.0000 </r>
       <r>     2.1434     0.0000    16.0000 </r>
       <r>     2.2159     0.0000    16.0000 </r>
       <r>     2.2885     0.0000    16.0000 </r>
       <r>     2.3611     0.0000    16.0000 </r>
       <r>     2.4336     0.0000    16.0000 </r>
       <r>     2.5062     0.0000    16.0000 </r>
       <r>     2.5788     0.0000    16.0000 </r>
       <r>     2.6514     0.0000    16.0000 </r>
       <r>     2.7239     0.0000    16.0000 </r>
      </set>
     </set>
    </array>
   </total>
  </dos>
  <time name="totalsc">   76.75   77.32</time>
  <eigenvalues>
   <array>
    <dimension dim="1">band</dimension>
    <dimension dim="2">kpoint</dimension>
    <dimension dim="3">spin</dimension>
    <field>eigene</field>
    <field>occ</field>
    <set>
     <set comment="spin 1">
      <set comment="kpoint 1">
       <r>  -16.8219    1.0000 </r>
       <r>   -9.4295    1.0001 </r>
       <r>   -9.1753    1.0135 </r>
       <r>   -8.9678    0.9863 </r>
       <r>   -0.3100    0.0000 </r>
       <r>    0.5844    0.0000 </r>
       <r>    0.6608    0.0000 </r>
       <r>    0.7065    0.0000 </r>
      </set>
      <set comment="kpoint 2">
       <r>  -16.8219    1.0000 </r>
       <r>   -9.4296    1.0001 </r>
       <r>   -9.1754    1.0135 </r>
       <r>   -8.9679    0.9864 </r>
       <r>   -0.3061    0.0000 </r>
       <r>    0.5617    0.0000 </r>
       <r>    0.6549    0.0000 </r>
       <r>    0.7070    0.0000 </r>
      </set>
      <set comment="kpoint 3">
       <r>  -16.8219    1.0000 </r>
       <r>   -9.4296    1.0001 </r>
       <r>   -9.1754    1.0135 </r>
       <r>   -8.9679    0.9864 </r>
       <r>   -0.3143    0.0000 </r>
       <r>    0.5791    0.0000 </r>
       <r>    0.6801    0.0000 </r>
       <r>    0.7202    0.0000 </r>
      </set>
      <set comment="kpoint 4">
       <r>  -16.8220    1.0000 </r>
       <r>   -9.4296    1.0001 </r>
       <r>   -9.1754    1.0135 </r>
       <r>   -8.9679    0.9865 </r>
       <r>   -0.3102    0.0000 </r>
       <r>    0.5695    0.0000 </r>
       <r>    0.6707    0.0000 </r>
       <r>    0.7176    0.0000 </r>
      </set>
     </set>
    </set>
   </array>
  </eigenvalues>
  <separator name="orbital magnetization" >
   <v name="MAGDIPOLOUT">      0.00000000      0.00000000      0.00000000</v>
  </separator>
  <dos>
   <i name="efermi">     -8.81063048 </i>
   <total>
    <array>
     <dimension dim="1">gridpoints</dimension>
     <dimension dim="2">spin</dimension>
     <field>energy</field>
     <field>total</field>
     <field>integrated</field>
     <set>
      <set comment="spin 1">
       <r>   -18.8220     0.0000     0.0000 </r>
       <r>   -18.7502     0.0000     0.0000 </r>
       <r>   -18.6784     0.0000     0.0000 </r>
       <r>   -18.6066     0.0000     0.0000 </r>
       <r>   -18.5348     0.0000     0.0000 </r>
       <r>   -18.4630    -0.0000    -0.0000 </r>
       <r>   -18.3912    -0.0000    -0.0000 </r>
       <r>   -18.3193    -0.0000    -0.0000 </r>
       <r>   -18.2475    -0.0000    -0.0000 </r>
       <r>   -18.1757    -0.0000    -0.0000 </r>
       <r>   -18.1039    -0.0000    -0.0000 </r>
       <r>   -18.0321    -0.0000    -0.0000 </r>
       <r>   -17.9603    -0.0000    -0.0000 </r>
       <r>   -17.8885    -0.0000    -0.0000 </r>
       <r>   -17.8167    -0.0000    -0.0000 </r>
       <r>   -17.7449    -0.0000    -0.0000 </r>
       <r>   -17.6731    -0.0000    -0.0000 </r>
       <r>   -17.6013    -0.0000    -0.0000 </r>
       <r>   -17.5295    -0.0001    -0.0000 </r>
       <r>   -17.4577    -0.0008    -0.0001 </r>
       <r>   -17.3858    -0.0060    -0.0005 </r>
       <r>   -17.3140    -0.0315    -0.0028 </r>
       <r>   -17.2422    -0.1199    -0.0114 </r>
       <r>   -17.1704    -0.3080    -0.0335 </r>
       <r>   -17.0986    -0.4351    -0.0647 </r>
       <r>   -17.0268     0.1363    -0.0549 </r>
       <r>   -16.9550     2.2367     0.1057 </r>
       <r>   -16.8832     5.5977     0.5076 </r>
       <r>   -16.8114     8.0992     1.0892 </r>
       <r>   -16.7396     7.6120     1.6358 </r>
       <r>   -16.6678     4.5763     1.9644 </r>
       <r>   -16.5960     1.4392     2.0678 </r>
       <r>   -16.5242    -0.1600     2.0563 </r>
       <r>   -16.4524    -0.4313     2.0253 </r>
       <r>   -16.3805    -0.2447     2.0077 </r>
       <r>   -16.3087    -0.0840     2.0017 </r>
       <r>   -16.2369    -0.0200     2.0003 </r>
       <r>   -16.1651    -0.0034     2.0000 </r>
       <r>   -16.0933    -0.0004     2.0000 </r>
       <r>   -16.0215    -0.0000     2.0000 </r>
       <r>   -15.9497    -0.0000     2.0000 </r>
       <r>   -15.8779    -0.0000     2.0000 </r>
       <r>   -15.8061    -0.0000     2.0000 </r>
       <r>   -15.7343    -0.0000     2.0000 </r>
       <r>   -15.6625    -0.0000     2.0000 </r>
       <r>   -15.5907    -0.0000     2.0000 </r>
       <r>   -15.5189     0.0000     2.0000 </r>
       <r>   -15.4470     0.0000     2.0000 </r>
       <r>   -15.3752     0.0000     2.0000 </r>
       <r>   -15.3034     0.0000     2.0000 </r>
       <r>   -15.2316     0.0000     2.0000 </r>
       <r>   -15.1598     0.0000     2.0000 </r>
       <r>   -15.0880     0.0000     2.0000 </r>
       <r>   -15.0162     0.0000     2.0000 </r>
       <r>   -14.9444     0.0000     2.0000 </r>
       <r>   -14.8726     0.0000     2.0000 </r>
       <r>   -14.8008     0.0000     2.0000 </r>
       <r>   -14.7290     0.0000     2.0000 </r>
       <r>   -14.6572     0.0000     2.0000 </r>
       <r>   -14.5854     0.0000     2.0000 </r>
       <r>   -14.5136     0.0000     2.0000 </r>
       <r>   -14.4417     0.0000     2.0000 </r>
       <r>   -14.3699     0.0000     2.0000 </r>
       <r>   -14.2981     0.0000     2.0000 </r>
       <r>   -14.2263     0.0000     2.0000 </r>
       <r>   -14.1545     0.0000     2.0000 </r>
       <r>   -14.0827     0.0000     2.0000 </r>
       <r>   -14.0109     0.0000     2.0000 </r>
       <r>   -13.9391     0.0000     2.0000 </r>
       <r>   -13.8673     0.0000     2.0000 </r>
       <r>   -13.7955     0.0000     2.0000 </r>
       <r>   -13.7237     0.0000     2.0000 </r>
       <r>   -13.6519     0.0000     2.0000 </r>
       <r>   -13.5801     0.0000     2.0000 </r>
       <r>   -13.5082     0.0000     2.0000 </r>
       <r>   -13.4364     0.0000     2.0000 </r>
       <r>   -13.3646     0.0000     2.0000 </r>
       <r>   -13.2928     0.0000     2.0000 </r>
       <r>   -13.2210     0.0000     2.0000 </r>
       <r>   -13.1492     0.0000     2.0000 </r>
       <r>   -13.0774     0.0000     2.0000 </r>
       <r>   -13.0056     0.0000     2.0000 </r>
       <r>   -12.9338     0.0000     2.0000 </r>
       <r>   -12.8620     0.0000     2.0000 </r>
       <r>   -12.7902     0.0000     2.0000 </r>
       <r>   -12.7184     0.0000     2.0000 </r>
       <r>   -12.6466     0.0000     2.0000 </r>
       <r>   -12.5748     0.0000     2.0000 </r>
       <r>   -12.5029     0.0000     2.0000 </r>
       <r>   -12.4311     0.0000     2.0000 </r>
       <r>   -12.3593     0.0000     2.0000 </r>
       <r>   -12.2875     0.0000     2.0000 </r>
       <r>   -12.2157     0.0000     2.0000 </r>
       <r>   -12.1439     0.0000     2.0000 </r>
       <r>   -12.0721     0.0000     2.0000 </r>
       <r>   -12.0003     0.0000     2.0000 </r>
       <r>   -11.9285     0.0000     2.0000 </r>
       <r>   -11.8567     0.0000     2.0000 </r>
       <r>   -11.7849     0.0000     2.0000 </r>
       <r>   -11.7131     0.0000     2.0000 </r>
       <r>   -11.6413     0.0000     2.0000 </r>
       <r>   -11.5694     0.0000     2.0000 </r>
       <r>   -11.4976     0.0000     2.0000 </r>
       <r>   -11.4258     0.0000     2.0000 </r>
       <r>   -11.3540     0.0000     2.0000 </r>
       <r>   -11.2822     0.0000     2.0000 </r>
       <r>   -11.2104     0.0000     2.0000 </r>
       <r>   -11.1386     0.0000     2.0000 </r>
       <r>   -11.0668    -0.0000     2.0000 </r>
       <r>   -10.9950    -0.0000     2.0000 </r>
       <r>   -10.9232    -0.0000     2.0000 </r>
       <r>   -10.8514    -0.0000     2.0000 </r>
       <r>   -10.7796    -0.0000     2.0000 </r>
       <r>   -10.7078    -0.0000     2.0000 </r>
       <r>   -10.6360    -0.0000     2.0000 </r>
       <r>   -10.5641    -0.0000     2.0000 </r>
       <r>   -10.4923    -0.0000     2.0000 </r>
       <r>   -10.4205    -0.0000     2.0000 </r>
       <r>   -10.3487    -0.0000     2.0000 </r>
       <r>   -10.2769    -0.0000     2.0000 </r>
       <r>   -10.2051    -0.0000     2.0000 </r>
       <r>   -10.1333    -0.0001     2.0000 </r>
       <r>   -10.0615    -0.0009     1.9999 </r>
       <r>    -9.9897    -0.0066     1.9995 </r>
       <r>    -9.9179    -0.0342     1.9970 </r>
       <r>    -9.8461    -0.1276     1.9878 </r>
       <r>    -9.7743    -0.3218     1.9647 </r>
       <r>    -9.7025    -0.4450     1.9328 </r>
       <r>    -9.6306     0.1382     1.9427 </r>
       <r>    -9.5588     2.1859     2.0997 </r>
       <r>    -9.4870     5.3505     2.4839 </r>
       <r>    -9.4152     7.7944     3.0436 </r>
       <r>    -9.3434     8.2659     3.6371 </r>
       <r>    -9.2716     7.8694     4.2022 </r>
       <r>    -9.1998     8.2507     4.7946 </r>
       <r>    -9.1280     9.3088     5.4631 </r>
       <r>    -9.0562    10.0906     6.1877 </r>
       <r>    -8.9844    10.0247     6.9075 </r>
       <r>    -8.9126     8.5144     7.5189 </r>
       <r>    -8.8408     5.4503     7.9103 </r>
       <r>    -8.7690     2.1338     8.0635 </r>
       <r>    -8.6972     0.0955     8.0704 </r>
       <r>    -8.6253    -0.4687     8.0367 </r>
       <r>    -8.5535    -0.3344     8.0127 </r>
       <r>    -8.4817    -0.1330     8.0032 </r>
       <r>    -8.4099    -0.0358     8.0006 </r>
       <r>    -8.3381    -0.0069     8.0001 </r>
       <r>    -8.2663    -0.0010     8.0000 </r>
       <r>    -8.1945    -0.0001     8.0000 </r>
       <r>    -8.1227    -0.0000     8.0000 </r>
       <r>    -8.0509    -0.0000     8.0000 </r>
       <r>    -7.9791    -0.0000     8.0000 </r>
       <r>    -7.9073    -0.0000     8.0000 </r>
       <r>    -7.8355    -0.0000     8.0000 </r>
       <r>    -7.7637    -0.0000     8.0000 </r>
       <r>    -7.6918    -0.0000     8.0000 </r>
       <r>    -7.6200     0.0000     8.0000 </r>
       <r>    -7.5482     0.0000     8.0000 </r>
       <r>    -7.4764     0.0000     8.0000 </r>
       <r>    -7.4046     0.0000     8.0000 </r>
       <r>    -7.3328     0.0000     8.0000 </r>
       <r>    -7.2610     0.0000     8.0000 </r>
       <r>    -7.1892     0.0000     8.0000 </r>
       <r>    -7.1174     0.0000     8.0000 </r>
       <r>    -7.0456     0.0000     8.0000 </r>
       <r>    -6.9738     0.0000     8.0000 </r>
       <r>    -6.9020     0.0000     8.0000 </r>
       <r>    -6.8302     0.0000     8.0000 </r>
       <r>    -6.7584     0.0000     8.0000 </r>
       <r>    -6.6865     0.0000     8.0000 </r>
       <r>    -6.6147     0.0000     8.0000 </r>
       <r>    -6.5429     0.0000     8.0000 </r>
       <r>    -6.4711     0.0000     8.0000 </r>
       <r>    -6.3993     0.0000     8.0000 </r>
       <r>    -6.3275     0.0000     8.0000 </r>
       <r>    -6.2557     0.0000     8.0000 </r>
       <r>    -6.1839     0.0000     8.0000 </r>
       <r>    -6.1121     0.0000     8.0000 </r>
       <r>    -6.0403     0.0000     8.0000 </r>
       <r>    -5.9685     0.0000     8.0000 </r>
       <r>    -5.8967     0.0000     8.0000 </r>
       <r>    -5.8249     0.0000     8.0000 </r>
       <r>    -5.7531     0.0000     8.0000 </r>
       <r>    -5.6812     0.0000     8.0000 </r>
       <r>    -5.6094     0.0000     8.0000 </r>
       <r>    -5.5376     0.0000     8.0000 </r>
       <r>    -5.4658     0.0000     8.0000 </r>
       <r>    -5.3940     0.0000     8.0000 </r>
       <r>    -5.3222     0.0000     8.0000 </r>
       <r>    -5.2504     0.0000     8.0000 </r>
       <r>    -5.1786     0.0000     8.0000 </r>
       <r>    -5.1068     0.0000     8.0000 </r>
       <r>    -5.0350     0.0000     8.0000 </r>
       <r>    -4.9632     0.0000     8.0000 </r>
       <r>    -4.8914     0.0000     8.0000 </r>
       <r>    -4.8196     0.0000     8.0000 </r>
       <r>    -4.7477     0.0000     8.0000 </r>
       <r>    -4.6759     0.0000     8.0000 </r>
       <r>    -4.6041     0.0000     8.0000 </r>
       <r>    -4.5323     0.0000     8.0000 </r>
       <r>    -4.4605     0.0000     8.0000 </r>
       <r>    -4.3887     0.0000     8.0000 </r>
       <r>    -4.3169     0.0000     8.0000 </r>
       <r>    -4.2451     0.0000     8.0000 </r>
       <r>    -4.1733     0.0000     8.0000 </r>
       <r>    -4.1015     0.0000     8.0000 </r>
       <r>    -4.0297     0.0000     8.0000 </r>
       <r>    -3.9579     0.0000     8.0000 </r>
       <r>    -3.8861     0.0000     8.0000 </r>
       <r>    -3.8143     0.0000     8.0000 </r>
       <r>    -3.7424     0.0000     8.0000 </r>
       <r>    -3.6706     0.0000     8.0000 </r>
       <r>    -3.5988     0.0000     8.0000 </r>
       <r>    -3.5270     0.0000     8.0000 </r>
       <r>    -3.4552     0.0000     8.0000 </r>
       <r>    -3.3834     0.0000     8.0000 </r>
       <r>    -3.3116     0.0000     8.0000 </r>
       <r>    -3.2398     0.0000     8.0000 </r>
       <r>    -3.1680     0.0000     8.0000 </r>
       <r>    -3.0962     0.0000     8.0000 </r>
       <r>    -3.0244     0.0000     8.0000 </r>
       <r>    -2.9526     0.0000     8.0000 </r>
       <r>    -2.8808     0.0000     8.0000 </r>
       <r>    -2.8089     0.0000     8.0000 </r>
       <r>    -2.7371     0.0000     8.0000 </r>
       <r>    -2.6653     0.0000     8.0000 </r>
       <r>    -2.5935     0.0000     8.0000 </r>
       <r>    -2.5217     0.0000     8.0000 </r>
       <r>    -2.4499     0.0000     8.0000 </r>
       <r>    -2.3781     0.0000     8.0000 </r>
       <r>    -2.3063     0.0000     8.0000 </r>
       <r>    -2.2345     0.0000     8.0000 </r>
       <r>    -2.1627     0.0000     8.0000 </r>
       <r>    -2.0909     0.0000     8.0000 </r>
       <r>    -2.0191     0.0000     8.0000 </r>
       <r>    -1.9473    -0.0000     8.0000 </r>
       <r>    -1.8755    -0.0000     8.0000 </r>
       <r>    -1.8036    -0.0000     8.0000 </r>
       <r>    -1.7318    -0.0000     8.0000 </r>
       <r>    -1.6600    -0.0000     8.0000 </r>
       <r>    -1.5882    -0.0000     8.0000 </r>
       <r>    -1.5164    -0.0000     8.0000 </r>
       <r>    -1.4446    -0.0000     8.0000 </r>
       <r>    -1.3728    -0.0000     8.0000 </r>
       <r>    -1.3010    -0.0000     8.0000 </r>
       <r>    -1.2292    -0.0000     8.0000 </r>
       <r>    -1.1574    -0.0000     8.0000 </r>
       <r>    -1.0856    -0.0000     8.0000 </r>
       <r>    -1.0138    -0.0001     8.0000 </r>
       <r>    -0.9420    -0.0009     7.9999 </r>
       <r>    -0.8701    -0.0066     7.9995 </r>
       <r>    -0.7983    -0.0342     7.9970 </r>
       <r>    -0.7265    -0.1276     7.9878 </r>
       <r>    -0.6547    -0.3197     7.9649 </r>
       <r>    -0.5829    -0.4297     7.9340 </r>
       <r>    -0.5111     0.2070     7.9489 </r>
       <r>    -0.4393     2.3995     8.1212 </r>
       <r>    -0.3675     5.7796     8.5362 </r>
       <r>    -0.2957     8.1568     9.1219 </r>
       <r>    -0.2239     7.4926     9.6599 </r>
       <r>    -0.1521     4.3858     9.9749 </r>
       <r>    -0.0803     1.3087    10.0689 </r>
       <r>    -0.0085    -0.2040    10.0542 </r>
       <r>     0.0633    -0.4501    10.0219 </r>
       <r>     0.1352    -0.3402     9.9975 </r>
       <r>     0.2070    -0.4165     9.9675 </r>
       <r>     0.2788    -0.7399     9.9144 </r>
       <r>     0.3506    -0.7828     9.8582 </r>
       <r>     0.4224     0.8055     9.9160 </r>
       <r>     0.4942     5.5333    10.3134 </r>
       <r>     0.5660    13.0745    11.2522 </r>
       <r>     0.6378    19.9389    12.6840 </r>
       <r>     0.7096    21.5223    14.2294 </r>
       <r>     0.7814    16.4903    15.4136 </r>
       <r>     0.8532     8.3820    16.0155 </r>
       <r>     0.9250     2.0369    16.1617 </r>
       <r>     0.9968    -0.6596    16.1143 </r>
       <r>     1.0687    -0.9129    16.0488 </r>
       <r>     1.1405    -0.4756    16.0146 </r>
       <r>     1.2123    -0.1588    16.0032 </r>
       <r>     1.2841    -0.0376    16.0005 </r>
       <r>     1.3559    -0.0065    16.0001 </r>
       <r>     1.4277    -0.0009    16.0000 </r>
       <r>     1.4995    -0.0001    16.0000 </r>
       <r>     1.5713    -0.0000    16.0000 </r>
       <r>     1.6431    -0.0000    16.0000 </r>
       <r>     1.7149    -0.0000    16.0000 </r>
       <r>     1.7867    -0.0000    16.0000 </r>
       <r>     1.8585    -0.0000    16.0000 </r>
       <r>     1.9303    -0.0000    16.0000 </r>
       <r>     2.0021    -0.0000    16.0000 </r>
       <r>     2.0740     0.0000    16.0000 </r>
       <r>     2.1458     0.0000    16.0000 </r>
       <r>     2.2176     0.0000    16.0000 </r>
       <r>     2.2894     0.0000    16.0000 </r>
       <r>     2.3612     0.0000    16.0000 </r>
       <r>     2.4330     0.0000    16.0000 </r>
       <r>     2.5048     0.0000    16.0000 </r>
       <r>     2.5766     0.0000    16.0000 </r>
       <r>     2.6484     0.0000    16.0000 </r>
       <r>     2.7202     0.0000    16.0000 </r>
      </set>
     </set>
    </array>
   </total>
  </dos>
 </calculation>
 <structure name="finalpos" >
  <crystal>
   <varray name="basis" >
    <v>      10.07603014       0.00000000       0.00000000 </v>
    <v>      -0.02272580       9.78926824       0.00000000 </v>
    <v>       0.21618129      -0.24596283      10.00578814 </v>
   </varray>
   <i name="volume">    986.94054337 </i>
   <varray name="rec_basis" >
    <v>       0.09924544       0.00023040      -0.00213860 </v>
    <v>      -0.00000000       0.10215268       0.00251112 </v>
    <v>       0.00000000      -0.00000000       0.09994215 </v>
   </varray>
  </crystal>
  <varray name="positions" >
   <v>       0.53911355       0.42178846       0.35282161 </v>
   <v>       0.39413237       0.48077010       0.44257461 </v>
   <v>       0.55026915       0.56568320       0.45383071 </v>
   <v>       0.52739191       0.40955812       0.53687161 </v>
   <v>       0.50302371       0.46642441       0.44511352 </v>
  </varray>
  <varray name="velocities" >
   <v>       0.00429622      -0.00070930      -0.00303276 </v>
   <v>      -0.00147417      -0.00107561      -0.00069068 </v>
   <v>      -0.00124052      -0.00166471       0.00163471 </v>
   <v>       0.00003539      -0.00023214       0.00292488 </v>
   <v>      -0.00013462       0.00030653      -0.00006962 </v>
  </varray>
 </structure>
</modeling>
