unknown system                          
           1
    10.076030    0.000000    0.000000
    -0.022726    9.789268    0.000000
     0.216181   -0.245963   10.005788
   H    C 
   4   1
Direct configuration=     1
   0.53804537  0.40664610  0.36060392
   0.39443840  0.48010718  0.43835920
   0.55226884  0.56498887  0.44328471
   0.52827162  0.41649142  0.53915628
   0.50284744  0.46722088  0.44550437
Direct configuration=     2
   0.53803868  0.40574721  0.35653495
   0.39435135  0.48061374  0.44089876
   0.55334511  0.56866935  0.44555060
   0.52748554  0.41453244  0.53931661
   0.50283108  0.46711021  0.44542970
Direct configuration=     3
   0.53595920  0.40634098  0.35379416
   0.39540804  0.47920900  0.44353576
   0.55484392  0.57082146  0.44862929
   0.52711991  0.41340610  0.53798001
   0.50282189  0.46709233  0.44529330
Direct configuration=     4
   0.53241377  0.41099239  0.35542316
   0.39587282  0.47553531  0.44436168
   0.55521930  0.56883619  0.45073535
   0.52874519  0.41260968  0.53776859
   0.50291181  0.46724252  0.44493117
Direct configuration=     5
   0.53012127  0.41594424  0.35829858
   0.39536535  0.47355925  0.44382237
   0.55442588  0.56527417  0.45185196
   0.52924163  0.41123702  0.53649188
   0.50316965  0.46740561  0.44475000
Direct configuration=     6
   0.53150476  0.41241616  0.35175880
   0.39396772  0.47441024  0.44372386
   0.55438389  0.56378791  0.45221952
   0.52855810  0.41036110  0.53369882
   0.50323123  0.46782517  0.44550462
Direct configuration=     7
   0.53399137  0.40860122  0.34601539
   0.39146608  0.47719590  0.44332344
   0.55618599  0.56519545  0.45244666
   0.52928537  0.40880204  0.53322809
   0.50302190  0.46792348  0.44603642
Direct configuration=     8
   0.53523233  0.41143805  0.34756449
   0.39179409  0.48006200  0.44267163
   0.55735472  0.56838613  0.45252273
   0.53081700  0.40718206  0.53576124
   0.50266645  0.46731790  0.44574448
Direct configuration=     9
   0.53504786  0.41736597  0.35124781
   0.39482897  0.48131874  0.44333968
   0.55501232  0.56973852  0.45234213
   0.52912466  0.40811571  0.53417849
   0.50276505  0.46652940  0.44552901
Direct configuration=    10
   0.53481733  0.42249776  0.35585437
   0.39560654  0.48184571  0.44326529
   0.55150967  0.56734791  0.45219599
   0.52735651  0.40979026  0.53394674
   0.50315833  0.46611788  0.44518314
