   5   5   0   0
  0.2037848E+03  0.1028348E-08  0.9844415E-09  0.1006960E-08  0.2000000E-14
   50.000000000000000     
  CAR 
 unknown system                          
      2.71011875    -18.84142208  301     -9.07250301      1.00000000
    -18.841  0.0000E+00  0.0000E+00
    -18.770  0.0000E+00  0.0000E+00
    -18.698  0.0000E+00  0.0000E+00
    -18.626  0.0000E+00  0.0000E+00
    -18.554  0.0000E+00  0.0000E+00
    -18.482 -0.3779E-27 -0.2715E-28
    -18.410 -0.1148E-24 -0.8277E-26
    -18.339 -0.2697E-22 -0.1946E-23
    -18.267 -0.4880E-20 -0.3525E-21
    -18.195 -0.6802E-18 -0.4922E-19
    -18.123 -0.7300E-16 -0.5294E-17
    -18.051 -0.6030E-14 -0.4385E-15
    -17.979 -0.3708E-12 -0.2708E-13
    -17.908 -0.1806E-10 -0.1325E-11
    -17.836 -0.6738E-09 -0.4973E-10
    -17.764 -0.1925E-07 -0.1433E-08
    -17.692 -0.4206E-06 -0.3165E-07
    -17.620 -0.7005E-05 -0.5348E-06
    -17.548 -0.8860E-04 -0.6900E-05
    -17.476 -0.8465E-03 -0.6771E-04
    -17.405 -0.6055E-02 -0.5027E-03
    -17.333 -0.3197E-01 -0.2799E-02
    -17.261 -0.1212E+00 -0.1151E-01
    -17.189 -0.3102E+00 -0.3379E-01
    -17.117 -0.4343E+00 -0.6499E-01
    -17.045  0.1499E+00 -0.5422E-01
    -16.974  0.2270E+01  0.1089E+00
    -16.902  0.5638E+01  0.5139E+00
    -16.830  0.8113E+01  0.1097E+01
    -16.758  0.7585E+01  0.1642E+01
    -16.686  0.4530E+01  0.1967E+01
    -16.614  0.1406E+01  0.2068E+01
    -16.543 -0.1708E+00  0.2056E+01
    -16.471 -0.4300E+00  0.2025E+01
    -16.399 -0.2416E+00  0.2008E+01
    -16.327 -0.8237E-01  0.2002E+01
    -16.255 -0.1947E-01  0.2000E+01
    -16.183 -0.3340E-02  0.2000E+01
    -16.112 -0.4252E-03  0.2000E+01
    -16.040 -0.4067E-04  0.2000E+01
    -15.968 -0.2944E-05  0.2000E+01
    -15.896 -0.1621E-06  0.2000E+01
    -15.824 -0.6808E-08  0.2000E+01
    -15.752 -0.2188E-09  0.2000E+01
    -15.681 -0.5387E-11  0.2000E+01
    -15.609 -0.1051E-12  0.2000E+01
    -15.537  0.0000E+00  0.2000E+01
    -15.465  0.0000E+00  0.2000E+01
    -15.393  0.0000E+00  0.2000E+01
    -15.321  0.0000E+00  0.2000E+01
    -15.249  0.0000E+00  0.2000E+01
    -15.178  0.0000E+00  0.2000E+01
    -15.106  0.0000E+00  0.2000E+01
    -15.034  0.0000E+00  0.2000E+01
    -14.962  0.0000E+00  0.2000E+01
    -14.890  0.0000E+00  0.2000E+01
    -14.818  0.0000E+00  0.2000E+01
    -14.747  0.0000E+00  0.2000E+01
    -14.675  0.0000E+00  0.2000E+01
    -14.603  0.0000E+00  0.2000E+01
    -14.531  0.0000E+00  0.2000E+01
    -14.459  0.0000E+00  0.2000E+01
    -14.387  0.0000E+00  0.2000E+01
    -14.316  0.0000E+00  0.2000E+01
    -14.244  0.0000E+00  0.2000E+01
    -14.172  0.0000E+00  0.2000E+01
    -14.100  0.0000E+00  0.2000E+01
    -14.028  0.0000E+00  0.2000E+01
    -13.956  0.0000E+00  0.2000E+01
    -13.885  0.0000E+00  0.2000E+01
    -13.813  0.0000E+00  0.2000E+01
    -13.741  0.0000E+00  0.2000E+01
    -13.669  0.0000E+00  0.2000E+01
    -13.597  0.0000E+00  0.2000E+01
    -13.525  0.0000E+00  0.2000E+01
    -13.454  0.0000E+00  0.2000E+01
    -13.382  0.0000E+00  0.2000E+01
    -13.310  0.0000E+00  0.2000E+01
    -13.238  0.0000E+00  0.2000E+01
    -13.166  0.0000E+00  0.2000E+01
    -13.094  0.0000E+00  0.2000E+01
    -13.023  0.0000E+00  0.2000E+01
    -12.951  0.0000E+00  0.2000E+01
    -12.879  0.0000E+00  0.2000E+01
    -12.807  0.0000E+00  0.2000E+01
    -12.735  0.0000E+00  0.2000E+01
    -12.663  0.0000E+00  0.2000E+01
    -12.591  0.0000E+00  0.2000E+01
    -12.520  0.0000E+00  0.2000E+01
    -12.448  0.0000E+00  0.2000E+01
    -12.376  0.0000E+00  0.2000E+01
    -12.304  0.0000E+00  0.2000E+01
    -12.232  0.0000E+00  0.2000E+01
    -12.160  0.0000E+00  0.2000E+01
    -12.089  0.0000E+00  0.2000E+01
    -12.017  0.0000E+00  0.2000E+01
    -11.945  0.0000E+00  0.2000E+01
    -11.873  0.0000E+00  0.2000E+01
    -11.801  0.0000E+00  0.2000E+01
    -11.729  0.0000E+00  0.2000E+01
    -11.658  0.0000E+00  0.2000E+01
    -11.586  0.0000E+00  0.2000E+01
    -11.514  0.0000E+00  0.2000E+01
    -11.442  0.0000E+00  0.2000E+01
    -11.370  0.0000E+00  0.2000E+01
    -11.298  0.0000E+00  0.2000E+01
    -11.227  0.0000E+00  0.2000E+01
    -11.155  0.0000E+00  0.2000E+01
    -11.083  0.0000E+00  0.2000E+01
    -11.011  0.0000E+00  0.2000E+01
    -10.939 -0.6797E-27  0.2000E+01
    -10.867 -0.2032E-24  0.2000E+01
    -10.796 -0.4660E-22  0.2000E+01
    -10.724 -0.8239E-20  0.2000E+01
    -10.652 -0.1123E-17  0.2000E+01
    -10.580 -0.1180E-15  0.2000E+01
    -10.508 -0.9549E-14  0.2000E+01
    -10.436 -0.5769E-12  0.2000E+01
    -10.364 -0.2759E-10  0.2000E+01
    -10.293 -0.1014E-08  0.2000E+01
    -10.221 -0.2866E-07  0.2000E+01
    -10.149 -0.6215E-06  0.2000E+01
    -10.077 -0.1033E-04  0.2000E+01
    -10.005 -0.1312E-03  0.2000E+01
     -9.933 -0.1270E-02  0.2000E+01
     -9.862 -0.9315E-02  0.1999E+01
     -9.790 -0.5122E-01  0.1996E+01
     -9.718 -0.2072E+00  0.1981E+01
     -9.646 -0.5917E+00  0.1938E+01
     -9.574 -0.1058E+01  0.1862E+01
     -9.502 -0.5367E+00  0.1824E+01
     -9.431  0.3068E+01  0.2044E+01
     -9.359  0.1082E+02  0.2821E+01
     -9.287  0.1969E+02  0.4236E+01
     -9.215  0.2348E+02  0.5923E+01
     -9.143  0.1903E+02  0.7290E+01
     -9.071  0.9964E+01  0.8006E+01
     -9.000  0.2481E+01  0.8185E+01
     -8.928 -0.7438E+00  0.8131E+01
     -8.856 -0.1052E+01  0.8055E+01
     -8.784 -0.5434E+00  0.8016E+01
     -8.712 -0.1790E+00  0.8004E+01
     -8.640 -0.4171E-01  0.8001E+01
     -8.569 -0.7143E-02  0.8000E+01
     -8.497 -0.9158E-03  0.8000E+01
     -8.425 -0.8878E-04  0.8000E+01
     -8.353 -0.6548E-05  0.8000E+01
     -8.281 -0.3689E-06  0.8000E+01
     -8.209 -0.1592E-07  0.8000E+01
     -8.137 -0.5272E-09  0.8000E+01
     -8.066 -0.1341E-10  0.8000E+01
     -7.994 -0.2596E-12  0.8000E+01
     -7.922 -0.6182E-14  0.8000E+01
     -7.850  0.0000E+00  0.8000E+01
     -7.778  0.0000E+00  0.8000E+01
     -7.706  0.0000E+00  0.8000E+01
     -7.635  0.0000E+00  0.8000E+01
     -7.563  0.0000E+00  0.8000E+01
     -7.491  0.0000E+00  0.8000E+01
     -7.419  0.0000E+00  0.8000E+01
     -7.347  0.0000E+00  0.8000E+01
     -7.275  0.0000E+00  0.8000E+01
     -7.204  0.0000E+00  0.8000E+01
     -7.132  0.0000E+00  0.8000E+01
     -7.060  0.0000E+00  0.8000E+01
     -6.988  0.0000E+00  0.8000E+01
     -6.916  0.0000E+00  0.8000E+01
     -6.844  0.0000E+00  0.8000E+01
     -6.773  0.0000E+00  0.8000E+01
     -6.701  0.0000E+00  0.8000E+01
     -6.629  0.0000E+00  0.8000E+01
     -6.557  0.0000E+00  0.8000E+01
     -6.485  0.0000E+00  0.8000E+01
     -6.413  0.0000E+00  0.8000E+01
     -6.342  0.0000E+00  0.8000E+01
     -6.270  0.0000E+00  0.8000E+01
     -6.198  0.0000E+00  0.8000E+01
     -6.126  0.0000E+00  0.8000E+01
     -6.054  0.0000E+00  0.8000E+01
     -5.982  0.0000E+00  0.8000E+01
     -5.910  0.0000E+00  0.8000E+01
     -5.839  0.0000E+00  0.8000E+01
     -5.767  0.0000E+00  0.8000E+01
     -5.695  0.0000E+00  0.8000E+01
     -5.623  0.0000E+00  0.8000E+01
     -5.551  0.0000E+00  0.8000E+01
     -5.479  0.0000E+00  0.8000E+01
     -5.408  0.0000E+00  0.8000E+01
     -5.336  0.0000E+00  0.8000E+01
     -5.264  0.0000E+00  0.8000E+01
     -5.192  0.0000E+00  0.8000E+01
     -5.120  0.0000E+00  0.8000E+01
     -5.048  0.0000E+00  0.8000E+01
     -4.977  0.0000E+00  0.8000E+01
     -4.905  0.0000E+00  0.8000E+01
     -4.833  0.0000E+00  0.8000E+01
     -4.761  0.0000E+00  0.8000E+01
     -4.689  0.0000E+00  0.8000E+01
     -4.617  0.0000E+00  0.8000E+01
     -4.546  0.0000E+00  0.8000E+01
     -4.474  0.0000E+00  0.8000E+01
     -4.402  0.0000E+00  0.8000E+01
     -4.330  0.0000E+00  0.8000E+01
     -4.258  0.0000E+00  0.8000E+01
     -4.186  0.0000E+00  0.8000E+01
     -4.115  0.0000E+00  0.8000E+01
     -4.043  0.0000E+00  0.8000E+01
     -3.971  0.0000E+00  0.8000E+01
     -3.899  0.0000E+00  0.8000E+01
     -3.827  0.0000E+00  0.8000E+01
     -3.755  0.0000E+00  0.8000E+01
     -3.684  0.0000E+00  0.8000E+01
     -3.612  0.0000E+00  0.8000E+01
     -3.540  0.0000E+00  0.8000E+01
     -3.468  0.0000E+00  0.8000E+01
     -3.396  0.0000E+00  0.8000E+01
     -3.324  0.0000E+00  0.8000E+01
     -3.252  0.0000E+00  0.8000E+01
     -3.181  0.0000E+00  0.8000E+01
     -3.109  0.0000E+00  0.8000E+01
     -3.037  0.0000E+00  0.8000E+01
     -2.965  0.0000E+00  0.8000E+01
     -2.893  0.0000E+00  0.8000E+01
     -2.821  0.0000E+00  0.8000E+01
     -2.750  0.0000E+00  0.8000E+01
     -2.678  0.0000E+00  0.8000E+01
     -2.606  0.0000E+00  0.8000E+01
     -2.534  0.0000E+00  0.8000E+01
     -2.462  0.0000E+00  0.8000E+01
     -2.390  0.0000E+00  0.8000E+01
     -2.319  0.0000E+00  0.8000E+01
     -2.247  0.0000E+00  0.8000E+01
     -2.175  0.0000E+00  0.8000E+01
     -2.103  0.0000E+00  0.8000E+01
     -2.031  0.0000E+00  0.8000E+01
     -1.959 -0.9795E-27  0.8000E+01
     -1.888 -0.2850E-24  0.8000E+01
     -1.816 -0.6408E-22  0.8000E+01
     -1.744 -0.1110E-19  0.8000E+01
     -1.672 -0.1482E-17  0.8000E+01
     -1.600 -0.1523E-15  0.8000E+01
     -1.528 -0.1205E-13  0.8000E+01
     -1.457 -0.7100E-12  0.8000E+01
     -1.385 -0.3307E-10  0.8000E+01
     -1.313 -0.1181E-08  0.8000E+01
     -1.241 -0.3229E-07  0.8000E+01
     -1.169 -0.6749E-06  0.8000E+01
     -1.097 -0.1075E-04  0.8000E+01
     -1.025 -0.1300E-03  0.8000E+01
     -0.954 -0.1185E-02  0.8000E+01
     -0.882 -0.8081E-02  0.7999E+01
     -0.810 -0.4053E-01  0.7996E+01
     -0.738 -0.1450E+00  0.7986E+01
     -0.666 -0.3444E+00  0.7961E+01
     -0.594 -0.4119E+00  0.7932E+01
     -0.523  0.3726E+00  0.7958E+01
     -0.451  0.2761E+01  0.8157E+01
     -0.379  0.6164E+01  0.8600E+01
     -0.307  0.8254E+01  0.9193E+01
     -0.235  0.7211E+01  0.9711E+01
     -0.163  0.3971E+01  0.9996E+01
     -0.092  0.1038E+01  0.1007E+02
     -0.020 -0.2834E+00  0.1005E+02
      0.052 -0.4458E+00  0.1002E+02
      0.124 -0.3503E+00  0.9993E+01
      0.196 -0.4690E+00  0.9959E+01
      0.268 -0.7564E+00  0.9905E+01
      0.339 -0.5323E+00  0.9867E+01
      0.411  0.1559E+01  0.9979E+01
      0.483  0.6637E+01  0.1046E+02
      0.555  0.1388E+02  0.1145E+02
      0.627  0.1986E+02  0.1288E+02
      0.699  0.2067E+02  0.1436E+02
      0.770  0.1547E+02  0.1548E+02
      0.842  0.7699E+01  0.1603E+02
      0.914  0.1772E+01  0.1616E+02
      0.986 -0.6784E+00  0.1611E+02
      1.058 -0.8652E+00  0.1604E+02
      1.130 -0.4408E+00  0.1601E+02
      1.202 -0.1449E+00  0.1600E+02
      1.273 -0.3380E-01  0.1600E+02
      1.345 -0.5806E-02  0.1600E+02
      1.417 -0.7475E-03  0.1600E+02
      1.489 -0.7283E-04  0.1600E+02
      1.561 -0.5404E-05  0.1600E+02
      1.633 -0.3066E-06  0.1600E+02
      1.704 -0.1333E-07  0.1600E+02
      1.776 -0.4454E-09  0.1600E+02
      1.848 -0.1144E-10  0.1600E+02
      1.920 -0.2272E-12  0.1600E+02
      1.992 -0.3091E-14  0.1600E+02
      2.064  0.0000E+00  0.1600E+02
      2.135  0.0000E+00  0.1600E+02
      2.207  0.0000E+00  0.1600E+02
      2.279  0.0000E+00  0.1600E+02
      2.351  0.0000E+00  0.1600E+02
      2.423  0.0000E+00  0.1600E+02
      2.495  0.0000E+00  0.1600E+02
      2.566  0.0000E+00  0.1600E+02
      2.638  0.0000E+00  0.1600E+02
      2.710  0.0000E+00  0.1600E+02
      2.70771958    -18.76837958  301     -8.85312899      1.00000000
    -18.768  0.0000E+00  0.0000E+00
    -18.697  0.0000E+00  0.0000E+00
    -18.625  0.0000E+00  0.0000E+00
    -18.554  0.0000E+00  0.0000E+00
    -18.482  0.0000E+00  0.0000E+00
    -18.410 -0.3421E-27 -0.2449E-28
    -18.339 -0.1024E-24 -0.7356E-26
    -18.267 -0.2373E-22 -0.1706E-23
    -18.196 -0.4246E-20 -0.3057E-21
    -18.124 -0.5862E-18 -0.4227E-19
    -18.053 -0.6244E-16 -0.4512E-17
    -17.981 -0.5127E-14 -0.3716E-15
    -17.909 -0.3152E-12 -0.2293E-13
    -17.838 -0.1527E-10 -0.1116E-11
    -17.766 -0.5694E-09 -0.4188E-10
    -17.695 -0.1630E-07 -0.1209E-08
    -17.623 -0.3574E-06 -0.2679E-07
    -17.551 -0.5986E-05 -0.4553E-06
    -17.480 -0.7632E-04 -0.5919E-05
    -17.408 -0.7367E-03 -0.5866E-04
    -17.337 -0.5339E-02 -0.4409E-03
    -17.265 -0.2865E-01 -0.2492E-02
    -17.193 -0.1110E+00 -0.1044E-01
    -17.122 -0.2930E+00 -0.3141E-01
    -17.050 -0.4388E+00 -0.6282E-01
    -16.979  0.4776E-01 -0.5940E-01
    -16.907  0.2011E+01  0.8457E-01
    -16.836  0.5320E+01  0.4654E+00
    -16.764  0.7988E+01  0.1037E+01
    -16.692  0.7784E+01  0.1594E+01
    -16.621  0.4894E+01  0.1945E+01
    -16.549  0.1677E+01  0.2065E+01
    -16.478 -0.7739E-01  0.2059E+01
    -16.406 -0.4378E+00  0.2028E+01
    -16.334 -0.2664E+00  0.2009E+01
    -16.263 -0.9575E-01  0.2002E+01
    -16.191 -0.2370E-01  0.2000E+01
    -16.120 -0.4252E-02  0.2000E+01
    -16.048 -0.5661E-03  0.2000E+01
    -15.976 -0.5665E-04  0.2000E+01
    -15.905 -0.4295E-05  0.2000E+01
    -15.833 -0.2480E-06  0.2000E+01
    -15.762 -0.1095E-07  0.2000E+01
    -15.690 -0.3701E-09  0.2000E+01
    -15.619 -0.9609E-11  0.2000E+01
    -15.547 -0.1923E-12  0.2000E+01
    -15.475  0.0000E+00  0.2000E+01
    -15.404  0.0000E+00  0.2000E+01
    -15.332  0.0000E+00  0.2000E+01
    -15.261  0.0000E+00  0.2000E+01
    -15.189  0.0000E+00  0.2000E+01
    -15.117  0.0000E+00  0.2000E+01
    -15.046  0.0000E+00  0.2000E+01
    -14.974  0.0000E+00  0.2000E+01
    -14.903  0.0000E+00  0.2000E+01
    -14.831  0.0000E+00  0.2000E+01
    -14.760  0.0000E+00  0.2000E+01
    -14.688  0.0000E+00  0.2000E+01
    -14.616  0.0000E+00  0.2000E+01
    -14.545  0.0000E+00  0.2000E+01
    -14.473  0.0000E+00  0.2000E+01
    -14.402  0.0000E+00  0.2000E+01
    -14.330  0.0000E+00  0.2000E+01
    -14.258  0.0000E+00  0.2000E+01
    -14.187  0.0000E+00  0.2000E+01
    -14.115  0.0000E+00  0.2000E+01
    -14.044  0.0000E+00  0.2000E+01
    -13.972  0.0000E+00  0.2000E+01
    -13.900  0.0000E+00  0.2000E+01
    -13.829  0.0000E+00  0.2000E+01
    -13.757  0.0000E+00  0.2000E+01
    -13.686  0.0000E+00  0.2000E+01
    -13.614  0.0000E+00  0.2000E+01
    -13.543  0.0000E+00  0.2000E+01
    -13.471  0.0000E+00  0.2000E+01
    -13.399  0.0000E+00  0.2000E+01
    -13.328  0.0000E+00  0.2000E+01
    -13.256  0.0000E+00  0.2000E+01
    -13.185  0.0000E+00  0.2000E+01
    -13.113  0.0000E+00  0.2000E+01
    -13.041  0.0000E+00  0.2000E+01
    -12.970  0.0000E+00  0.2000E+01
    -12.898  0.0000E+00  0.2000E+01
    -12.827  0.0000E+00  0.2000E+01
    -12.755  0.0000E+00  0.2000E+01
    -12.683  0.0000E+00  0.2000E+01
    -12.612  0.0000E+00  0.2000E+01
    -12.540  0.0000E+00  0.2000E+01
    -12.469  0.0000E+00  0.2000E+01
    -12.397  0.0000E+00  0.2000E+01
    -12.326  0.0000E+00  0.2000E+01
    -12.254  0.0000E+00  0.2000E+01
    -12.182  0.0000E+00  0.2000E+01
    -12.111  0.0000E+00  0.2000E+01
    -12.039  0.0000E+00  0.2000E+01
    -11.968  0.0000E+00  0.2000E+01
    -11.896  0.0000E+00  0.2000E+01
    -11.824  0.0000E+00  0.2000E+01
    -11.753  0.0000E+00  0.2000E+01
    -11.681  0.0000E+00  0.2000E+01
    -11.610  0.0000E+00  0.2000E+01
    -11.538  0.0000E+00  0.2000E+01
    -11.467  0.0000E+00  0.2000E+01
    -11.395  0.0000E+00  0.2000E+01
    -11.323  0.0000E+00  0.2000E+01
    -11.252  0.0000E+00  0.2000E+01
    -11.180  0.0000E+00  0.2000E+01
    -11.109  0.0000E+00  0.2000E+01
    -11.037  0.0000E+00  0.2000E+01
    -10.965 -0.2021E-26  0.2000E+01
    -10.894 -0.5611E-24  0.2000E+01
    -10.822 -0.1207E-21  0.2000E+01
    -10.751 -0.2006E-19  0.2000E+01
    -10.679 -0.2576E-17  0.2000E+01
    -10.607 -0.2553E-15  0.2000E+01
    -10.536 -0.1953E-13  0.2000E+01
    -10.464 -0.1118E-11  0.2000E+01
    -10.393 -0.5065E-10  0.2000E+01
    -10.321 -0.1768E-08  0.2000E+01
    -10.250 -0.4747E-07  0.2000E+01
    -10.178 -0.9785E-06  0.2000E+01
    -10.106 -0.1545E-04  0.2000E+01
    -10.035 -0.1863E-03  0.2000E+01
     -9.963 -0.1707E-02  0.2000E+01
     -9.892 -0.1178E-01  0.1999E+01
     -9.820 -0.6048E-01  0.1995E+01
     -9.748 -0.2249E+00  0.1979E+01
     -9.677 -0.5712E+00  0.1938E+01
     -9.605 -0.8157E+00  0.1879E+01
     -9.534  0.1711E+00  0.1892E+01
     -9.462  0.3910E+01  0.2171E+01
     -9.390  0.1008E+02  0.2893E+01
     -9.319  0.1508E+02  0.3973E+01
     -9.247  0.1516E+02  0.5058E+01
     -9.176  0.1130E+02  0.5867E+01
     -9.104  0.8094E+01  0.6446E+01
     -9.033  0.7557E+01  0.6987E+01
     -8.961  0.7361E+01  0.7514E+01
     -8.889  0.5294E+01  0.7893E+01
     -8.818  0.2254E+01  0.8054E+01
     -8.746  0.1834E+00  0.8068E+01
     -8.675 -0.4378E+00  0.8036E+01
     -8.603 -0.3282E+00  0.8013E+01
     -8.531 -0.1328E+00  0.8003E+01
     -8.460 -0.3618E-01  0.8001E+01
     -8.388 -0.7075E-02  0.8000E+01
     -8.317 -0.1022E-02  0.8000E+01
     -8.245 -0.1106E-03  0.8000E+01
     -8.174 -0.9055E-05  0.8000E+01
     -8.102 -0.5639E-06  0.8000E+01
     -8.030 -0.2681E-07  0.8000E+01
     -7.959 -0.9761E-09  0.8000E+01
     -7.887 -0.2727E-10  0.8000E+01
     -7.816 -0.5831E-12  0.8000E+01
     -7.744 -0.1241E-13  0.8000E+01
     -7.672  0.0000E+00  0.8000E+01
     -7.601  0.0000E+00  0.8000E+01
     -7.529  0.0000E+00  0.8000E+01
     -7.458  0.0000E+00  0.8000E+01
     -7.386  0.0000E+00  0.8000E+01
     -7.314  0.0000E+00  0.8000E+01
     -7.243  0.0000E+00  0.8000E+01
     -7.171  0.0000E+00  0.8000E+01
     -7.100  0.0000E+00  0.8000E+01
     -7.028  0.0000E+00  0.8000E+01
     -6.957  0.0000E+00  0.8000E+01
     -6.885  0.0000E+00  0.8000E+01
     -6.813  0.0000E+00  0.8000E+01
     -6.742  0.0000E+00  0.8000E+01
     -6.670  0.0000E+00  0.8000E+01
     -6.599  0.0000E+00  0.8000E+01
     -6.527  0.0000E+00  0.8000E+01
     -6.455  0.0000E+00  0.8000E+01
     -6.384  0.0000E+00  0.8000E+01
     -6.312  0.0000E+00  0.8000E+01
     -6.241  0.0000E+00  0.8000E+01
     -6.169  0.0000E+00  0.8000E+01
     -6.097  0.0000E+00  0.8000E+01
     -6.026  0.0000E+00  0.8000E+01
     -5.954  0.0000E+00  0.8000E+01
     -5.883  0.0000E+00  0.8000E+01
     -5.811  0.0000E+00  0.8000E+01
     -5.740  0.0000E+00  0.8000E+01
     -5.668  0.0000E+00  0.8000E+01
     -5.596  0.0000E+00  0.8000E+01
     -5.525  0.0000E+00  0.8000E+01
     -5.453  0.0000E+00  0.8000E+01
     -5.382  0.0000E+00  0.8000E+01
     -5.310  0.0000E+00  0.8000E+01
     -5.238  0.0000E+00  0.8000E+01
     -5.167  0.0000E+00  0.8000E+01
     -5.095  0.0000E+00  0.8000E+01
     -5.024  0.0000E+00  0.8000E+01
     -4.952  0.0000E+00  0.8000E+01
     -4.881  0.0000E+00  0.8000E+01
     -4.809  0.0000E+00  0.8000E+01
     -4.737  0.0000E+00  0.8000E+01
     -4.666  0.0000E+00  0.8000E+01
     -4.594  0.0000E+00  0.8000E+01
     -4.523  0.0000E+00  0.8000E+01
     -4.451  0.0000E+00  0.8000E+01
     -4.379  0.0000E+00  0.8000E+01
     -4.308  0.0000E+00  0.8000E+01
     -4.236  0.0000E+00  0.8000E+01
     -4.165  0.0000E+00  0.8000E+01
     -4.093  0.0000E+00  0.8000E+01
     -4.021  0.0000E+00  0.8000E+01
     -3.950  0.0000E+00  0.8000E+01
     -3.878  0.0000E+00  0.8000E+01
     -3.807  0.0000E+00  0.8000E+01
     -3.735  0.0000E+00  0.8000E+01
     -3.664  0.0000E+00  0.8000E+01
     -3.592  0.0000E+00  0.8000E+01
     -3.520  0.0000E+00  0.8000E+01
     -3.449  0.0000E+00  0.8000E+01
     -3.377  0.0000E+00  0.8000E+01
     -3.306  0.0000E+00  0.8000E+01
     -3.234  0.0000E+00  0.8000E+01
     -3.162  0.0000E+00  0.8000E+01
     -3.091  0.0000E+00  0.8000E+01
     -3.019  0.0000E+00  0.8000E+01
     -2.948  0.0000E+00  0.8000E+01
     -2.876  0.0000E+00  0.8000E+01
     -2.804  0.0000E+00  0.8000E+01
     -2.733  0.0000E+00  0.8000E+01
     -2.661  0.0000E+00  0.8000E+01
     -2.590  0.0000E+00  0.8000E+01
     -2.518  0.0000E+00  0.8000E+01
     -2.447  0.0000E+00  0.8000E+01
     -2.375  0.0000E+00  0.8000E+01
     -2.303  0.0000E+00  0.8000E+01
     -2.232  0.0000E+00  0.8000E+01
     -2.160  0.0000E+00  0.8000E+01
     -2.089  0.0000E+00  0.8000E+01
     -2.017 -0.8902E-29  0.8000E+01
     -1.945 -0.8780E-26  0.8000E+01
     -1.874 -0.2271E-23  0.8000E+01
     -1.802 -0.4543E-21  0.8000E+01
     -1.731 -0.7018E-19  0.8000E+01
     -1.659 -0.8364E-17  0.8000E+01
     -1.588 -0.7689E-15  0.8000E+01
     -1.516 -0.5294E-13  0.8000E+01
     -1.444 -0.2878E-11  0.8000E+01
     -1.373 -0.1204E-09  0.8000E+01
     -1.301 -0.3867E-08  0.8000E+01
     -1.230 -0.9527E-07  0.8000E+01
     -1.158 -0.1795E-05  0.8000E+01
     -1.086 -0.2580E-04  0.8000E+01
     -1.015 -0.2816E-03  0.8000E+01
     -0.943 -0.2316E-02  0.8000E+01
     -0.872 -0.1421E-01  0.7999E+01
     -0.800 -0.6378E-01  0.7994E+01
     -0.728 -0.2015E+00  0.7980E+01
     -0.657 -0.4041E+00  0.7951E+01
     -0.585 -0.3025E+00  0.7929E+01
     -0.514  0.9311E+00  0.7996E+01
     -0.442  0.3784E+01  0.8267E+01
     -0.371  0.7062E+01  0.8772E+01
     -0.299  0.8286E+01  0.9365E+01
     -0.227  0.6368E+01  0.9821E+01
     -0.156  0.2980E+01  0.1003E+02
     -0.084  0.4847E+00  0.1007E+02
     -0.013 -0.4031E+00  0.1004E+02
      0.059 -0.4051E+00  0.1001E+02
      0.131 -0.3265E+00  0.9988E+01
      0.202 -0.4945E+00  0.9953E+01
      0.274 -0.7641E+00  0.9898E+01
      0.345 -0.3687E+00  0.9872E+01
      0.417  0.2045E+01  0.1002E+02
      0.489  0.7400E+01  0.1055E+02
      0.560  0.1459E+02  0.1159E+02
      0.632  0.2012E+02  0.1303E+02
      0.703  0.2033E+02  0.1449E+02
      0.775  0.1478E+02  0.1555E+02
      0.846  0.7067E+01  0.1605E+02
      0.918  0.1446E+01  0.1616E+02
      0.990 -0.7497E+00  0.1610E+02
      1.061 -0.8390E+00  0.1604E+02
      1.133 -0.4118E+00  0.1601E+02
      1.204 -0.1322E+00  0.1600E+02
      1.276 -0.3029E-01  0.1600E+02
      1.348 -0.5127E-02  0.1600E+02
      1.419 -0.6519E-03  0.1600E+02
      1.491 -0.6288E-04  0.1600E+02
      1.562 -0.4628E-05  0.1600E+02
      1.634 -0.2610E-06  0.1600E+02
      1.706 -0.1130E-07  0.1600E+02
      1.777 -0.3768E-09  0.1600E+02
      1.849 -0.9674E-11  0.1600E+02
      1.920 -0.1923E-12  0.1600E+02
      1.992 -0.3102E-14  0.1600E+02
      2.063  0.0000E+00  0.1600E+02
      2.135  0.0000E+00  0.1600E+02
      2.207  0.0000E+00  0.1600E+02
      2.278  0.0000E+00  0.1600E+02
      2.350  0.0000E+00  0.1600E+02
      2.421  0.0000E+00  0.1600E+02
      2.493  0.0000E+00  0.1600E+02
      2.565  0.0000E+00  0.1600E+02
      2.636  0.0000E+00  0.1600E+02
      2.708  0.0000E+00  0.1600E+02
      2.70938038    -18.86858357  301     -8.77962368      1.00000000
    -18.869  0.0000E+00  0.0000E+00
    -18.797  0.0000E+00  0.0000E+00
    -18.725  0.0000E+00  0.0000E+00
    -18.653  0.0000E+00  0.0000E+00
    -18.581  0.0000E+00  0.0000E+00
    -18.509 -0.3910E-27 -0.2813E-28
    -18.437 -0.1195E-24 -0.8621E-26
    -18.365 -0.2818E-22 -0.2036E-23
    -18.293 -0.5120E-20 -0.3703E-21
    -18.221 -0.7161E-18 -0.5188E-19
    -18.149 -0.7707E-16 -0.5595E-17
    -18.077 -0.6379E-14 -0.4644E-15
    -18.005 -0.3936E-12 -0.2877E-13
    -17.934 -0.1915E-10 -0.1406E-11
    -17.862 -0.7143E-09 -0.5279E-10
    -17.790 -0.2040E-07 -0.1520E-08
    -17.718 -0.4450E-06 -0.3353E-07
    -17.646 -0.7397E-05 -0.5656E-06
    -17.574 -0.9331E-04 -0.7277E-05
    -17.502 -0.8882E-03 -0.7116E-04
    -17.430 -0.6325E-02 -0.5261E-03
    -17.358 -0.3320E-01 -0.2914E-02
    -17.286 -0.1249E+00 -0.1190E-01
    -17.214 -0.3161E+00 -0.3464E-01
    -17.142 -0.4317E+00 -0.6569E-01
    -17.070  0.1883E+00 -0.5214E-01
    -16.998  0.2363E+01  0.1178E+00
    -16.927  0.5747E+01  0.5312E+00
    -16.855  0.8150E+01  0.1117E+01
    -16.783  0.7509E+01  0.1658E+01
    -16.711  0.4404E+01  0.1974E+01
    -16.639  0.1316E+01  0.2069E+01
    -16.567 -0.1995E+00  0.2055E+01
    -16.495 -0.4260E+00  0.2024E+01
    -16.423 -0.2331E+00  0.2007E+01
    -16.351 -0.7805E-01  0.2002E+01
    -16.279 -0.1815E-01  0.2000E+01
    -16.207 -0.3066E-02  0.2000E+01
    -16.135 -0.3843E-03  0.2000E+01
    -16.063 -0.3618E-04  0.2000E+01
    -15.992 -0.2577E-05  0.2000E+01
    -15.920 -0.1395E-06  0.2000E+01
    -15.848 -0.5760E-08  0.2000E+01
    -15.776 -0.1818E-09  0.2000E+01
    -15.704 -0.4398E-11  0.2000E+01
    -15.632 -0.8026E-13  0.2000E+01
    -15.560  0.0000E+00  0.2000E+01
    -15.488  0.0000E+00  0.2000E+01
    -15.416  0.0000E+00  0.2000E+01
    -15.344  0.0000E+00  0.2000E+01
    -15.272  0.0000E+00  0.2000E+01
    -15.200  0.0000E+00  0.2000E+01
    -15.128  0.0000E+00  0.2000E+01
    -15.056  0.0000E+00  0.2000E+01
    -14.985  0.0000E+00  0.2000E+01
    -14.913  0.0000E+00  0.2000E+01
    -14.841  0.0000E+00  0.2000E+01
    -14.769  0.0000E+00  0.2000E+01
    -14.697  0.0000E+00  0.2000E+01
    -14.625  0.0000E+00  0.2000E+01
    -14.553  0.0000E+00  0.2000E+01
    -14.481  0.0000E+00  0.2000E+01
    -14.409  0.0000E+00  0.2000E+01
    -14.337  0.0000E+00  0.2000E+01
    -14.265  0.0000E+00  0.2000E+01
    -14.193  0.0000E+00  0.2000E+01
    -14.121  0.0000E+00  0.2000E+01
    -14.050  0.0000E+00  0.2000E+01
    -13.978  0.0000E+00  0.2000E+01
    -13.906  0.0000E+00  0.2000E+01
    -13.834  0.0000E+00  0.2000E+01
    -13.762  0.0000E+00  0.2000E+01
    -13.690  0.0000E+00  0.2000E+01
    -13.618  0.0000E+00  0.2000E+01
    -13.546  0.0000E+00  0.2000E+01
    -13.474  0.0000E+00  0.2000E+01
    -13.402  0.0000E+00  0.2000E+01
    -13.330  0.0000E+00  0.2000E+01
    -13.258  0.0000E+00  0.2000E+01
    -13.186  0.0000E+00  0.2000E+01
    -13.114  0.0000E+00  0.2000E+01
    -13.043  0.0000E+00  0.2000E+01
    -12.971  0.0000E+00  0.2000E+01
    -12.899  0.0000E+00  0.2000E+01
    -12.827  0.0000E+00  0.2000E+01
    -12.755  0.0000E+00  0.2000E+01
    -12.683  0.0000E+00  0.2000E+01
    -12.611  0.0000E+00  0.2000E+01
    -12.539  0.0000E+00  0.2000E+01
    -12.467  0.0000E+00  0.2000E+01
    -12.395  0.0000E+00  0.2000E+01
    -12.323  0.0000E+00  0.2000E+01
    -12.251  0.0000E+00  0.2000E+01
    -12.179  0.0000E+00  0.2000E+01
    -12.107  0.0000E+00  0.2000E+01
    -12.036  0.0000E+00  0.2000E+01
    -11.964  0.0000E+00  0.2000E+01
    -11.892  0.0000E+00  0.2000E+01
    -11.820  0.0000E+00  0.2000E+01
    -11.748  0.0000E+00  0.2000E+01
    -11.676  0.0000E+00  0.2000E+01
    -11.604  0.0000E+00  0.2000E+01
    -11.532  0.0000E+00  0.2000E+01
    -11.460  0.0000E+00  0.2000E+01
    -11.388  0.0000E+00  0.2000E+01
    -11.316  0.0000E+00  0.2000E+01
    -11.244  0.0000E+00  0.2000E+01
    -11.172  0.0000E+00  0.2000E+01
    -11.101 -0.6663E-26  0.2000E+01
    -11.029 -0.1791E-23  0.2000E+01
    -10.957 -0.3718E-21  0.2000E+01
    -10.885 -0.5943E-19  0.2000E+01
    -10.813 -0.7311E-17  0.2000E+01
    -10.741 -0.6920E-15  0.2000E+01
    -10.669 -0.4882E-13  0.2000E+01
    -10.597 -0.2725E-11  0.2000E+01
    -10.525 -0.1165E-09  0.2000E+01
    -10.453 -0.3814E-08  0.2000E+01
    -10.381 -0.9556E-07  0.2000E+01
    -10.309 -0.1827E-05  0.2000E+01
    -10.237 -0.2659E-04  0.2000E+01
    -10.165 -0.2933E-03  0.2000E+01
    -10.094 -0.2437E-02  0.2000E+01
    -10.022 -0.1511E-01  0.1999E+01
     -9.950 -0.6884E-01  0.1994E+01
     -9.878 -0.2233E+00  0.1978E+01
     -9.806 -0.4775E+00  0.1943E+01
     -9.734 -0.4891E+00  0.1908E+01
     -9.662  0.6231E+00  0.1953E+01
     -9.590  0.3696E+01  0.2219E+01
     -9.518  0.8265E+01  0.2813E+01
     -9.446  0.1223E+02  0.3693E+01
     -9.374  0.1328E+02  0.4648E+01
     -9.302  0.1070E+02  0.5418E+01
     -9.230  0.6047E+01  0.5853E+01
     -9.158  0.2343E+01  0.6022E+01
     -9.087  0.2012E+01  0.6167E+01
     -9.015  0.4770E+01  0.6510E+01
     -8.943  0.7617E+01  0.7057E+01
     -8.871  0.7611E+01  0.7605E+01
     -8.799  0.4794E+01  0.7950E+01
     -8.727  0.1613E+01  0.8066E+01
     -8.655 -0.1019E+00  0.8058E+01
     -8.583 -0.4362E+00  0.8027E+01
     -8.511 -0.2588E+00  0.8008E+01
     -8.439 -0.9113E-01  0.8002E+01
     -8.367 -0.2209E-01  0.8000E+01
     -8.295 -0.3875E-02  0.8000E+01
     -8.223 -0.5035E-03  0.8000E+01
     -8.152 -0.4906E-04  0.8000E+01
     -8.080 -0.3614E-05  0.8000E+01
     -8.008 -0.2023E-06  0.8000E+01
     -7.936 -0.8635E-08  0.8000E+01
     -7.864 -0.2817E-09  0.8000E+01
     -7.792 -0.7040E-11  0.8000E+01
     -7.720 -0.1358E-12  0.8000E+01
     -7.648  0.0000E+00  0.8000E+01
     -7.576  0.0000E+00  0.8000E+01
     -7.504  0.0000E+00  0.8000E+01
     -7.432  0.0000E+00  0.8000E+01
     -7.360  0.0000E+00  0.8000E+01
     -7.288  0.0000E+00  0.8000E+01
     -7.216  0.0000E+00  0.8000E+01
     -7.145  0.0000E+00  0.8000E+01
     -7.073  0.0000E+00  0.8000E+01
     -7.001  0.0000E+00  0.8000E+01
     -6.929  0.0000E+00  0.8000E+01
     -6.857  0.0000E+00  0.8000E+01
     -6.785  0.0000E+00  0.8000E+01
     -6.713  0.0000E+00  0.8000E+01
     -6.641  0.0000E+00  0.8000E+01
     -6.569  0.0000E+00  0.8000E+01
     -6.497  0.0000E+00  0.8000E+01
     -6.425  0.0000E+00  0.8000E+01
     -6.353  0.0000E+00  0.8000E+01
     -6.281  0.0000E+00  0.8000E+01
     -6.210  0.0000E+00  0.8000E+01
     -6.138  0.0000E+00  0.8000E+01
     -6.066  0.0000E+00  0.8000E+01
     -5.994  0.0000E+00  0.8000E+01
     -5.922  0.0000E+00  0.8000E+01
     -5.850  0.0000E+00  0.8000E+01
     -5.778  0.0000E+00  0.8000E+01
     -5.706  0.0000E+00  0.8000E+01
     -5.634  0.0000E+00  0.8000E+01
     -5.562  0.0000E+00  0.8000E+01
     -5.490  0.0000E+00  0.8000E+01
     -5.418  0.0000E+00  0.8000E+01
     -5.346  0.0000E+00  0.8000E+01
     -5.274  0.0000E+00  0.8000E+01
     -5.203  0.0000E+00  0.8000E+01
     -5.131  0.0000E+00  0.8000E+01
     -5.059  0.0000E+00  0.8000E+01
     -4.987  0.0000E+00  0.8000E+01
     -4.915  0.0000E+00  0.8000E+01
     -4.843  0.0000E+00  0.8000E+01
     -4.771  0.0000E+00  0.8000E+01
     -4.699  0.0000E+00  0.8000E+01
     -4.627  0.0000E+00  0.8000E+01
     -4.555  0.0000E+00  0.8000E+01
     -4.483  0.0000E+00  0.8000E+01
     -4.411  0.0000E+00  0.8000E+01
     -4.339  0.0000E+00  0.8000E+01
     -4.267  0.0000E+00  0.8000E+01
     -4.196  0.0000E+00  0.8000E+01
     -4.124  0.0000E+00  0.8000E+01
     -4.052  0.0000E+00  0.8000E+01
     -3.980  0.0000E+00  0.8000E+01
     -3.908  0.0000E+00  0.8000E+01
     -3.836  0.0000E+00  0.8000E+01
     -3.764  0.0000E+00  0.8000E+01
     -3.692  0.0000E+00  0.8000E+01
     -3.620  0.0000E+00  0.8000E+01
     -3.548  0.0000E+00  0.8000E+01
     -3.476  0.0000E+00  0.8000E+01
     -3.404  0.0000E+00  0.8000E+01
     -3.332  0.0000E+00  0.8000E+01
     -3.261  0.0000E+00  0.8000E+01
     -3.189  0.0000E+00  0.8000E+01
     -3.117  0.0000E+00  0.8000E+01