    5    5    1    1
  0.2037848E+03  0.1028348E-08  0.9844415E-09  0.1006960E-08  0.2000000E-14
   50.000000000000000     
  CAR 
 unknown system                          
      8      4      8

  0.2500000E+00  0.2500000E+00  0.2500000E+00  0.2500000E+00
    1      -16.824361   1.000000
    2       -9.520534   1.000003
    3       -9.272356   1.002606
    4       -8.976687   0.997434
    5       -0.342276   0.000000
    6        0.545950   0.000000
    7        0.659517   0.000000
    8        0.706268   0.000000

 -0.2500000E+00  0.2500000E+00  0.2500000E+00  0.2500000E+00
    1      -16.824359   1.000000
    2       -9.520284   1.000003
    3       -9.272306   1.002609
    4       -8.976577   0.997308
    5       -0.345017   0.000000
    6        0.550867   0.000000
    7        0.664903   0.000000
    8        0.710324   0.000000

  0.2500000E+00 -0.2500000E+00  0.2500000E+00  0.2500000E+00
    1      -16.824365   1.000000
    2       -9.520441   1.000003
    3       -9.272298   1.002609
    4       -8.976620   0.997357
    5       -0.338303   0.000000
    6        0.527260   0.000000
    7        0.660294   0.000000
    8        0.696216   0.000000

 -0.2500000E+00 -0.2500000E+00  0.2500000E+00  0.2500000E+00
    1      -16.824384   1.000000
    2       -9.520520   1.000003
    3       -9.272421   1.002603
    4       -8.976712   0.997463
    5       -0.336776   0.000000
    6        0.540096   0.000000
    7        0.644442   0.000000
    8        0.688944   0.000000
