 vasp.5.4.4.18Apr17-6-g9f103f2a35 (build Jul 12 2018 13:43:46) complex           
 executed on             LinuxGNU date 2019.06.22  02:17:35
 running on    1 total cores
 distrk:  each k-point on    1 cores,    1 groups
 distr:  one band on NCORES_PER_BAND=   1 cores,    1 groups


--------------------------------------------------------------------------------------------------------


 INCAR:
 POTCAR:    PAW_PBE H 15Jun2001                   
 POTCAR:    PAW_PBE C 08Apr2002                   
 POTCAR:    PAW_PBE H 15Jun2001                   
   VRHFIN =H: ultrasoft test                                                    
   LEXCH  = PE                                                                  
   EATOM  =    12.4884 eV,    0.9179 Ry                                         
                                                                                
   TITEL  = PAW_PBE H 15Jun2001                                                 
   LULTRA =        F    use ultrasoft PP ?                                      
   IUNSCR =        0    unscreen: 0-lin 1-nonlin 2-no                           
   RPACOR =    0.000    partial core radius                                     
   POMASS =    1.000; ZVAL   =    1.000    mass and valenz                      
   RCORE  =    1.100    outmost cutoff radius                                   
   RWIGS  =    0.700; RWIGS  =    0.370    wigner-seitz radius (au A)           
   ENMAX  =  250.000; ENMIN  =  200.000 eV                                      
   RCLOC  =    0.701    cutoff for local pot                                    
   LCOR   =        T    correct aug charges                                     
   LPAW   =        T    paw PP                                                  
   EAUG   =  400.000                                                            
   RMAX   =    1.123    core radius for proj-oper                               
   RAUG   =    1.200    factor for augmentation sphere                          
   RDEP   =    1.112    radius for radial grids                                 
   RDEPT  =    0.926    core radius for aug-charge                              
                                                                                
   Atomic configuration                                                         
    2 entries                                                                   
     n  l   j            E        occ.                                          
     1  0  0.50        -6.4927   1.0000                                         
     2  1  0.50        -3.4015   0.0000                                         
   Description                                                                  
     l       E           TYP  RCUT    TYP  RCUT                                 
     0     -6.4927494     23  1.100                                             
     0      6.8029130     23  1.100                                             
     1     -4.0817478     23  1.100                                             
  local pseudopotential read in
  atomic valenz-charges read in
  non local Contribution for L=           0  read in
    real space projection operators read in
  non local Contribution for L=           0  read in
    real space projection operators read in
  non local Contribution for L=           1  read in
    real space projection operators read in
    PAW grid and wavefunctions read in

   number of l-projection  operators is LMAX  =           3
   number of lm-projection operators is LMMAX =           5

 POTCAR:    PAW_PBE C 08Apr2002                   
   VRHFIN =C: s2p2                                                              
   LEXCH  = PE                                                                  
   EATOM  =   147.1560 eV,   10.8157 Ry                                         
                                                                                
   TITEL  = PAW_PBE C 08Apr2002                                                 
   LULTRA =        F    use ultrasoft PP ?                                      
   IUNSCR =        1    unscreen: 0-lin 1-nonlin 2-no                           
   RPACOR =    1.200    partial core radius                                     
   POMASS =   12.011; ZVAL   =    4.000    mass and valenz                      
   RCORE  =    1.500    outmost cutoff radius                                   
   RWIGS  =    1.630; RWIGS  =    0.863    wigner-seitz radius (au A)           
   ENMAX  =  400.000; ENMIN  =  300.000 eV                                      
   ICORE  =        2    local potential                                         
   LCOR   =        T    correct aug charges                                     
   LPAW   =        T    paw PP                                                  
   EAUG   =  644.873                                                            
   DEXC   =    0.000                                                            
   RMAX   =    1.529    core radius for proj-oper                               
   RAUG   =    1.300    factor for augmentation sphere                          
   RDEP   =    1.501    radius for radial grids                                 
   RDEPT  =    1.300    core radius for aug-charge                              
                                                                                
   Atomic configuration                                                         
    4 entries                                                                   
     n  l   j            E        occ.                                          
     1  0  0.50      -273.3789   2.0000                                         
     2  0  0.50       -13.7508   2.0000                                         
     2  1  0.50        -5.2854   2.0000                                         
     3  2  1.50        -5.4423   0.0000                                         
   Description                                                                  
     l       E           TYP  RCUT    TYP  RCUT                                 
     0    -13.7508458     23  1.200                                             
     0     -8.2022199     23  1.200                                             
     1     -5.2854383     23  1.500                                             
     1     34.0145650     23  1.500                                             
     2     -5.4423304      7  1.500                                             
  local pseudopotential read in
  partial core-charges read in
  partial kinetic energy density read in
  atomic valenz-charges read in
  non local Contribution for L=           0  read in
    real space projection operators read in
  non local Contribution for L=           0  read in
    real space projection operators read in
  non local Contribution for L=           1  read in
    real space projection operators read in
  non local Contribution for L=           1  read in
    real space projection operators read in
    PAW grid and wavefunctions read in

   number of l-projection  operators is LMAX  =           4
   number of lm-projection operators is LMMAX =           8


 ----------------------------------------------------------------------------- 
|                                                                             |
|  ADVICE TO THIS USER RUNNING 'VASP/VAMP'   (HEAR YOUR MASTER'S VOICE ...):  |
|                                                                             |
|      You have a (more or less) 'small supercell' and for smaller cells      |
|      it is recommended  to use the reciprocal-space projection scheme!      |
|      The real space optimization is not  efficient for small cells and it   |
|      is also less accurate ...                                              |
|      Therefore set LREAL=.FALSE. in the  INCAR file                         |
|                                                                             |
 ----------------------------------------------------------------------------- 


 ----------------------------------------------------------------------------- 
|                                                                             |
|           W    W    AA    RRRRR   N    N  II  N    N   GGGG   !!!           |
|           W    W   A  A   R    R  NN   N  II  NN   N  G    G  !!!           |
|           W    W  A    A  R    R  N N  N  II  N N  N  G       !!!           |
|           W WW W  AAAAAA  RRRRR   N  N N  II  N  N N  G  GGG   !            |
|           WW  WW  A    A  R   R   N   NN  II  N   NN  G    G                |
|           W    W  A    A  R    R  N    N  II  N    N   GGGG   !!!           |
|                                                                             |
|     The real-space-projection scheme for the treatment of the nonlocal      |
|     pseudopotentials has been switched on -- but on file POTCAR I have      |
|     not found any entries signalling me that you have ever performed a      |
|     real-space optimization of all nonlocal projectors! BE WARNED that      |
|     a calculation using the real-space-projection scheme together with      |
|     nonlocal projectors which were not real-space-optimized (according      |
|     to the plane-wave-cutoff used in this calculation) might give more      |
|     or less inaccurate results                                              |
|     I hope you know what you are doing                                      |
|                                                                             |
 ----------------------------------------------------------------------------- 

  PAW_PBE H 15Jun2001                   :
 energy of atom  1       EATOM=  -12.4884
 kinetic energy error for atom=    0.0098 (will be added to EATOM!!)
  PAW_PBE C 08Apr2002                   :
 energy of atom  2       EATOM= -147.1560
 kinetic energy error for atom=    0.0288 (will be added to EATOM!!)


 POSCAR:  H  C                                   
  positions in cartesian coordinates
  No initial velocities read in
 exchange correlation table for  LEXCH =        8
   RHO(1)=    0.500       N(1)  =     2000
   RHO(2)=  100.500       N(2)  =     4000



--------------------------------------------------------------------------------------------------------


 ion  position               nearest neighbor table
   1  0.538  0.406  0.361-   5 1.12
   2  0.395  0.481  0.439-   5 1.13
   3  0.552  0.565  0.443-   5 1.08
   4  0.528  0.417  0.540-   5 1.09
   5  0.503  0.468  0.446-   3 1.08   4 1.09   1 1.12   2 1.13


IMPORTANT INFORMATION: All symmetrisations will be switched off!
NOSYMM: (Re-)initialisation of all symmetry stuff for point group C_1.




Automatic generation of k-mesh.
 generate k-points for:    2    2    2
Space group operators:
 irot       det(A)        alpha          n_x          n_y          n_z        tau_x        tau_y        tau_z
    1     1.000000     0.000000     1.000000     0.000000     0.000000     0.000000     0.000000     0.000000
 
 Subroutine IBZKPT returns following result:
 ===========================================
 
 Found      4 irreducible k-points:
 
 Following reciprocal coordinates:
            Coordinates               Weight
  0.250000  0.250000  0.250000      2.000000
 -0.250000  0.250000  0.250000      2.000000
  0.250000 -0.250000  0.250000      2.000000
 -0.250000 -0.250000  0.250000      2.000000
 
 Following cartesian coordinates:
            Coordinates               Weight
  0.024311  0.025688  0.024133      2.000000
 -0.024311  0.025106  0.024123      2.000000
  0.024311 -0.025106  0.025551      2.000000
 -0.024311 -0.025688  0.025541      2.000000
 


--------------------------------------------------------------------------------------------------------




 Dimension of arrays:
   k-points           NKPTS =      4   k-points in BZ     NKDIM =      4   number of bands    NBANDS=      8
   number of dos      NEDOS =    301   number of ions     NIONS =      5
   non local maximal  LDIM  =      4   non local SUM 2l+1 LMDIM =      8
   total plane-waves  NPLWV = 313600
   max r-space proj   IRMAX =    732   max aug-charges    IRDMAX=   3831
   dimension x,y,z NGX =    70 NGY =   64 NGZ =   70
   dimension x,y,z NGXF=   140 NGYF=  128 NGZF=  140
   support grid    NGXF=   140 NGYF=  128 NGZF=  140
   ions per type =               4   1
   NGX,Y,Z   is equivalent  to a cutoff of  11.32, 10.81, 11.56 a.u.
   NGXF,Y,Z  is equivalent  to a cutoff of  22.63, 21.62, 23.11 a.u.

 SYSTEM =  unknown system                          
 POSCAR =   H  C                                   

 Startparameter for this run:
   NWRITE =      2    write-flag & timer
   PREC   = a         normal or accurate (medium, high low for compatibility)
   ISTART =      0    job   : 0-new  1-cont  2-samecut
   ICHARG =      2    charge: 1-file 2-atom 10-const
   ISPIN  =      1    spin polarized calculation?
   LNONCOLLINEAR =      F non collinear calculations
   LSORBIT =      F    spin-orbit coupling
   INIWAV =      1    electr: 0-lowe 1-rand  2-diag
   LASPH  =      F    aspherical Exc in radial PAW
   METAGGA=      F    non-selfconsistent MetaGGA calc.

 Electronic Relaxation 1
   ENCUT  =  400.0 eV  29.40 Ry    5.42 a.u.  16.77 16.05 16.42*2*pi/ulx,y,z
   ENINI  =  400.0     initial cutoff
   ENAUG  =  644.9 eV  augmentation charge cutoff
   NELM   =     60;   NELMIN=  2; NELMDL= -5     # of ELM steps 
   EDIFF  = 0.1E-05   stopping-criterion for ELM
   LREAL  =      T    real-space projection
   NLSPLINE    = F    spline interpolate recip. space projectors
   LCOMPAT=      F    compatible to vasp.4.4
   GGA_COMPAT  = T    GGA compatible to vasp.4.4-vasp.4.6
   LMAXPAW     = -100 max onsite density
   LMAXMIX     =    2 max onsite mixed and CHGCAR
   VOSKOWN=      0    Vosko Wilk Nusair interpolation
   ROPT   =    0.00000   0.00000
 Ionic relaxation
   EDIFFG = 0.1E-04   stopping-criterion for IOM
   NSW    =     10    number of steps for IOM
   NBLOCK =      1;   KBLOCK =      1    inner block; outer block 
   IBRION =      0    ionic relax: 0-MD 1-quasi-New 2-CG
   NFREE  =      0    steps in history (QN), initial steepest desc. (CG)
   ISIF   =      2    stress and relaxation
   IWAVPR =     12    prediction:  0-non 1-charg 2-wave 3-comb
   ISYM   =      0    0-nonsym 1-usesym 2-fastsym
   LCORR  =      T    Harris-Foulkes like correction to forces

   POTIM  = 2.0000    time-step for ionic-motion
   TEIN   =   50.0    initial temperature
   TEBEG  =   50.0;   TEEND  =  50.0 temperature during run
   SMASS  =   0.00    Nose mass-parameter (am)
   estimated Nose-frequenzy (Omega)   =  0.79E+14 period in steps = 40.00 mass=   0.123E-29a.u.
   SCALEE = 1.0000    scale energy and forces
   NPACO  =    256;   APACO  = 16.0  distance and # of slots for P.C.
   PSTRESS=    0.0 pullay stress

  Mass of Ions in am
   POMASS =   1.00 12.01
  Ionic Valenz
   ZVAL   =   1.00  4.00
  Atomic Wigner-Seitz radii
   RWIGS  =  -1.00 -1.00
  virtual crystal weights 
   VCA    =   1.00  1.00
   NELECT =       8.0000    total number of electrons
   NUPDOWN=      -1.0000    fix difference up-down

 DOS related values:
   EMIN   =  10.00;   EMAX   =-10.00  energy-range for DOS
   EFERMI =   0.00
   ISMEAR =     1;   SIGMA  =   0.20  broadening in eV -4-tet -1-fermi 0-gaus

 Electronic relaxation 2 (details)
   IALGO  =     68    algorithm
   LDIAG  =      T    sub-space diagonalisation (order eigenvalues)
   LSUBROT=      F    optimize rotation matrix (better conditioning)
   TURBO    =      0    0=normal 1=particle mesh
   IRESTART =      0    0=no restart 2=restart with 2 vectors
   NREBOOT  =      0    no. of reboots
   NMIN     =      0    reboot dimension
   EREF     =   0.00    reference energy to select bands
   IMIX   =      4    mixing-type and parameters
     AMIX     =   0.40;   BMIX     =  1.00
     AMIX_MAG =   1.60;   BMIX_MAG =  1.00
     AMIN     =   0.10
     WC   =   100.;   INIMIX=   1;  MIXPRE=   1;  MAXMIX=  50

 Intra band minimization:
   WEIMIN = 0.0010     energy-eigenvalue tresh-hold
   EBREAK =  0.31E-07  absolut break condition
   DEPER  =   0.30     relativ break condition  

   TIME   =   0.40     timestep for ELM

  volume/ion in A,a.u.               =     203.78      1375.21
  Fermi-wavevector in a.u.,A,eV,Ry     =   0.325380  0.614879  1.440478  0.105872
  Thomas-Fermi vector in A             =   1.216324

 Write flags
   LWAVE        =      F    write WAVECAR
   LDOWNSAMPLE  =      F    k-point downsampling of WAVECAR
   LCHARG       =      F    write CHGCAR
   LVTOT        =      F    write LOCPOT, total local potential
   LVHAR        =      F    write LOCPOT, Hartree potential only
   LELF         =      F    write electronic localiz. function (ELF)
   LORBIT       =      0    0 simple, 1 ext, 2 COOP (PROOUT), +10 PAW based schemes


 Dipole corrections
   LMONO  =      F    monopole corrections only (constant potential shift)
   LDIPOL =      F    correct potential (dipole corrections)
   IDIPOL =      0    1-x, 2-y, 3-z, 4-all directions 
   EPSILON=  1.0000000 bulk dielectric constant

 Exchange correlation treatment:
   GGA     =    --    GGA type
   LEXCH   =     8    internal setting for exchange type
   VOSKOWN=      0    Vosko Wilk Nusair interpolation
   LHFCALC =     F    Hartree Fock is set to
   LHFONE  =     F    Hartree Fock one center treatment
   AEXX    =    0.0000 exact exchange contribution

 Linear response parameters
   LEPSILON=     F    determine dielectric tensor
   LRPA    =     F    only Hartree local field effects (RPA)
   LNABLA  =     F    use nabla operator in PAW spheres
   LVEL    =     F    velocity operator in full k-point grid
   LINTERFAST=   F  fast interpolation
   KINTER  =     0    interpolate to denser k-point grid
   CSHIFT  =0.1000    complex shift for real part using Kramers Kronig
   OMEGAMAX=  -1.0    maximum frequency
   DEG_THRESHOLD= 0.2000000E-02 threshold for treating states as degnerate
   RTIME   =   -0.100 relaxation time in fs
  (WPLASMAI=    0.000 imaginary part of plasma frequency in eV, 0.658/RTIME)
   DFIELD  = 0.0000000 0.0000000 0.0000000 field for delta impulse in time

 Orbital magnetization related:
   ORBITALMAG=     F  switch on orbital magnetization
   LCHIMAG   =     F  perturbation theory with respect to B field
   DQ        =  0.001000  dq finite difference perturbation B field
   LLRAUG    =     F  two centre corrections for induced B field



--------------------------------------------------------------------------------------------------------


 molecular dynamics for ions
   using nose mass (canonical ensemble)
 charge density and potential will be updated during run
 non-spin polarized calculation
 RMM-DIIS sequential band-by-band and
  variant of blocked Davidson during initial phase
 perform sub-space diagonalisation
    before iterative eigenvector-optimisation
 modified Broyden-mixing scheme, WC =      100.0
 initial mixing is a Kerker type mixing with AMIX =  0.4000 and BMIX =      1.0000
 Hartree-type preconditioning will be used
 using additional bands            4
 real space projection scheme for non local part
 use partial core corrections
 calculate Harris-corrections to forces   (improved forces if not selfconsistent)
 use gradient corrections 
 use of overlap-Matrix (Vanderbilt PP)
 Methfessel and Paxton  Order N= 1 SIGMA  =   0.20


--------------------------------------------------------------------------------------------------------


  energy-cutoff  :      400.00
  volume of cell :     1018.92
      direct lattice vectors                 reciprocal lattice vectors
    10.283480482  0.000000000  0.000000000     0.097243341  0.001163547  0.000020009
    -0.117783045  9.843710392  0.000000000     0.000000000  0.101587710 -0.002836679
    -0.005434156  0.281068357 10.065675731     0.000000000 -0.000000000  0.099347528

  length of vectors
    10.283480482  9.844415023 10.069600631     0.097250304  0.101627308  0.099347528



 k-points in units of 2pi/SCALE and weight: read from INCAR                         
   0.02431084  0.02568781  0.02413271       0.250
  -0.02431084  0.02510604  0.02412271       0.250
   0.02431084 -0.02510604  0.02555105       0.250
  -0.02431084 -0.02568781  0.02554105       0.250

 k-points in reciprocal lattice and weights: read from INCAR                         
   0.25000000  0.25000000  0.25000000       0.250
  -0.25000000  0.25000000  0.25000000       0.250
   0.25000000 -0.25000000  0.25000000       0.250
  -0.25000000 -0.25000000  0.25000000       0.250

 position of ions in fractional coordinates (direct lattice) 
   0.53801296  0.40649384  0.36056490
   0.39455684  0.48065054  0.43858568
   0.55200784  0.56541455  0.44266907
   0.52820302  0.41705677  0.53955335
   0.50307336  0.46755915  0.44555439

 position of ions in cartesian coordinates  (Angst):
   5.48280828  4.10275100  3.62932933
   3.99842173  4.85465724  4.41466124
   5.60756005  5.69019731  4.45576335
   5.37971117  4.25703743  5.43096906
   5.11585327  4.72774814  4.48480606



--------------------------------------------------------------------------------------------------------


 k-point  1 :   0.2500 0.2500 0.2500  plane waves:   18519
 k-point  2 :  -0.2500 0.2500 0.2500  plane waves:   18487
 k-point  3 :   0.2500-0.2500 0.2500  plane waves:   18493
 k-point  4 :  -0.2500-0.2500 0.2500  plane waves:   18528

 maximum and minimum number of plane-waves per node :     18528    18487

 maximum number of plane-waves:     18528
 maximum index in each direction: 
   IXMAX=   17   IYMAX=   16   IZMAX=   16
   IXMIN=  -17   IYMIN=  -16   IZMIN=  -16


 serial   3D FFT for wavefunctions
 parallel 3D FFT for charge:
    minimum data exchange during FFTs selected (reduces bandwidth)


 total amount of memory used by VASP MPI-rank0   280791. kBytes
=======================================================================

   base      :      30000. kBytes
   nonlr-proj:        150. kBytes
   fftplans  :      86584. kBytes
   grid      :     154542. kBytes
   one-center:         15. kBytes
   wavefun   :       9500. kBytes

     INWAV:  cpu time    0.0000: real time    0.0000
 Broyden mixing: mesh for mixing (old mesh)
   NGX = 33   NGY = 33   NGZ = 33
  (NGX  =140   NGY  =128   NGZ  =140)
  gives a total of  35937 points

 initial charge density was supplied:
 charge density of overlapping atoms calculated
 number of electron       8.0000000 magnetization 
 keeping initial charge density in first step


--------------------------------------------------------------------------------------------------------


 Maximum index for non-local projection operator          667
 Maximum index for augmentation-charges         3506 (set IRDMAX)


--------------------------------------------------------------------------------------------------------


 First call to EWALD:  gamma=   0.176
 Maximum number of real-space cells 3x 3x 3
 Maximum number of reciprocal cells 3x 3x 3

    FEWALD:  cpu time    0.0007: real time    0.0007


--------------------------------------- Iteration      1(   1)  ---------------------------------------


    POTLOK:  cpu time    1.6282: real time    1.6323
    SETDIJ:  cpu time    0.0073: real time    0.0073
     EDDAV:  cpu time    2.3650: real time    2.3706
       DOS:  cpu time    0.0004: real time    0.0004
    --------------------------------------------
      LOOP:  cpu time    4.0009: real time    4.0106

 eigenvalue-minimisations  :    96
 total energy-change (2. order) : 0.2152622E+02  (-0.1968952E+03)
 number of electron       8.0000000 magnetization 
 augmentation part        8.0000000 magnetization 

 Free energy of the ion-electron system (eV)
  ---------------------------------------------------
  alpha Z        PSCENC =         0.23775153
  Ewald energy   TEWEN  =       127.84043229
  -Hartree energ DENC   =      -243.87950560
  -exchange      EXHF   =         0.00000000
  -V(xc)+E(xc)   XCENC  =        21.96779052
  PAW double counting   =       117.05815612     -117.66307307
  entropy T*S    EENTRO =        -0.02851966
  eigenvalues    EBANDS =       -81.04856475
  atomic energy  EATOM  =       197.04175453
  Solvation  Ediel_sol  =         0.00000000
  ---------------------------------------------------
  free energy    TOTEN  =        21.52622192 eV

  energy without entropy =       21.55474158  energy(sigma->0) =       21.53572847


--------------------------------------------------------------------------------------------------------




--------------------------------------- Iteration      1(   2)  ---------------------------------------


     EDDAV:  cpu time    1.8522: real time    1.8568
       DOS:  cpu time    0.0002: real time    0.0002
    --------------------------------------------
      LOOP:  cpu time    1.8525: real time    1.8570

 eigenvalue-minimisations  :    72
 total energy-change (2. order) :-0.4240290E+02  (-0.4064304E+02)
 number of electron       8.0000000 magnetization 
 augmentation part        8.0000000 magnetization 

 Free energy of the ion-electron system (eV)
  ---------------------------------------------------
  alpha Z        PSCENC =         0.23775153
  Ewald energy   TEWEN  =       127.84043229
  -Hartree energ DENC   =      -243.87950560
  -exchange      EXHF   =         0.00000000
  -V(xc)+E(xc)   XCENC  =        21.96779052
  PAW double counting   =       117.05815612     -117.66307307
  entropy T*S    EENTRO =         0.00297039
  eigenvalues    EBANDS =      -123.48295154
  atomic energy  EATOM  =       197.04175453
  Solvation  Ediel_sol  =         0.00000000
  ---------------------------------------------------
  free energy    TOTEN  =       -20.87667482 eV

  energy without entropy =      -20.87964521  energy(sigma->0) =      -20.87766495


--------------------------------------------------------------------------------------------------------




--------------------------------------- Iteration      1(   3)  ---------------------------------------


     EDDAV:  cpu time    1.7121: real time    1.7161
       DOS:  cpu time    0.0002: real time    0.0002
    --------------------------------------------
      LOOP:  cpu time    1.7123: real time    1.7163

 eigenvalue-minimisations  :    64
 total energy-change (2. order) :-0.6260515E+01  (-0.6267738E+01)
 number of electron       8.0000000 magnetization 
 augmentation part        8.0000000 magnetization 

 Free energy of the ion-electron system (eV)
  ---------------------------------------------------
  alpha Z        PSCENC =         0.23775153
  Ewald energy   TEWEN  =       127.84043229
  -Hartree energ DENC   =      -243.87950560
  -exchange      EXHF   =         0.00000000
  -V(xc)+E(xc)   XCENC  =        21.96779052
  PAW double counting   =       117.05815612     -117.66307307
  entropy T*S    EENTRO =         0.02067267
  eigenvalues    EBANDS =      -129.76116898
  atomic energy  EATOM  =       197.04175453
  Solvation  Ediel_sol  =         0.00000000
  ---------------------------------------------------
  free energy    TOTEN  =       -27.13718998 eV

  energy without entropy =      -27.15786265  energy(sigma->0) =      -27.14408087


--------------------------------------------------------------------------------------------------------




--------------------------------------- Iteration      1(   4)  ---------------------------------------


     EDDAV:  cpu time    3.0328: real time    3.0399
       DOS:  cpu time    0.0002: real time    0.0002
    --------------------------------------------
      LOOP:  cpu time    3.0330: real time    3.0402

 eigenvalue-minimisations  :   128
 total energy-change (2. order) :-0.2891546E+00  (-0.2866928E+00)
 number of electron       8.0000000 magnetization 
 augmentation part        8.0000000 magnetization 

 Free energy of the ion-electron system (eV)
  ---------------------------------------------------
  alpha Z        PSCENC =         0.23775153
  Ewald energy   TEWEN  =       127.84043229
  -Hartree energ DENC   =      -243.87950560
  -exchange      EXHF   =         0.00000000
  -V(xc)+E(xc)   XCENC  =        21.96779052
  PAW double counting   =       117.05815612     -117.66307307
  entropy T*S    EENTRO =         0.01963183
  eigenvalues    EBANDS =      -130.04928274
  atomic energy  EATOM  =       197.04175453
  Solvation  Ediel_sol  =         0.00000000
  ---------------------------------------------------
  free energy    TOTEN  =       -27.42634458 eV

  energy without entropy =      -27.44597641  energy(sigma->0) =      -27.43288853


--------------------------------------------------------------------------------------------------------




--------------------------------------- Iteration      1(   5)  ---------------------------------------


     EDDAV:  cpu time    1.9605: real time    1.9651
       DOS:  cpu time    0.0002: real time    0.0002
    CHARGE:  cpu time    0.1470: real time    0.1474
    MIXING:  cpu time    0.0378: real time    0.0379
    --------------------------------------------
      LOOP:  cpu time    2.1456: real time    2.1507

 eigenvalue-minimisations  :    80
 total energy-change (2. order) :-0.1309696E-03  (-0.1309699E-03)
 number of electron       8.0000002 magnetization 
 augmentation part        0.2216768 magnetization 

 Broyden mixing:
  rms(total) = 0.85658E+00    rms(broyden)= 0.85637E+00
  rms(prec ) = 0.12084E+01
  weight for this iteration     100.00

 Free energy of the ion-electron system (eV)
  ---------------------------------------------------
  alpha Z        PSCENC =         0.23775153
  Ewald energy   TEWEN  =       127.84043229
  -Hartree energ DENC   =      -243.87950560
  -exchange      EXHF   =         0.00000000
  -V(xc)+E(xc)   XCENC  =        21.96779052
  PAW double counting   =       117.05815612     -117.66307307
  entropy T*S    EENTRO =         0.01963193
  eigenvalues    EBANDS =      -130.04941381
  atomic energy  EATOM  =       197.04175453
  Solvation  Ediel_sol  =         0.00000000
  ---------------------------------------------------
  free energy    TOTEN  =       -27.42647555 eV

  energy without entropy =      -27.44610748  energy(sigma->0) =      -27.43301953


--------------------------------------------------------------------------------------------------------




--------------------------------------- Iteration      1(   6)  ---------------------------------------


    POTLOK:  cpu time    1.5998: real time    1.6036
    SETDIJ:  cpu time    0.0066: real time    0.0066
    EDDIAG:  cpu time    0.2713: real time    0.2719
  RMM-DIIS:  cpu time    1.1402: real time    1.1429
    ORTHCH:  cpu time    0.0106: real time    0.0106
       DOS:  cpu time    0.0002: real time    0.0002
    CHARGE:  cpu time    0.1216: real time    0.1219
    MIXING:  cpu time    0.0351: real time    0.0352
    --------------------------------------------
      LOOP:  cpu time    3.1853: real time    3.1929

 eigenvalue-minimisations  :    64
 total energy-change (2. order) : 0.2819172E+01  (-0.5159777E+00)
 number of electron       8.0000002 magnetization 
 augmentation part        0.1954253 magnetization 

 Broyden mixing:
  rms(total) = 0.42010E+00    rms(broyden)= 0.42000E+00
  rms(prec ) = 0.54594E+00
  weight for this iteration     100.00

 eigenvalues of (default mixing * dielectric matrix)
  average eigenvalue GAMMA=   1.2954
  1.2954

 Free energy of the ion-electron system (eV)
  ---------------------------------------------------
  alpha Z        PSCENC =         0.23775153
  Ewald energy   TEWEN  =       127.84043229
  -Hartree energ DENC   =      -263.32715377
  -exchange      EXHF   =         0.00000000
  -V(xc)+E(xc)   XCENC  =        23.14824722
  PAW double counting   =       228.52592820     -229.30174251
  entropy T*S    EENTRO =         0.03852327
  eigenvalues    EBANDS =      -108.81104388
  atomic energy  EATOM  =       197.04175453
  Solvation  Ediel_sol  =         0.00000000
  ---------------------------------------------------
  free energy    TOTEN  =       -24.60730312 eV

  energy without entropy =      -24.64582639  energy(sigma->0) =      -24.62014421


--------------------------------------------------------------------------------------------------------




--------------------------------------- Iteration      1(   7)  ---------------------------------------


    POTLOK:  cpu time    1.4803: real time    1.4838
    SETDIJ:  cpu time    0.0057: real time    0.0057
    EDDIAG:  cpu time    0.4110: real time    0.4120
  RMM-DIIS:  cpu time    1.3444: real time    1.3475
    ORTHCH:  cpu time    0.0124: real time    0.0124
       DOS:  cpu time    0.0002: real time    0.0002
    CHARGE:  cpu time    0.1747: real time    0.1751
    MIXING:  cpu time    0.0410: real time    0.0411
    --------------------------------------------
      LOOP:  cpu time    3.4698: real time    3.4780

 eigenvalue-minimisations  :    64
 total energy-change (2. order) : 0.4757567E+00  (-0.1145013E+00)
 number of electron       8.0000002 magnetization 
 augmentation part        0.1848575 magnetization 

 Broyden mixing:
  rms(total) = 0.23404E+00    rms(broyden)= 0.23396E+00
  rms(prec ) = 0.28790E+00
  weight for this iteration     100.00

 eigenvalues of (default mixing * dielectric matrix)
  average eigenvalue GAMMA=   1.4430
  1.4430  1.4430

 Free energy of the ion-electron system (eV)
  ---------------------------------------------------
  alpha Z        PSCENC =         0.23775153
  Ewald energy   TEWEN  =       127.84043229
  -Hartree energ DENC   =      -274.71256668
  -exchange      EXHF   =         0.00000000
  -V(xc)+E(xc)   XCENC  =        23.98721051
  PAW double counting   =       340.21298443     -341.02573768
  entropy T*S    EENTRO =         0.04011088
  eigenvalues    EBANDS =       -97.75348626
  atomic energy  EATOM  =       197.04175453
  Solvation  Ediel_sol  =         0.00000000
  ---------------------------------------------------
  free energy    TOTEN  =       -24.13154645 eV

  energy without entropy =      -24.17165733  energy(sigma->0) =      -24.14491674


--------------------------------------------------------------------------------------------------------




--------------------------------------- Iteration      1(   8)  ---------------------------------------


    POTLOK:  cpu time    1.6283: real time    1.6321
    SETDIJ:  cpu time    0.0057: real time    0.0058
    EDDIAG:  cpu time    0.2827: real time    0.2833
  RMM-DIIS:  cpu time    1.2640: real time    1.2670
    ORTHCH:  cpu time    0.0116: real time    0.0116
       DOS:  cpu time    0.0002: real time    0.0002
    CHARGE:  cpu time    0.1318: real time    0.1321
    MIXING:  cpu time    0.0381: real time    0.0382
    --------------------------------------------
      LOOP:  cpu time    3.3624: real time    3.3704

 eigenvalue-minimisations  :    64
 total energy-change (2. order) : 0.1035301E+00  (-0.1003384E-01)
 number of electron       8.0000002 magnetization 
 augmentation part        0.1842172 magnetization 

 Broyden mixing:
  rms(total) = 0.10569E+00    rms(broyden)= 0.10564E+00
  rms(prec ) = 0.13976E+00
  weight for this iteration     100.00

 eigenvalues of (default mixing * dielectric matrix)
  average eigenvalue GAMMA=   1.4491
  2.2323  1.4498  0.6651

 Free energy of the ion-electron system (eV)
  ---------------------------------------------------
  alpha Z        PSCENC =         0.23775153
  Ewald energy   TEWEN  =       127.84043229
  -Hartree energ DENC   =      -277.81933124
  -exchange      EXHF   =         0.00000000
  -V(xc)+E(xc)   XCENC  =        24.29614555
  PAW double counting   =       394.84724078     -395.63981978
  entropy T*S    EENTRO =         0.03025780
  eigenvalues    EBANDS =       -94.86244786
  atomic energy  EATOM  =       197.04175453
  Solvation  Ediel_sol  =         0.00000000
  ---------------------------------------------------
  free energy    TOTEN  =       -24.02801640 eV

  energy without entropy =      -24.05827420  energy(sigma->0) =      -24.03810233


--------------------------------------------------------------------------------------------------------




--------------------------------------- Iteration      1(   9)  ---------------------------------------


    POTLOK:  cpu time    1.5242: real time    1.5279
    SETDIJ:  cpu time    0.0064: real time    0.0064
    EDDIAG:  cpu time    0.2630: real time    0.2637
  RMM-DIIS:  cpu time    1.3095: real time    1.3128
    ORTHCH:  cpu time    0.0108: real time    0.0108
       DOS:  cpu time    0.0002: real time    0.0002
    CHARGE:  cpu time    0.1298: real time    0.1301
    MIXING:  cpu time    0.0403: real time    0.0404
    --------------------------------------------
      LOOP:  cpu time    3.2843: real time    3.2923

 eigenvalue-minimisations  :    64
 total energy-change (2. order) : 0.4013014E-01  (-0.5434156E-02)
 number of electron       8.0000002 magnetization 
 augmentation part        0.1836124 magnetization 

 Broyden mixing:
  rms(total) = 0.62575E-01    rms(broyden)= 0.62561E-01
  rms(prec ) = 0.89949E-01
  weight for this iteration     100.00

 eigenvalues of (default mixing * dielectric matrix)
  average eigenvalue GAMMA=   1.3144
  2.1699  1.3673  0.8603  0.8603

 Free energy of the ion-electron system (eV)
  ---------------------------------------------------
  alpha Z        PSCENC =         0.23775153
  Ewald energy   TEWEN  =       127.84043229
  -Hartree energ DENC   =      -280.67044590
  -exchange      EXHF   =         0.00000000
  -V(xc)+E(xc)   XCENC  =        24.55530632
  PAW double counting   =       437.22390029     -438.00428976
  entropy T*S    EENTRO =         0.03578877
  eigenvalues    EBANDS =       -92.24808432
  atomic energy  EATOM  =       197.04175453
  Solvation  Ediel_sol  =         0.00000000
  ---------------------------------------------------
  free energy    TOTEN  =       -23.98788626 eV

  energy without entropy =      -24.02367503  energy(sigma->0) =      -23.99981585


--------------------------------------------------------------------------------------------------------




--------------------------------------- Iteration      1(  10)  ---------------------------------------


    POTLOK:  cpu time    1.4630: real time    1.4665
    SETDIJ:  cpu time    0.0057: real time    0.0057
    EDDIAG:  cpu time    0.2729: real time    0.2735
  RMM-DIIS:  cpu time    1.1230: real time    1.1257
    ORTHCH:  cpu time    0.0106: real time    0.0106
       DOS:  cpu time    0.0002: real time    0.0002
    CHARGE:  cpu time    0.1258: real time    0.1261
    MIXING:  cpu time    0.0406: real time    0.0407
    --------------------------------------------
      LOOP:  cpu time    3.0418: real time    3.0490

 eigenvalue-minimisations  :    64
 total energy-change (2. order) : 0.1487262E-01  (-0.1652618E-02)
 number of electron       8.0000002 magnetization 
 augmentation part        0.1830073 magnetization 

 Broyden mixing:
  rms(total) = 0.28843E-01    rms(broyden)= 0.28820E-01
  rms(prec ) = 0.47421E-01
  weight for this iteration     100.00

 eigenvalues of (default mixing * dielectric matrix)
  average eigenvalue GAMMA=   1.3027
  2.1328  1.5297  0.7211  1.0649  1.0649

 Free energy of the ion-electron system (eV)
  ---------------------------------------------------
  alpha Z        PSCENC =         0.23775153
  Ewald energy   TEWEN  =       127.84043229
  -Hartree energ DENC   =      -281.59226067
  -exchange      EXHF   =         0.00000000
  -V(xc)+E(xc)   XCENC  =        24.59336071
  PAW double counting   =       434.45143346     -435.23641391
  entropy T*S    EENTRO =         0.03892678
  eigenvalues    EBANDS =       -91.34799836
  atomic energy  EATOM  =       197.04175453
  Solvation  Ediel_sol  =         0.00000000
  ---------------------------------------------------
  free energy    TOTEN  =       -23.97301364 eV

  energy without entropy =      -24.01194042  energy(sigma->0) =      -23.98598923


--------------------------------------------------------------------------------------------------------




--------------------------------------- Iteration      1(  11)  ---------------------------------------


    POTLOK:  cpu time    1.5602: real time    1.5640
    SETDIJ:  cpu time    0.0063: real time    0.0064
    EDDIAG:  cpu time    0.2643: real time    0.2649
  RMM-DIIS:  cpu time    1.1351: real time    1.1378
    ORTHCH:  cpu time    0.0105: real time    0.0105
       DOS:  cpu time    0.0002: real time    0.0002
    CHARGE:  cpu time    0.1251: real time    0.1254
    MIXING:  cpu time    0.0388: real time    0.0388
    --------------------------------------------
      LOOP:  cpu time    3.1405: real time    3.1481

 eigenvalue-minimisations  :    64
 total energy-change (2. order) : 0.1785090E-03  (-0.3384058E-03)
 number of electron       8.0000002 magnetization 
 augmentation part        0.1828309 magnetization 

 Broyden mixing:
  rms(total) = 0.22907E-01    rms(broyden)= 0.22862E-01
  rms(prec ) = 0.37211E-01
  weight for this iteration     100.00

 eigenvalues of (default mixing * dielectric matrix)
  average eigenvalue GAMMA=   1.5012
  2.5595  2.5595  1.1128  1.1128  1.0766  0.5857

 Free energy of the ion-electron system (eV)
  ---------------------------------------------------
  alpha Z        PSCENC =         0.23775153
  Ewald energy   TEWEN  =       127.84043229
  -Hartree energ DENC   =      -282.07473825
  -exchange      EXHF   =         0.00000000
  -V(xc)+E(xc)   XCENC  =        24.60960239
  PAW double counting   =       431.60531991     -432.38763068
  entropy T*S    EENTRO =         0.03727353
  eigenvalues    EBANDS =       -90.88260039
  atomic energy  EATOM  =       197.04175453
  Solvation  Ediel_sol  =         0.00000000
  ---------------------------------------------------
  free energy    TOTEN  =       -23.97283513 eV

  energy without entropy =      -24.01010866  energy(sigma->0) =      -23.98525964


--------------------------------------------------------------------------------------------------------




--------------------------------------- Iteration      1(  12)  ---------------------------------------


    POTLOK:  cpu time    1.4716: real time    1.4751
    SETDIJ:  cpu time    0.0064: real time    0.0065
    EDDIAG:  cpu time    0.2619: real time    0.2625
  RMM-DIIS:  cpu time    1.1399: real time    1.1426
    ORTHCH:  cpu time    0.0106: real time    0.0106
       DOS:  cpu time    0.0002: real time    0.0002
    CHARGE:  cpu time    0.1245: real time    0.1247
    MIXING:  cpu time    0.0432: real time    0.0433
    --------------------------------------------
      LOOP:  cpu time    3.0584: real time    3.0656

 eigenvalue-minimisations  :    64
 total energy-change (2. order) : 0.2674795E-02  (-0.4763644E-03)
 number of electron       8.0000002 magnetization 
 augmentation part        0.1825156 magnetization 

 Broyden mixing:
  rms(total) = 0.49197E-01    rms(broyden)= 0.49180E-01
  rms(prec ) = 0.65655E-01
  weight for this iteration     100.00

 eigenvalues of (default mixing * dielectric matrix)
  average eigenvalue GAMMA=   1.3970
  2.8962  2.4915  1.2306  0.9555  0.9555  0.6250  0.6250

 Free energy of the ion-electron system (eV)
  ---------------------------------------------------
  alpha Z        PSCENC =         0.23775153
  Ewald energy   TEWEN  =       127.84043229
  -Hartree energ DENC   =      -283.30638329
  -exchange      EXHF   =         0.00000000
  -V(xc)+E(xc)   XCENC  =        24.66134749
  PAW double counting   =       428.03771057     -428.81924167
  entropy T*S    EENTRO =         0.03772962
  eigenvalues    EBANDS =       -89.70126140
  atomic energy  EATOM  =       197.04175453
  Solvation  Ediel_sol  =         0.00000000
  ---------------------------------------------------
  free energy    TOTEN  =       -23.97016033 eV

  energy without entropy =      -24.00788995  energy(sigma->0) =      -23.98273687


--------------------------------------------------------------------------------------------------------




--------------------------------------- Iteration      1(  13)  ---------------------------------------


    POTLOK:  cpu time    1.3482: real time    1.3513
    SETDIJ:  cpu time    0.0058: real time    0.0058
    EDDIAG:  cpu time    0.2944: real time    0.2950
  RMM-DIIS:  cpu time    1.2182: real time    1.2211
    ORTHCH:  cpu time    0.0105: real time    0.0106
       DOS:  cpu time    0.0002: real time    0.0002
    CHARGE:  cpu time    0.1288: real time    0.1291
    MIXING:  cpu time    0.0437: real time    0.0438
    --------------------------------------------
      LOOP:  cpu time    3.0497: real time    3.0569

 eigenvalue-minimisations  :    64
 total energy-change (2. order) : 0.1131890E-02  (-0.1241423E-03)
 number of electron       8.0000002 magnetization 
 augmentation part        0.1822999 magnetization 

 Broyden mixing:
  rms(total) = 0.26726E-01    rms(broyden)= 0.26719E-01
  rms(prec ) = 0.36535E-01
  weight for this iteration     100.00

 eigenvalues of (default mixing * dielectric matrix)
  average eigenvalue GAMMA=   1.4261
  3.0957  2.4843  1.1464  1.1464  1.3097  0.7347  0.7347  0.7572

 Free energy of the ion-electron system (eV)
  ---------------------------------------------------
  alpha Z        PSCENC =         0.23775153
  Ewald energy   TEWEN  =       127.84043229
  -Hartree energ DENC   =      -283.61180899
  -exchange      EXHF   =         0.00000000
  -V(xc)+E(xc)   XCENC  =        24.67444841
  PAW double counting   =       428.07883637     -428.86150187
  entropy T*S    EENTRO =         0.03728804
  eigenvalues    EBANDS =       -89.40622877
  atomic energy  EATOM  =       197.04175453
  Solvation  Ediel_sol  =         0.00000000
  ---------------------------------------------------
  free energy    TOTEN  =       -23.96902844 eV

  energy without entropy =      -24.00631648  energy(sigma->0) =      -23.98145779


--------------------------------------------------------------------------------------------------------




--------------------------------------- Iteration      1(  14)  ---------------------------------------


    POTLOK:  cpu time    1.3167: real time    1.3198
    SETDIJ:  cpu time    0.0064: real time    0.0064
    EDDIAG:  cpu time    0.2593: real time    0.2600
  RMM-DIIS:  cpu time    1.2235: real time    1.2264
    ORTHCH:  cpu time    0.0106: real time    0.0106
       DOS:  cpu time    0.0002: real time    0.0002
    CHARGE:  cpu time    0.1252: real time    0.1255
    MIXING:  cpu time    0.0446: real time    0.0447
    --------------------------------------------
      LOOP:  cpu time    2.9865: real time    2.9936

 eigenvalue-minimisations  :    64
 total energy-change (2. order) :-0.6639577E-02  (-0.5078404E-03)
 number of electron       8.0000002 magnetization 
 augmentation part        0.1824485 magnetization 

 Broyden mixing:
  rms(total) = 0.44380E-01    rms(broyden)= 0.44314E-01
  rms(prec ) = 0.58652E-01
  weight for this iteration     100.00

 eigenvalues of (default mixing * dielectric matrix)
  average eigenvalue GAMMA=   1.4866
  3.7340  2.4931  1.8744  1.2441  1.1097  1.1097  0.6371  0.6371  0.5402

 Free energy of the ion-electron system (eV)
  ---------------------------------------------------
  alpha Z        PSCENC =         0.23775153
  Ewald energy   TEWEN  =       127.84043229
  -Hartree energ DENC   =      -283.79962155
  -exchange      EXHF   =         0.00000000
  -V(xc)+E(xc)   XCENC  =        24.67735014
  PAW double counting   =       428.34635283     -429.12851800
  entropy T*S    EENTRO =         0.04052643
  eigenvalues    EBANDS =       -89.23169622
  atomic energy  EATOM  =       197.04175453
  Solvation  Ediel_sol  =         0.00000000
  ---------------------------------------------------
  free energy    TOTEN  =       -23.97566802 eV

  energy without entropy =      -24.01619446  energy(sigma->0) =      -23.98917683


--------------------------------------------------------------------------------------------------------




--------------------------------------- Iteration      1(  15)  ---------------------------------------


    POTLOK:  cpu time    1.2933: real time    1.2963
    SETDIJ:  cpu time    0.0063: real time    0.0063
    EDDIAG:  cpu time    0.2595: real time    0.2601
  RMM-DIIS:  cpu time    1.1493: real time    1.1520
    ORTHCH:  cpu time    0.0105: real time    0.0105
       DOS:  cpu time    0.0002: real time    0.0002
    CHARGE:  cpu time    0.1248: real time    0.1252
    MIXING:  cpu time    0.0415: real time    0.0416
    --------------------------------------------
      LOOP:  cpu time    2.8855: real time    2.8923

 eigenvalue-minimisations  :    64
 total energy-change (2. order) :-0.2281027E-02  (-0.6094930E-04)
 number of electron       8.0000002 magnetization 
 augmentation part        0.1825087 magnetization 

 Broyden mixing:
  rms(total) = 0.44251E-01    rms(broyden)= 0.44249E-01
  rms(prec ) = 0.58557E-01
  weight for this iteration     100.00

 eigenvalues of (default mixing * dielectric matrix)
  average eigenvalue GAMMA=   1.5472
  4.0945  2.5750  2.2819  1.0812  1.0812  1.2590  0.9978  0.7051  0.6980  0.6980

 Free energy of the ion-electron system (eV)
  ---------------------------------------------------
  alpha Z        PSCENC =         0.23775153
  Ewald energy   TEWEN  =       127.84043229
  -Hartree energ DENC   =      -283.78148302
  -exchange      EXHF   =         0.00000000
  -V(xc)+E(xc)   XCENC  =        24.67241976
  PAW double counting   =       428.19706613     -428.97845444
  entropy T*S    EENTRO =         0.04050881
  eigenvalues    EBANDS =       -89.24794463
  atomic energy  EATOM  =       197.04175453
  Solvation  Ediel_sol  =         0.00000000
  ---------------------------------------------------
  free energy    TOTEN  =       -23.97794905 eV

  energy without entropy =      -24.01845785  energy(sigma->0) =      -23.99145198


--------------------------------------------------------------------------------------------------------




--------------------------------------- Iteration      1(  16)  ---------------------------------------


    POTLOK:  cpu time    1.4191: real time    1.4225
    SETDIJ:  cpu time    0.0064: real time    0.0064
    EDDIAG:  cpu time    0.2895: real time    0.2902
  RMM-DIIS:  cpu time    1.1394: real time    1.1421
    ORTHCH:  cpu time    0.0107: real time    0.0108
       DOS:  cpu time    0.0002: real time    0.0002
    CHARGE:  cpu time    0.1207: real time    0.1210
    MIXING:  cpu time    0.0466: real time    0.0468
    --------------------------------------------
      LOOP:  cpu time    3.0328: real time    3.0400

 eigenvalue-minimisations  :    64
 total energy-change (2. order) : 0.3693167E-03  (-0.1579062E-03)
 number of electron       8.0000002 magnetization 
 augmentation part        0.1824653 magnetization 

 Broyden mixing:
  rms(total) = 0.99611E-02    rms(broyden)= 0.99073E-02
  rms(prec ) = 0.13367E-01
  weight for this iteration     100.00

 eigenvalues of (default mixing * dielectric matrix)
  average eigenvalue GAMMA=   1.6022
  4.7946  2.9059  2.2886  1.1793  1.1793  1.1915  1.1915  0.8709  0.6528  0.6849
  0.6849

 Free energy of the ion-electron system (eV)
  ---------------------------------------------------
  alpha Z        PSCENC =         0.23775153
  Ewald energy   TEWEN  =       127.84043229
  -Hartree energ DENC   =      -283.77899801
  -exchange      EXHF   =         0.00000000
  -V(xc)+E(xc)   XCENC  =        24.66755320
  PAW double counting   =       428.10727003     -428.88842930
  entropy T*S    EENTRO =         0.03798939
  eigenvalues    EBANDS =       -89.24290339
  atomic energy  EATOM  =       197.04175453
  Solvation  Ediel_sol  =         0.00000000
  ---------------------------------------------------
  free energy    TOTEN  =       -23.97757973 eV

  energy without entropy =      -24.01556912  energy(sigma->0) =      -23.99024286


--------------------------------------------------------------------------------------------------------




--------------------------------------- Iteration      1(  17)  ---------------------------------------


    POTLOK:  cpu time    1.2877: real time    1.2910
    SETDIJ:  cpu time    0.0064: real time    0.0064
    EDDIAG:  cpu time    0.3954: real time    0.3963
  RMM-DIIS:  cpu time    1.1447: real time    1.1474
    ORTHCH:  cpu time    0.0106: real time    0.0106
       DOS:  cpu time    0.0002: real time    0.0002
    CHARGE:  cpu time    0.1231: real time    0.1234
    MIXING:  cpu time    0.0469: real time    0.0470
    --------------------------------------------
      LOOP:  cpu time    3.0150: real time    3.0223

 eigenvalue-minimisations  :    64
 total energy-change (2. order) :-0.1277439E-02  (-0.8150985E-04)
 number of electron       8.0000002 magnetization 
 augmentation part        0.1823666 magnetization 

 Broyden mixing:
  rms(total) = 0.16380E-01    rms(broyden)= 0.16345E-01
  rms(prec ) = 0.21638E-01
  weight for this iteration     100.00

 eigenvalues of (default mixing * dielectric matrix)
  average eigenvalue GAMMA=   1.6618
  5.6544  3.1243  2.2242  1.2055  1.2055  1.2544  1.2544  1.1438  0.8813  0.6428
  0.6754  0.6754

 Free energy of the ion-electron system (eV)
  ---------------------------------------------------
  alpha Z        PSCENC =         0.23775153
  Ewald energy   TEWEN  =       127.84043229
  -Hartree energ DENC   =      -283.79126523
  -exchange      EXHF   =         0.00000000
  -V(xc)+E(xc)   XCENC  =        24.66456379
  PAW double counting   =       427.76204276     -428.54366157
  entropy T*S    EENTRO =         0.03729657
  eigenvalues    EBANDS =       -89.22777184
  atomic energy  EATOM  =       197.04175453
  Solvation  Ediel_sol  =         0.00000000
  ---------------------------------------------------
  free energy    TOTEN  =       -23.97885717 eV

  energy without entropy =      -24.01615374  energy(sigma->0) =      -23.99128936


--------------------------------------------------------------------------------------------------------




--------------------------------------- Iteration      1(  18)  ---------------------------------------


    POTLOK:  cpu time    1.2474: real time    1.2503
    SETDIJ:  cpu time    0.0065: real time    0.0065
    EDDIAG:  cpu time    0.3014: real time    0.3021
  RMM-DIIS:  cpu time    1.2523: real time    1.2553
    ORTHCH:  cpu time    0.0106: real time    0.0106
       DOS:  cpu time    0.0002: real time    0.0002
    CHARGE:  cpu time    0.1235: real time    0.1238
    MIXING:  cpu time    0.0481: real time    0.0482
    --------------------------------------------
      LOOP:  cpu time    2.9900: real time    2.9970

 eigenvalue-minimisations  :    64
 total energy-change (2. order) :-0.4191927E-03  (-0.2740039E-04)
 number of electron       8.0000002 magnetization 
 augmentation part        0.1824202 magnetization 

 Broyden mixing:
  rms(total) = 0.57484E-02    rms(broyden)= 0.57189E-02
  rms(prec ) = 0.76037E-02
  weight for this iteration     100.00

 eigenvalues of (default mixing * dielectric matrix)
  average eigenvalue GAMMA=   1.7811
  6.1346  3.6124  2.6135  1.8160  1.1512  1.1512  1.4413  1.1863  1.0376  1.0376
  0.6720  0.6720  0.6291

 Free energy of the ion-electron system (eV)
  ---------------------------------------------------
  alpha Z        PSCENC =         0.23775153
  Ewald energy   TEWEN  =       127.84043229
  -Hartree energ DENC   =      -283.79033661
  -exchange      EXHF   =         0.00000000
  -V(xc)+E(xc)   XCENC  =        24.66302444
  PAW double counting   =       427.82890614     -428.61047515
  entropy T*S    EENTRO =         0.03781351
  eigenvalues    EBANDS =       -89.22814705
  atomic energy  EATOM  =       197.04175453
  Solvation  Ediel_sol  =         0.00000000
  ---------------------------------------------------
  free energy    TOTEN  =       -23.97927636 eV

  energy without entropy =      -24.01708987  energy(sigma->0) =      -23.99188087


--------------------------------------------------------------------------------------------------------




--------------------------------------- Iteration      1(  19)  ---------------------------------------


    POTLOK:  cpu time    1.2415: real time    1.2444
    SETDIJ:  cpu time    0.0064: real time    0.0064
    EDDIAG:  cpu time    0.2754: real time    0.2761
  RMM-DIIS:  cpu time    1.1421: real time    1.1448
    ORTHCH:  cpu time    0.0108: real time    0.0108
       DOS:  cpu time    0.0002: real time    0.0002
    CHARGE:  cpu time    0.1886: real time    0.1890
    MIXING:  cpu time    0.0511: real time    0.0512
    --------------------------------------------
      LOOP:  cpu time    2.9160: real time    2.9229

 eigenvalue-minimisations  :    64
 total energy-change (2. order) :-0.5035051E-03  (-0.1034155E-04)
 number of electron       8.0000002 magnetization 
 augmentation part        0.1823612 magnetization 

 Broyden mixing:
  rms(total) = 0.60147E-02    rms(broyden)= 0.60071E-02
  rms(prec ) = 0.79528E-02
  weight for this iteration     100.00

 eigenvalues of (default mixing * dielectric matrix)
  average eigenvalue GAMMA=   1.8605
  7.1182  4.3753  2.6193  2.3338  1.1589  1.1589  1.2944  1.2944  0.9829  0.8603
  0.8603  0.6841  0.6841  0.6227

 Free energy of the ion-electron system (eV)
  ---------------------------------------------------
  alpha Z        PSCENC =         0.23775153
  Ewald energy   TEWEN  =       127.84043229
  -Hartree energ DENC   =      -283.81381717
  -exchange      EXHF   =         0.00000000
  -V(xc)+E(xc)   XCENC  =        24.66377912
  PAW double counting   =       428.06528508     -428.84692120
  entropy T*S    EENTRO =         0.03745321
  eigenvalues    EBANDS =       -89.20549725
  atomic energy  EATOM  =       197.04175453
  Solvation  Ediel_sol  =         0.00000000
  ---------------------------------------------------
  free energy    TOTEN  =       -23.97977987 eV

  energy without entropy =      -24.01723308  energy(sigma->0) =      -23.99226427


--------------------------------------------------------------------------------------------------------




--------------------------------------- Iteration      1(  20)  ---------------------------------------


    POTLOK:  cpu time    1.3667: real time    1.3699
    SETDIJ:  cpu time    0.0063: real time    0.0063
    EDDIAG:  cpu time    0.2784: real time    0.2790
  RMM-DIIS:  cpu time    1.1579: real time    1.1607
    ORTHCH:  cpu time    0.0105: real time    0.0105
       DOS:  cpu time    0.0002: real time    0.0002
    CHARGE:  cpu time    0.1259: real time    0.1263
    MIXING:  cpu time    0.0484: real time    0.0485
    --------------------------------------------
      LOOP:  cpu time    2.9943: real time    3.0014

 eigenvalue-minimisations  :    64
 total energy-change (2. order) :-0.1700371E-03  (-0.3135656E-05)
 number of electron       8.0000002 magnetization 
 augmentation part        0.1823828 magnetization 

 Broyden mixing:
  rms(total) = 0.74468E-03    rms(broyden)= 0.73312E-03
  rms(prec ) = 0.10095E-02
  weight for this iteration     100.00

 eigenvalues of (default mixing * dielectric matrix)
  average eigenvalue GAMMA=   1.9133
  7.5638  4.5704  2.4999  2.4999  2.0566  1.1525  1.1525  1.1684  1.1684  1.0038
  0.9383  0.9383  0.6809  0.6809  0.6245

 Free energy of the ion-electron system (eV)
  ---------------------------------------------------
  alpha Z        PSCENC =         0.23775153
  Ewald energy   TEWEN  =       127.84043229
  -Hartree energ DENC   =      -283.79261638
  -exchange      EXHF   =         0.00000000
  -V(xc)+E(xc)   XCENC  =        24.66235998
  PAW double counting   =       428.02149243     -428.80298460
  entropy T*S    EENTRO =         0.03760332
  eigenvalues    EBANDS =       -89.22574300
  atomic energy  EATOM  =       197.04175453
  Solvation  Ediel_sol  =         0.00000000
  ---------------------------------------------------
  free energy    TOTEN  =       -23.97994991 eV

  energy without entropy =      -24.01755322  energy(sigma->0) =      -23.99248434


--------------------------------------------------------------------------------------------------------




--------------------------------------- Iteration      1(  21)  ---------------------------------------


    POTLOK:  cpu time    1.3979: real time    1.4014
    SETDIJ:  cpu time    0.0064: real time    0.0064
    EDDIAG:  cpu time    0.2909: real time    0.2916
  RMM-DIIS:  cpu time    1.0853: real time    1.0878
    ORTHCH:  cpu time    0.0106: real time    0.0106
       DOS:  cpu time    0.0002: real time    0.0002
    CHARGE:  cpu time    0.1248: real time    0.1251
    MIXING:  cpu time    0.0489: real time    0.0490
    --------------------------------------------
      LOOP:  cpu time    2.9649: real time    2.9720

 eigenvalue-minimisations  :    60
 total energy-change (2. order) :-0.6245035E-04  (-0.3907505E-06)
 number of electron       8.0000002 magnetization 
 augmentation part        0.1823883 magnetization 

 Broyden mixing:
  rms(total) = 0.22668E-03    rms(broyden)= 0.22057E-03
  rms(prec ) = 0.31661E-03
  weight for this iteration     100.00

 eigenvalues of (default mixing * dielectric matrix)
  average eigenvalue GAMMA=   2.0272
  8.3892  5.1088  3.5543  2.5235  2.2803  1.1538  1.1538  1.3051  1.3051  0.9092
  0.9092  0.9552  0.9039  0.6794  0.6794  0.6252

 Free energy of the ion-electron system (eV)
  ---------------------------------------------------
  alpha Z        PSCENC =         0.23775153
  Ewald energy   TEWEN  =       127.84043229
  -Hartree energ DENC   =      -283.79590630
  -exchange      EXHF   =         0.00000000
  -V(xc)+E(xc)   XCENC  =        24.66261262
  PAW double counting   =       428.00946990     -428.79093772
  entropy T*S    EENTRO =         0.03762777
  eigenvalues    EBANDS =       -89.22281697
  atomic energy  EATOM  =       197.04175453
  Solvation  Ediel_sol  =         0.00000000
  ---------------------------------------------------
  free energy    TOTEN  =       -23.98001236 eV

  energy without entropy =      -24.01764012  energy(sigma->0) =      -23.99255494


--------------------------------------------------------------------------------------------------------




--------------------------------------- Iteration      1(  22)  ---------------------------------------


    POTLOK:  cpu time    1.3511: real time    1.3543
    SETDIJ:  cpu time    0.0062: real time    0.0062
    EDDIAG:  cpu time    0.3246: real time    0.3253
  RMM-DIIS:  cpu time    1.0096: real time    1.0120
    ORTHCH:  cpu time    0.0116: real time    0.0117
       DOS:  cpu time    0.0002: real time    0.0002
    CHARGE:  cpu time    0.1284: real time    0.1287
    MIXING:  cpu time    0.0489: real time    0.0490
    --------------------------------------------
      LOOP:  cpu time    2.8805: real time    2.8873

 eigenvalue-minimisations  :    49
 total energy-change (2. order) :-0.3198189E-04  (-0.1982447E-06)
 number of electron       8.0000002 magnetization 
 augmentation part        0.1823835 magnetization 

 Broyden mixing:
  rms(total) = 0.20890E-03    rms(broyden)= 0.20888E-03
  rms(prec ) = 0.27402E-03
  weight for this iteration     100.00

 eigenvalues of (default mixing * dielectric matrix)
  average eigenvalue GAMMA=   2.0918
  8.5162  5.2282  3.6942  2.5313  2.5313  2.5303  1.1540  1.1540  1.1945  1.1945
  1.0721  0.9147  0.9147  0.9469  0.6793  0.6793  0.6254

 Free energy of the ion-electron system (eV)
  ---------------------------------------------------
  alpha Z        PSCENC =         0.23775153
  Ewald energy   TEWEN  =       127.84043229
  -Hartree energ DENC   =      -283.80255464
  -exchange      EXHF   =         0.00000000
  -V(xc)+E(xc)   XCENC  =        24.66282885
  PAW double counting   =       427.93701806     -428.71856139
  entropy T*S    EENTRO =         0.03761993
  eigenvalues    EBANDS =       -89.21633349
  atomic energy  EATOM  =       197.04175453
  Solvation  Ediel_sol  =         0.00000000
  ---------------------------------------------------
  free energy    TOTEN  =       -23.98004434 eV

  energy without entropy =      -24.01766426  energy(sigma->0) =      -23.99258431


--------------------------------------------------------------------------------------------------------




--------------------------------------- Iteration      1(  23)  ---------------------------------------


    POTLOK:  cpu time    1.3596: real time    1.3628
    SETDIJ:  cpu time    0.0057: real time    0.0057
    EDDIAG:  cpu time    0.2782: real time    0.2789
  RMM-DIIS:  cpu time    0.9815: real time    0.9838
    ORTHCH:  cpu time    0.0223: real time    0.0223
       DOS:  cpu time    0.0003: real time    0.0003
    CHARGE:  cpu time    0.1727: real time    0.1731
    MIXING:  cpu time    0.0812: real time    0.0814
    --------------------------------------------
      LOOP:  cpu time    2.9015: real time    2.9084

 eigenvalue-minimisations  :    48
 total energy-change (2. order) :-0.4422701E-05  (-0.6412166E-07)
 number of electron       8.0000002 magnetization 
 augmentation part        0.1823825 magnetization 

 Broyden mixing:
  rms(total) = 0.14410E-03    rms(broyden)= 0.14391E-03
  rms(prec ) = 0.18134E-03
  weight for this iteration     100.00

 eigenvalues of (default mixing * dielectric matrix)
  average eigenvalue GAMMA=   2.0582
  8.5776  5.4876  3.8476  2.7127  2.5356  2.2784  1.1537  1.1537  1.2992  1.2992
  0.9463  0.9463  0.6794  0.6794  0.9784  0.9239  0.9239  0.6254

 Free energy of the ion-electron system (eV)
  ---------------------------------------------------
  alpha Z        PSCENC =         0.23775153
  Ewald energy   TEWEN  =       127.84043229
  -Hartree energ DENC   =      -283.80284374
  -exchange      EXHF   =         0.00000000
  -V(xc)+E(xc)   XCENC  =        24.66273578
  PAW double counting   =       427.93636846     -428.71793409
  entropy T*S    EENTRO =         0.03762581
  eigenvalues    EBANDS =       -89.21593934
  atomic energy  EATOM  =       197.04175453
  Solvation  Ediel_sol  =         0.00000000
  ---------------------------------------------------
  free energy    TOTEN  =       -23.98004876 eV

  energy without entropy =      -24.01767457  energy(sigma->0) =      -23.99259070


--------------------------------------------------------------------------------------------------------




--------------------------------------- Iteration      1(  24)  ---------------------------------------


    POTLOK:  cpu time    1.4007: real time    1.4040
    SETDIJ:  cpu time    0.0057: real time    0.0057
    EDDIAG:  cpu time    0.2791: real time    0.2798
  RMM-DIIS:  cpu time    0.8992: real time    0.9014
    ORTHCH:  cpu time    0.0106: real time    0.0106
       DOS:  cpu time    0.0002: real time    0.0002
    --------------------------------------------
      LOOP:  cpu time    2.5955: real time    2.6016

 eigenvalue-minimisations  :    48
 total energy-change (2. order) :-0.9551036E-06  (-0.1901002E-07)
 number of electron       8.0000002 magnetization 
 augmentation part        0.1823825 magnetization 

 Free energy of the ion-electron system (eV)
  ---------------------------------------------------
  alpha Z        PSCENC =         0.23775153
  Ewald energy   TEWEN  =       127.84043229
  -Hartree energ DENC   =      -283.80069681
  -exchange      EXHF   =         0.00000000
  -V(xc)+E(xc)   XCENC  =        24.66268505
  PAW double counting   =       427.95811786     -428.73964724
  entropy T*S    EENTRO =         0.03763192
  eigenvalues    EBANDS =       -89.21807884
  atomic energy  EATOM  =       197.04175453
  Solvation  Ediel_sol  =         0.00000000
  ---------------------------------------------------
  free energy    TOTEN  =       -23.98004972 eV

  energy without entropy =      -24.01768163  energy(sigma->0) =      -23.99259369


--------------------------------------------------------------------------------------------------------




 average (electrostatic) potential at core
  the test charge radii are     0.5201  0.6991
  (the norm of the test charge is              1.0000)
       1 -41.4301       2 -41.3615       3 -41.5344       4 -41.4868       5 -58.0085



 E-fermi :  -9.0725     XC(G=0):  -0.6930     alpha+bet : -0.2068


 k-point     1 :       0.2500    0.2500    0.2500
  band No.  band energies     occupation 
      1     -16.8414      2.00000
      2      -9.3056      2.06974
      3      -9.2464      2.01156
      4      -9.2123      1.91906
      5      -0.3316      0.00000
      6       0.5465      0.00000
      7       0.6544      0.00000
      8       0.7048      0.00000

 k-point     2 :      -0.2500    0.2500    0.2500
  band No.  band energies     occupation 
      1     -16.8414      2.00000
      2      -9.3055      2.06972
      3      -9.2463      2.01138
      4      -9.2121      1.91836
      5      -0.3332      0.00000
      6       0.5424      0.00000
      7       0.6606      0.00000
      8       0.7101      0.00000

 k-point     3 :       0.2500   -0.2500    0.2500
  band No.  band energies     occupation 
      1     -16.8414      2.00000
      2      -9.3055      2.06973
      3      -9.2464      2.01145
      4      -9.2122      1.91875
      5      -0.3286      0.00000
      6       0.5412      0.00000
      7       0.6485      0.00000
      8       0.6909      0.00000

 k-point     4 :      -0.2500   -0.2500    0.2500
  band No.  band energies     occupation 
      1     -16.8414      2.00000
      2      -9.3057      2.06976
      3      -9.2464      2.01150
      4      -9.2123      1.91898
      5      -0.3267      0.00000
      6       0.5426      0.00000
      7       0.6452      0.00000
      8       0.6818      0.00000


--------------------------------------------------------------------------------------------------------


 soft charge-density along one line, spin component           1
         0         1         2         3         4         5         6         7         8         9
 total charge-density along one line

 pseudopotential strength for first ion, spin component:           1
 -2.341  -4.034  -0.001  -0.001   0.001
 -4.034  -6.865  -0.003  -0.004   0.002
 -0.001  -0.003  -0.338   0.002  -0.001
 -0.001  -0.004   0.002  -0.337  -0.001
  0.001   0.002  -0.001  -0.001  -0.339
 total augmentation occupancy for first ion, spin component:           1
  3.729  -0.733   0.215   0.333  -0.150
 -0.733   0.157  -0.044  -0.067   0.030
  0.215  -0.044   0.017   0.016  -0.007
  0.333  -0.067   0.016   0.033  -0.012
 -0.150   0.030  -0.007  -0.012   0.013


------------------------ aborting loop because EDIFF is reached ----------------------------------------


    CHARGE:  cpu time    0.1232: real time    0.1234
    FORLOC:  cpu time    0.1001: real time    0.1004
    FORNL :  cpu time    0.4152: real time    0.4162
    STRESS:  cpu time    1.4995: real time    1.5031
    FORCOR:  cpu time    1.4618: real time    1.4653
    FORHAR:  cpu time    0.4784: real time    0.4795
    MIXING:  cpu time    0.0553: real time    0.0554
    OFIELD:  cpu time    0.0000: real time    0.0000

  FORCE on cell =-STRESS in cart. coord.  units (eV):
  Direction    XX          YY          ZZ          XY          YZ          ZX
  --------------------------------------------------------------------------------------
  Alpha Z     0.23775     0.23775     0.23775
  Ewald      40.37485    44.33051    43.13505     0.76384     0.86416     0.84563
  Hartree    92.43052    96.49661    94.87295     0.12087     0.76972     0.29562
  E(xc)     -27.11563   -27.13839   -27.12239     0.00119     0.00783     0.00309
  Local    -191.77113  -199.37906  -197.03951    -1.02536    -1.73644    -1.18700
  n-local   -16.30577   -16.20363   -15.86457    -0.45808    -0.28452    -0.36669
  augment     0.12146     0.11418     0.12041     0.00111     0.00278     0.00053
  Kinetic   100.00950   100.75854   101.16052     1.07641    -0.34294     0.43762
  Fock        0.00000     0.00000     0.00000     0.00000     0.00000     0.00000
  -------------------------------------------------------------------------------------
  Total      -2.01845    -0.78349    -0.49979     0.47996    -0.71941     0.02879
  in kB      -3.17386    -1.23197    -0.78588     0.75470    -1.13121     0.04527
  external pressure =       -1.73 kB  Pullay stress =        0.00 kB

  kinetic pressure (ideal gas correction) =      0.03 kB
  total pressure  =     -1.70 kB
  Total+kin.    -3.136      -1.203      -0.772       0.760      -1.142       0.061

 VOLUME and BASIS-vectors are now :
 -----------------------------------------------------------------------------
  energy-cutoff  :      400.00
  volume of cell :     1018.92
      direct lattice vectors                 reciprocal lattice vectors
    10.283480482  0.000000000  0.000000000     0.097243341  0.001163547  0.000020009
    -0.117783045  9.843710392  0.000000000     0.000000000  0.101587710 -0.002836679
    -0.005434156  0.281068357 10.065675731     0.000000000 -0.000000000  0.099347528

  length of vectors
    10.283480482  9.844415023 10.069600631     0.097250304  0.101627308  0.099347528


 FORCES acting on ions
    electron-ion (+dipol)            ewald-force                    non-local-force                 convergence-correction
 -----------------------------------------------------------------------------------------------
   -.170E+02 0.288E+02 0.393E+02   0.182E+02 -.313E+02 -.428E+02   -.178E+01 0.307E+01 0.349E+01   -.139E-03 0.322E-05 -.536E-05
   0.509E+02 -.599E+01 0.311E+01   -.551E+02 0.620E+01 -.352E+01   0.469E+01 -.503E+00 0.546E+00   0.428E-04 0.207E-04 -.156E-03
   -.241E+02 -.477E+02 0.160E+01   0.270E+02 0.532E+02 -.178E+01   -.250E+01 -.443E+01 0.664E-01   -.229E-03 -.981E-04 -.190E-03
   -.128E+02 0.232E+02 -.461E+02   0.141E+02 -.257E+02 0.512E+02   -.176E+01 0.204E+01 -.462E+01   -.105E-03 -.421E-04 -.272E-03
   0.379E+01 0.216E+01 0.286E+01   -.420E+01 -.244E+01 -.306E+01   -.109E+01 0.423E+00 -.114E+01   -.277E-02 -.812E-03 -.415E-02
 -----------------------------------------------------------------------------------------------
   0.818E+00 0.550E+00 0.786E+00   0.533E-14 0.355E-14 0.000E+00   -.244E+01 0.594E+00 -.166E+01   -.320E-02 -.928E-03 -.477E-02


 POSITION                                       TOTAL-FORCE (eV/Angst)
 -----------------------------------------------------------------------------------
      5.48281      4.10275      3.62933        -0.560616      0.615541     -0.036703
      3.99842      4.85466      4.41466         0.482638     -0.287696      0.136173
      5.60756      5.69020      4.45576         0.393447      1.112289     -0.117175
      5.37971      4.25704      5.43097        -0.444629     -0.437038      0.485388
      5.11585      4.72775      4.48481        -1.493574      0.139333     -1.344876
 -----------------------------------------------------------------------------------
    total drift:                               -1.622735      1.142429     -0.877193


--------------------------------------------------------------------------------------------------------



  FREE ENERGIE OF THE ION-ELECTRON SYSTEM (eV)
  ---------------------------------------------------
  free  energy   TOTEN  =       -23.98004972 eV

  energy  without entropy=      -24.01768163  energy(sigma->0) =      -23.99259369



--------------------------------------------------------------------------------------------------------


    POTLOK:  cpu time    1.4967: real time    1.5002


--------------------------------------------------------------------------------------------------------


           RANDOM_SEED =         578495997                0                0
           RANDOM_SEED =         578495997               30                0
   IONSTEP:  cpu time    0.0015: real time    0.0017

  ENERGY OF THE ELECTRON-ION-THERMOSTAT SYSTEM (eV)
  ---------------------------------------------------
% ion-electron   TOTEN  =       -23.980050  see above
  kinetic energy EKIN   =         0.033328
  kin. lattice  EKIN_LAT=         0.000000  (temperature   64.46 K)
  nose potential ES     =         0.000000
  nose kinetic   EPS    =         0.000007
  ---------------------------------------------------
  total energy   ETOTAL =       -23.946715 eV

  maximum distance moved by ions :      0.65E-02


 mean value of Nose-termostat <S>:     1.004 mean value of <T> :    64.459
 mean temperature <T/S>/<1/S>  :    64.459

    WAVPRE:  cpu time    0.4182: real time    0.4249
    FEWALD:  cpu time    0.0003: real time    0.0003
    ORTHCH:  cpu time    0.1645: real time    0.1649
     LOOP+:  cpu time   76.7226: real time   76.9127


--------------------------------------- Iteration      2(   1)  ---------------------------------------


    POTLOK:  cpu time    1.4337: real time    1.4373
    SETDIJ:  cpu time    0.0064: real time    0.0064
     EDDAV:  cpu time    1.7167: real time    1.7208
       DOS:  cpu time    0.0002: real time    0.0002
    CHARGE:  cpu time    0.1321: real time    0.1324
    MIXING:  cpu time    0.0387: real time    0.0388
    --------------------------------------------
      LOOP:  cpu time    3.3279: real time    3.3359

 eigenvalue-minimisations  :    64
 total energy-change (2. order) :-0.3267506E-01  (-0.2615233E+00)
 number of electron       7.9999999 magnetization 
 augmentation part        0.1791438 magnetization 

 Broyden mixing:
  rms(total) = 0.79472E-01    rms(broyden)= 0.79413E-01
  rms(prec ) = 0.93195E-01
  weight for this iteration     100.00

 Free energy of the ion-electron system (eV)
  ---------------------------------------------------
  alpha Z        PSCENC =         0.23775153
  Ewald energy   TEWEN  =       125.50301413
  -Hartree energ DENC   =      -282.41469768
  -exchange      EXHF   =         0.00000000
  -V(xc)+E(xc)   XCENC  =        24.59201311
  PAW double counting   =       427.96672585     -428.74823475
  entropy T*S    EENTRO =         0.01178077
  eigenvalues    EBANDS =       -88.20283130
  atomic energy  EATOM  =       197.04175453
  Solvation  Ediel_sol  =         0.00000000
  ---------------------------------------------------
  free energy    TOTEN  =       -24.01272382 eV

  energy without entropy =      -24.02450459  energy(sigma->0) =      -24.01665074


--------------------------------------------------------------------------------------------------------




--------------------------------------- Iteration      2(   2)  ---------------------------------------


    POTLOK:  cpu time    1.3115: real time    1.3146
    SETDIJ:  cpu time    0.0060: real time    0.0060
    EDDIAG:  cpu time    0.2957: real time    0.2964
  RMM-DIIS:  cpu time    1.1603: real time    1.1630
    ORTHCH:  cpu time    0.0112: real time    0.0112
       DOS:  cpu time    0.0002: real time    0.0002
    CHARGE:  cpu time    0.1300: real time    0.1303
    MIXING:  cpu time    0.0578: real time    0.0580
    --------------------------------------------
      LOOP:  cpu time    2.9727: real time    2.9797

 eigenvalue-minimisations  :    64
 total energy-change (2. order) :-0.2164476E-02  (-0.7256823E-02)
 number of electron       7.9999999 magnetization 
 augmentation part        0.1793363 magnetization 

 Broyden mixing:
  rms(total) = 0.76117E-01    rms(broyden)= 0.76107E-01
  rms(prec ) = 0.91289E-01
  weight for this iteration     100.00

 eigenvalues of (default mixing * dielectric matrix)
  average eigenvalue GAMMA=   2.0214
  8.5855  5.5453  3.7755  3.2155  2.4683  1.9887  1.9887  1.1533  1.1533  1.3952
  1.3952  1.0656  1.0656  0.9035  0.9035  0.9211  0.9211  0.6793  0.6793  0.6253

 Free energy of the ion-electron system (eV)
  ---------------------------------------------------
  alpha Z        PSCENC =         0.23775153
[...]
  rms(total) = 0.22044E-02    rms(broyden)= 0.22040E-02
  rms(prec ) = 0.29028E-02
  weight for this iteration     100.00

 eigenvalues of (default mixing * dielectric matrix)
  average eigenvalue GAMMA=   2.3516
  7.0746  5.5029  5.5029  1.0186  1.0186  4.7330  3.7859  3.7859  3.8941  0.5768
  0.5768  0.9305  0.9305  0.8836  0.8836  0.8287  2.0063  2.0063  1.2559  1.2559
  1.0333  1.2329  1.2329  1.6264  1.6264  2.2447  2.2447  2.7599  2.7599  1.8759
  2.0304  2.0304  2.9637  2.9637  3.0161  2.9742  2.1330  2.1330  2.1747  2.3687
  2.3687  2.6387  2.6387  2.6981  2.6981  2.6986  2.5695  2.5695  2.4709

 Free energy of the ion-electron system (eV)
  ---------------------------------------------------
  alpha Z        PSCENC =         0.23775153
  Ewald energy   TEWEN  =       128.63606952
  -Hartree energ DENC   =      -284.50891696
  -exchange      EXHF   =         0.00000000
  -V(xc)+E(xc)   XCENC  =        24.70073861
  PAW double counting   =       418.15254877     -418.93880890
  entropy T*S    EENTRO =         0.02539678
  eigenvalues    EBANDS =       -89.36109992
  atomic energy  EATOM  =       197.04175453
  Solvation  Ediel_sol  =         0.00000000
  ---------------------------------------------------
  free energy    TOTEN  =       -24.01456606 eV

  energy without entropy =      -24.03996284  energy(sigma->0) =      -24.02303165


--------------------------------------------------------------------------------------------------------




--------------------------------------- Iteration     10(  15)  ---------------------------------------


    POTLOK:  cpu time    1.4098: real time    1.4131
    SETDIJ:  cpu time    0.0105: real time    0.0106
    EDDIAG:  cpu time    0.3016: real time    0.3024
  RMM-DIIS:  cpu time    1.1493: real time    1.1520
    ORTHCH:  cpu time    0.0116: real time    0.0116
       DOS:  cpu time    0.0002: real time    0.0002
    CHARGE:  cpu time    0.1323: real time    0.1326
    MIXING:  cpu time    0.1159: real time    0.1162
    --------------------------------------------
      LOOP:  cpu time    3.1312: real time    3.1386

 eigenvalue-minimisations  :    64
 total energy-change (2. order) : 0.7967021E-05  (-0.4780125E-05)
 number of electron       8.0000004 magnetization 
 augmentation part        0.1848095 magnetization 

 Broyden mixing:
  rms(total) = 0.11980E-02    rms(broyden)= 0.11970E-02
  rms(prec ) = 0.15966E-02
  weight for this iteration     100.00

 eigenvalues of (default mixing * dielectric matrix)
  average eigenvalue GAMMA=   2.3688
  6.4589  6.4589  4.8448  0.5636  0.5636  4.6281  1.6033  1.6033  0.8652  0.8652
  3.6442  1.2154  1.2154  1.0745  1.0745  1.0132  1.2948  1.4729  1.4729  3.1414
  3.1414  2.2108  2.2108  1.6312  3.0847  2.6047  2.6047  1.9470  2.0434  2.0434
  2.2311  2.2311  2.7789  2.7789  2.1541  2.1541  2.8298  2.8176  2.5939  2.5939
  2.4135  2.6481  2.6481  2.5409  2.5845

 Free energy of the ion-electron system (eV)
  ---------------------------------------------------
  alpha Z        PSCENC =         0.23775153
  Ewald energy   TEWEN  =       128.63606952
  -Hartree energ DENC   =      -284.50728046
  -exchange      EXHF   =         0.00000000
  -V(xc)+E(xc)   XCENC  =        24.70061148
  PAW double counting   =       418.13992752     -418.92619813
  entropy T*S    EENTRO =         0.02532836
  eigenvalues    EBANDS =       -89.36252243
  atomic energy  EATOM  =       197.04175453
  Solvation  Ediel_sol  =         0.00000000
  ---------------------------------------------------
  free energy    TOTEN  =       -24.01455809 eV

  energy without entropy =      -24.03988645  energy(sigma->0) =      -24.02300088


--------------------------------------------------------------------------------------------------------




--------------------------------------- Iteration     10(  16)  ---------------------------------------


    POTLOK:  cpu time    1.3196: real time    1.3227
    SETDIJ:  cpu time    0.0057: real time    0.0057
    EDDIAG:  cpu time    0.2899: real time    0.2906
  RMM-DIIS:  cpu time    1.1559: real time    1.1586
    ORTHCH:  cpu time    0.0117: real time    0.0117
       DOS:  cpu time    0.0002: real time    0.0002
    CHARGE:  cpu time    0.1258: real time    0.1261
    MIXING:  cpu time    0.1048: real time    0.1051
    --------------------------------------------
      LOOP:  cpu time    3.0136: real time    3.0207

 eigenvalue-minimisations  :    64
 total energy-change (2. order) :-0.6377981E-06  (-0.2045512E-05)
 number of electron       8.0000004 magnetization 
 augmentation part        0.1848175 magnetization 

 Broyden mixing:
  rms(total) = 0.33367E-03    rms(broyden)= 0.32999E-03
  rms(prec ) = 0.43580E-03
  weight for this iteration     100.00

 eigenvalues of (default mixing * dielectric matrix)
  average eigenvalue GAMMA=   2.3644
  6.5133  6.5133  4.6635  4.6635  0.5917  0.5917  1.5281  1.5281  0.8563  0.8563
  3.6827  3.6827  0.9095  0.9095  1.0216  1.0216  1.3026  1.3026  1.4828  1.4828
  1.4715  2.0225  2.0225  2.5491  2.5491  3.1339  2.4908  2.4908  2.9239  2.9239
  1.9670  1.9670  1.9676  2.7495  2.7495  2.8179  2.8179  2.3564  2.3564  2.2000
  2.2784  2.4902  2.4902  2.6436  2.6436  2.5869

 Free energy of the ion-electron system (eV)
  ---------------------------------------------------
  alpha Z        PSCENC =         0.23775153
  Ewald energy   TEWEN  =       128.63606952
  -Hartree energ DENC   =      -284.50440198
  -exchange      EXHF   =         0.00000000
  -V(xc)+E(xc)   XCENC  =        24.70046631
  PAW double counting   =       418.14130527     -418.92755615
  entropy T*S    EENTRO =         0.02539349
  eigenvalues    EBANDS =       -89.36534125
  atomic energy  EATOM  =       197.04175453
  Solvation  Ediel_sol  =         0.00000000
  ---------------------------------------------------
  free energy    TOTEN  =       -24.01455873 eV

  energy without entropy =      -24.03995222  energy(sigma->0) =      -24.02302323


--------------------------------------------------------------------------------------------------------




--------------------------------------- Iteration     10(  17)  ---------------------------------------


    POTLOK:  cpu time    1.3240: real time    1.3271
    SETDIJ:  cpu time    0.0057: real time    0.0057
    EDDIAG:  cpu time    0.2762: real time    0.2768
  RMM-DIIS:  cpu time    0.8896: real time    0.8917
    ORTHCH:  cpu time    0.0116: real time    0.0116
       DOS:  cpu time    0.0002: real time    0.0002
    CHARGE:  cpu time    0.1314: real time    0.1317
    MIXING:  cpu time    0.1194: real time    0.1196
    --------------------------------------------
      LOOP:  cpu time    2.7581: real time    2.7646

 eigenvalue-minimisations  :    48
 total energy-change (2. order) :-0.1970027E-05  (-0.1140053E-06)
 number of electron       8.0000004 magnetization 
 augmentation part        0.1848180 magnetization 

 Broyden mixing:
  rms(total) = 0.42974E-03    rms(broyden)= 0.42948E-03
  rms(prec ) = 0.56914E-03
  weight for this iteration     100.00

 eigenvalues of (default mixing * dielectric matrix)
  average eigenvalue GAMMA=   2.3574
  6.5592  6.5592  4.6634  0.5935  0.5935  4.1386  4.1386  4.1429  1.5405  1.5405
  0.8079  0.8079  0.7974  1.2276  1.2276  0.9356  1.2165  1.2165  1.0739  2.1865
  2.1865  1.4738  1.4738  1.5782  3.1269  3.1269  2.5454  2.5454  1.9041  1.9721
  1.9721  2.9217  2.9217  2.8135  2.8135  2.1609  2.2137  2.2137  2.6005  2.6005
  2.3656  2.3656  2.6654  2.6654  2.5443  2.5443  2.5161

 Free energy of the ion-electron system (eV)
  ---------------------------------------------------
  alpha Z        PSCENC =         0.23775153
  Ewald energy   TEWEN  =       128.63606952
  -Hartree energ DENC   =      -284.50544610
  -exchange      EXHF   =         0.00000000
  -V(xc)+E(xc)   XCENC  =        24.70051065
  PAW double counting   =       418.14191583     -418.92817892
  entropy T*S    EENTRO =         0.02539639
  eigenvalues    EBANDS =       -89.36433413
  atomic energy  EATOM  =       197.04175453
  Solvation  Ediel_sol  =         0.00000000
  ---------------------------------------------------
  free energy    TOTEN  =       -24.01456070 eV

  energy without entropy =      -24.03995710  energy(sigma->0) =      -24.02302617


--------------------------------------------------------------------------------------------------------




--------------------------------------- Iteration     10(  18)  ---------------------------------------


    POTLOK:  cpu time    1.3931: real time    1.3964
    SETDIJ:  cpu time    0.0057: real time    0.0057
    EDDIAG:  cpu time    0.2639: real time    0.2646
  RMM-DIIS:  cpu time    0.9058: real time    0.9080
    ORTHCH:  cpu time    0.0116: real time    0.0116
       DOS:  cpu time    0.0002: real time    0.0002
    --------------------------------------------
      LOOP:  cpu time    2.5803: real time    2.5864

 eigenvalue-minimisations  :    48
 total energy-change (2. order) :-0.1617871E-06  (-0.3273528E-07)
 number of electron       8.0000004 magnetization 
 augmentation part        0.1848180 magnetization 

 Free energy of the ion-electron system (eV)
  ---------------------------------------------------
  alpha Z        PSCENC =         0.23775153
  Ewald energy   TEWEN  =       128.63606952
  -Hartree energ DENC   =      -284.50653092
  -exchange      EXHF   =         0.00000000
  -V(xc)+E(xc)   XCENC  =        24.70056761
  PAW double counting   =       418.14023914     -418.92651254
  entropy T*S    EENTRO =         0.02538685
  eigenvalues    EBANDS =       -89.36328659
  atomic energy  EATOM  =       197.04175453
  Solvation  Ediel_sol  =         0.00000000
  ---------------------------------------------------
  free energy    TOTEN  =       -24.01456086 eV

  energy without entropy =      -24.03994772  energy(sigma->0) =      -24.02302315


--------------------------------------------------------------------------------------------------------




 average (electrostatic) potential at core
  the test charge radii are     0.5201  0.6991
  (the norm of the test charge is              1.0000)
       1 -41.5062       2 -41.5820       3 -41.4340       4 -41.3813       5 -57.9835



 E-fermi :  -8.9610     XC(G=0):  -0.6834     alpha+bet : -0.2068


 k-point     1 :       0.2500    0.2500    0.2500
  band No.  band energies     occupation 
      1     -16.8741      2.00000
      2      -9.5227      2.00052
      3      -9.1765      2.06283
      4      -9.1061      1.93670
      5      -0.3262      0.00000
      6       0.5658      0.00000
      7       0.6578      0.00000
      8       0.7074      0.00000

 k-point     2 :      -0.2500    0.2500    0.2500
  band No.  band energies     occupation 
      1     -16.8741      2.00000
      2      -9.5225      2.00053
      3      -9.1764      2.06275
      4      -9.1060      1.93650
      5      -0.3277      0.00000
      6       0.5523      0.00000
      7       0.6727      0.00000
      8       0.7166      0.00000

 k-point     3 :       0.2500   -0.2500    0.2500
  band No.  band energies     occupation 
      1     -16.8741      2.00000
      2      -9.5227      2.00052
      3      -9.1764      2.06278
      4      -9.1060      1.93655
      5      -0.3216      0.00000
      6       0.5363      0.00000
      7       0.6631      0.00000
      8       0.7025      0.00000

 k-point     4 :      -0.2500   -0.2500    0.2500
  band No.  band energies     occupation 
      1     -16.8741      2.00000
      2      -9.5227      2.00052
      3      -9.1766      2.06285
      4      -9.1061      1.93695
      5      -0.3205      0.00000
      6       0.5520      0.00000
      7       0.6499      0.00000
      8       0.6917      0.00000


--------------------------------------------------------------------------------------------------------


 soft charge-density along one line, spin component           1
         0         1         2         3         4         5         6         7         8         9
 total charge-density along one line

 pseudopotential strength for first ion, spin component:           1
 -2.342  -4.035  -0.001  -0.001   0.001
 -4.035  -6.867  -0.003  -0.004   0.002
 -0.001  -0.003  -0.338   0.002  -0.001
 -0.001  -0.004   0.002  -0.336  -0.001
  0.001   0.002  -0.001  -0.001  -0.338
 total augmentation occupancy for first ion, spin component:           1
  3.128  -0.503   0.226   0.342  -0.202
 -0.503   0.093  -0.038  -0.057   0.032
  0.226  -0.038   0.023   0.021  -0.013
  0.342  -0.057   0.021   0.042  -0.020
 -0.202   0.032  -0.013  -0.020   0.021


------------------------ aborting loop because EDIFF is reached ----------------------------------------


    CHARGE:  cpu time    0.1281: real time    0.1284
    FORLOC:  cpu time    0.0961: real time    0.0964
    FORNL :  cpu time    0.4268: real time    0.4278
    STRESS:  cpu time    1.4640: real time    1.4675
    FORCOR:  cpu time    1.4479: real time    1.4513
    FORHAR:  cpu time    0.4711: real time    0.4722
    MIXING:  cpu time    0.1083: real time    0.1086
    OFIELD:  cpu time    0.0000: real time    0.0000

  FORCE on cell =-STRESS in cart. coord.  units (eV):
  Direction    XX          YY          ZZ          XY          YZ          ZX
  --------------------------------------------------------------------------------------
  Alpha Z     0.23775     0.23775     0.23775
  Ewald      41.85240    47.73457    39.04908    -3.66445     1.00649    -1.62025
  Hartree    92.26887    98.17823    94.05949    -1.26522     0.28185    -0.47144
  E(xc)     -27.16528   -27.15911   -27.17569    -0.02415     0.00001    -0.00731
  Local    -192.48242  -204.58439  -192.46231     4.20191    -0.97093     1.95306
  n-local   -17.09251   -16.32634   -15.89021    -0.27249    -0.20745     0.17412
  augment     0.12350     0.12470     0.13310     0.00353    -0.00257     0.00045
  Kinetic   101.23469   101.27253   100.06351     1.85869    -0.23192    -0.10735
  Fock        0.00000     0.00000     0.00000     0.00000     0.00000     0.00000
  -------------------------------------------------------------------------------------
  Total      -1.02300    -0.52206    -1.98526     0.83783    -0.12453    -0.07873
  in kB      -1.60859    -0.82089    -3.12167     1.31742    -0.19582    -0.12380
  external pressure =       -1.85 kB  Pullay stress =        0.00 kB

  kinetic pressure (ideal gas correction) =      0.05 kB
  total pressure  =     -1.80 kB
  Total+kin.    -1.512      -0.808      -3.081       1.285      -0.202      -0.099

 VOLUME and BASIS-vectors are now :
 -----------------------------------------------------------------------------
  energy-cutoff  :      400.00
  volume of cell :     1018.92
      direct lattice vectors                 reciprocal lattice vectors
    10.283480482  0.000000000  0.000000000     0.097243341  0.001163547  0.000020009
    -0.117783045  9.843710392  0.000000000     0.000000000  0.101587710 -0.002836679
    -0.005434156  0.281068357 10.065675731     0.000000000 -0.000000000  0.099347528

  length of vectors
    10.283480482  9.844415023 10.069600631     0.097250304  0.101627308  0.099347528


 FORCES acting on ions
    electron-ion (+dipol)            ewald-force                    non-local-force                 convergence-correction
 -----------------------------------------------------------------------------------------------
   -.179E+02 0.271E+02 0.403E+02   0.194E+02 -.295E+02 -.439E+02   -.193E+01 0.357E+01 0.441E+01   0.106E-03 -.165E-03 0.653E-04
   0.533E+02 -.555E+01 0.323E+00   -.596E+02 0.584E+01 -.294E+00   0.600E+01 -.116E+01 -.131E+00   0.185E-03 -.290E-04 -.100E-03
   -.208E+02 -.499E+02 0.692E+00   0.236E+02 0.561E+02 -.852E+00   -.246E+01 -.479E+01 0.644E-02   0.265E-03 -.130E-03 0.196E-03
   -.153E+02 0.238E+02 -.424E+02   0.163E+02 -.257E+02 0.455E+02   -.131E+01 0.244E+01 -.386E+01   0.387E-03 0.538E-05 -.255E-04
   -.363E-01 0.637E+01 0.535E+00   0.246E+00 -.669E+01 -.473E+00   0.205E+00 0.391E+00 -.865E-01   0.430E-02 -.326E-02 0.678E-04
 -----------------------------------------------------------------------------------------------
   -.765E+00 0.184E+01 -.478E+00   0.888E-14 0.000E+00 0.000E+00   0.509E+00 0.445E+00 0.339E+00   0.524E-02 -.358E-02 0.203E-03


 POSITION                                       TOTAL-FORCE (eV/Angst)
 -----------------------------------------------------------------------------------
      5.50251      4.14280      3.61199        -0.447933      1.149056      0.843243
      4.03778      4.84203      4.47862        -0.313623     -0.875845     -0.102367
      5.52411      5.71568      4.46764         0.374318      1.367031     -0.153937
      5.45383      4.19663      5.42681        -0.282639      0.571623     -0.701854
      5.11171      4.72837      4.48028         0.418894      0.070870     -0.023562
 -----------------------------------------------------------------------------------
    total drift:                               -0.250983      2.282736     -0.138477


--------------------------------------------------------------------------------------------------------



  FREE ENERGIE OF THE ION-ELECTRON SYSTEM (eV)
  ---------------------------------------------------
  free  energy   TOTEN  =       -24.01456086 eV

  energy  without entropy=      -24.03994772  energy(sigma->0) =      -24.02302315

 d Force = 0.4428979E-01[-0.364E-01, 0.125E+00]  d Energy = 0.2279522E-01 0.215E-01
 d Force = 0.5407023E+01[ 0.527E+01, 0.555E+01]  d Ewald  = 0.5404972E+01 0.205E-02


--------------------------------------------------------------------------------------------------------


    POTLOK:  cpu time    1.4554: real time    1.4589


--------------------------------------------------------------------------------------------------------


           RANDOM_SEED =         578495997               30                0
   IONSTEP:  cpu time    0.0001: real time    0.0001

  ENERGY OF THE ELECTRON-ION-THERMOSTAT SYSTEM (eV)
  ---------------------------------------------------
% ion-electron   TOTEN  =       -24.014561  see above
  kinetic energy EKIN   =         0.050250
  kin. lattice  EKIN_LAT=         0.000000  (temperature   97.19 K)
  nose potential ES     =         0.029408
  nose kinetic   EPS    =         0.038772
  ---------------------------------------------------
  total energy   ETOTAL =       -23.896131 eV

  maximum distance moved by ions :      0.53E-02


 mean value of Nose-termostat <S>:     2.033 mean value of <T> :    97.188
 mean temperature <T/S>/<1/S>  :    97.188

    WAVPRE:  cpu time    0.4227: real time    0.4306
    FEWALD:  cpu time    0.0003: real time    0.0003
    ORTHCH:  cpu time    0.1687: real time    0.1691
 Prediction of Wavefunctions ALPHA= 0.309 BETA=-0.764
    POTLOK:  cpu time    1.4114: real time    1.4148
    EDDIAG:  cpu time    0.2848: real time    0.2854
     LOOP+:  cpu time   62.6265: real time   62.7873
    4ORBIT:  cpu time    0.0000: real time    0.0000

 total amount of memory used by VASP MPI-rank0   299791. kBytes
=======================================================================

   base      :      30000. kBytes
   nonlr-proj:        150. kBytes
   fftplans  :      86584. kBytes
   grid      :     154542. kBytes
   one-center:         15. kBytes
   wavefun   :      28500. kBytes

  
  
 General timing and accounting informations for this job:
 ========================================================
  
                  Total CPU time used (sec):      623.752
                            User time (sec):      609.432
                          System time (sec):       14.320
                         Elapsed time (sec):      625.846
  
                   Maximum memory used (kb):      467416.
                   Average memory used (kb):           0.
  
                          Minor page faults:      2766078
                          Major page faults:            0
                 Voluntary context switches:          408
