 running on    1 total cores
 distrk:  each k-point on    1 cores,    1 groups
 distr:  one band on    1 cores,    1 groups
 using from now: INCAR     
 vasp.5.4.4.18Apr17-6-g9f103f2a35 (build Jul 12 2018 13:43:46) complex           
 POSCAR found type information on POSCAR  H  C 
 POSCAR found :  2 types and       5 ions
 scaLAPACK will be used

 ----------------------------------------------------------------------------- 
|                                                                             |
|  ADVICE TO THIS USER RUNNING 'VASP/VAMP'   (HEAR YOUR MASTER'S VOICE ...):  |
|                                                                             |
|      You have a (more or less) 'small supercell' and for smaller cells      |
|      it is recommended  to use the reciprocal-space projection scheme!      |
|      The real space optimization is not  efficient for small cells and it   |
|      is also less accurate ...                                              |
|      Therefore set LREAL=.FALSE. in the  INCAR file                         |
|                                                                             |
 ----------------------------------------------------------------------------- 


 ----------------------------------------------------------------------------- 
|                                                                             |
|           W    W    AA    RRRRR   N    N  II  N    N   GGGG   !!!           |
|           W    W   A  A   R    R  NN   N  II  NN   N  G    G  !!!           |
|           W    W  A    A  R    R  N N  N  II  N N  N  G       !!!           |
|           W WW W  AAAAAA  RRRRR   N  N N  II  N  N N  G  GGG   !            |
|           WW  WW  A    A  R   R   N   NN  II  N   NN  G    G                |
|           W    W  A    A  R    R  N    N  II  N    N   GGGG   !!!           |
|                                                                             |
|     The real-space-projection scheme for the treatment of the nonlocal      |
|     pseudopotentials has been switched on -- but on file POTCAR I have      |
|     not found any entries signalling me that you have ever performed a      |
|     real-space optimization of all nonlocal projectors! BE WARNED that      |
|     a calculation using the real-space-projection scheme together with      |
|     nonlocal projectors which were not real-space-optimized (according      |
|     to the plane-wave-cutoff used in this calculation) might give more      |
|     or less inaccurate results                                              |
|     I hope you know what you are doing                                      |
|                                                                             |
 ----------------------------------------------------------------------------- 

 LDA part: xc-table for Pade appr. of Perdew
 generate k-points for:    2    2    2
 POSCAR, INCAR and KPOINTS ok, starting setup
 FFT: planning ...
 WAVECAR not read
 prediction of wavefunctions initialized - no I/O
 entering main loop
       N       E                     dE             d eps       ncg     rms          rms(c)
DAV:   1     0.215262219160E+02    0.21526E+02   -0.19690E+03    96   0.423E+02
DAV:   2    -0.208766748233E+02   -0.42403E+02   -0.40643E+02    72   0.109E+02
DAV:   3    -0.271371899815E+02   -0.62605E+01   -0.62677E+01    64   0.482E+01
DAV:   4    -0.274263445828E+02   -0.28915E+00   -0.28669E+00   128   0.120E+01
DAV:   5    -0.274264755524E+02   -0.13097E-03   -0.13097E-03    80   0.277E-01    0.857E+00
RMM:   6    -0.246073031156E+02    0.28192E+01   -0.51598E+00    64   0.139E+01    0.420E+00
RMM:   7    -0.241315464474E+02    0.47576E+00   -0.11450E+00    64   0.619E+00    0.234E+00
RMM:   8    -0.240280163969E+02    0.10353E+00   -0.10034E-01    64   0.203E+00    0.106E+00
RMM:   9    -0.239878862563E+02    0.40130E-01   -0.54342E-02    64   0.176E+00    0.626E-01
RMM:  10    -0.239730136382E+02    0.14873E-01   -0.16526E-02    64   0.750E-01    0.288E-01
RMM:  11    -0.239728351292E+02    0.17851E-03   -0.33841E-03    64   0.397E-01    0.229E-01
RMM:  12    -0.239701603343E+02    0.26748E-02   -0.47636E-03    64   0.428E-01    0.492E-01
RMM:  13    -0.239690284448E+02    0.11319E-02   -0.12414E-03    64   0.201E-01    0.267E-01
RMM:  14    -0.239756680216E+02   -0.66396E-02   -0.50784E-03    64   0.440E-01    0.444E-01
RMM:  15    -0.239779490485E+02   -0.22810E-02   -0.60949E-04    64   0.173E-01    0.443E-01
RMM:  16    -0.239775797318E+02    0.36932E-03   -0.15791E-03    64   0.248E-01    0.996E-02
RMM:  17    -0.239788571706E+02   -0.12774E-02   -0.81510E-04    64   0.184E-01    0.164E-01
RMM:  18    -0.239792763633E+02   -0.41919E-03   -0.27400E-04    64   0.106E-01    0.575E-02
RMM:  19    -0.239797798683E+02   -0.50351E-03   -0.10342E-04    64   0.630E-02    0.601E-02
RMM:  20    -0.239799499054E+02   -0.17004E-03   -0.31357E-05    64   0.327E-02    0.745E-03
RMM:  21    -0.239800123558E+02   -0.62450E-04   -0.39075E-06    60   0.137E-02    0.227E-03
RMM:  22    -0.239800443377E+02   -0.31982E-04   -0.19824E-06    49   0.853E-03    0.209E-03
RMM:  23    -0.239800487604E+02   -0.44227E-05   -0.64122E-07    48   0.585E-03    0.144E-03
RMM:  24    -0.239800497155E+02   -0.95510E-06   -0.19010E-07    48   0.311E-03
    1 T=    64. E= -.23946715E+02 F= -.23980050E+02 E0= -.23992594E+02  EK= 0.33328E-01 SP= 0.00E+00 SK= 0.67E-05
 bond charge predicted
       N       E                     dE             d eps       ncg     rms          rms(c)
DAV:   1    -0.240127238166E+02   -0.32675E-01   -0.26152E+00    64   0.146E+01    0.795E-01
RMM:   2    -0.240148882923E+02   -0.21645E-02   -0.72568E-02    64   0.226E+00    0.761E-01
RMM:   3    -0.240066775256E+02    0.82108E-02   -0.89138E-02    64   0.190E+00    0.438E-01
RMM:   4    -0.240105840192E+02   -0.39065E-02   -0.29615E-02    64   0.111E+00    0.478E-01
RMM:   5    -0.240062023802E+02    0.43816E-02   -0.17631E-02    64   0.836E-01    0.192E-01
RMM:   6    -0.240060744890E+02    0.12789E-03   -0.15403E-03    64   0.288E-01    0.686E-02
RMM:   7    -0.240063149504E+02   -0.24046E-03   -0.45544E-04    64   0.143E-01    0.390E-02
RMM:   8    -0.240064242573E+02   -0.10931E-03   -0.10185E-04    64   0.684E-02    0.330E-02
RMM:   9    -0.240064303127E+02   -0.60554E-05   -0.35472E-05    64   0.370E-02    0.339E-02
RMM:  10    -0.240064314034E+02   -0.10907E-05   -0.15326E-06    52   0.112E-02    0.341E-02
RMM:  11    -0.240064178544E+02    0.13549E-04   -0.36869E-05    64   0.373E-02    0.358E-02
RMM:  12    -0.240063928784E+02    0.24976E-04   -0.23206E-05    64   0.305E-02    0.379E-02
RMM:  13    -0.240063684501E+02    0.24428E-04   -0.17524E-05    64   0.259E-02    0.400E-02
RMM:  14    -0.240062349154E+02    0.13353E-03   -0.26196E-04    64   0.997E-02    0.446E-02
RMM:  15    -0.240061919332E+02    0.42982E-04   -0.78392E-05    64   0.556E-02    0.438E-02
RMM:  16    -0.240060879068E+02    0.10403E-03   -0.26949E-04    64   0.101E-01    0.376E-02
RMM:  17    -0.240060688970E+02    0.19010E-04   -0.55780E-05    64   0.478E-02    0.320E-02
RMM:  18    -0.240060547418E+02    0.14155E-04   -0.21689E-05    64   0.300E-02    0.257E-02
RMM:  19    -0.240060486898E+02    0.60520E-05   -0.14996E-05    64   0.253E-02    0.191E-02
RMM:  20    -0.240060369848E+02    0.11705E-04   -0.19222E-05    64   0.273E-02    0.140E-02
RMM:  21    -0.240060284084E+02    0.85764E-05   -0.23551E-05    64   0.302E-02    0.828E-03
RMM:  22    -0.240060284326E+02   -0.24174E-07   -0.28863E-06    56   0.118E-02
    2 T=    88. E= -.23960449E+02 F= -.24006028E+02 E0= -.24011044E+02  EK= 0.45253E-01 SP= 0.18E-03 SK= 0.14E-03
 bond charge predicted
 prediction of wavefunctions
       N       E                     dE             d eps       ncg     rms          rms(c)
DAV:   1    -0.239962153765E+02    0.98130E-02   -0.17012E+00    64   0.123E+01    0.522E-01
RMM:   2    -0.241430736621E+02   -0.14686E+00   -0.64037E-01    64   0.487E+00    0.207E+00
RMM:   3    -0.241040710584E+02    0.39003E-01   -0.13675E+00    64   0.708E+00    0.151E+00
RMM:   4    -0.239980011095E+02    0.10607E+00   -0.44722E-01    64   0.414E+00    0.479E-01
RMM:   5    -0.239949762605E+02    0.30248E-02   -0.45823E-02    64   0.140E+00    0.263E-01
RMM:   6    -0.239925269971E+02    0.24493E-02   -0.10179E-02    64   0.635E-01    0.141E-01
RMM:   7    -0.239926851741E+02   -0.15818E-03   -0.11167E-03    64   0.228E-01    0.147E-01
RMM:   8    -0.239923074745E+02    0.37770E-03   -0.95028E-04    64   0.191E-01    0.874E-02
RMM:   9    -0.239923101223E+02   -0.26478E-05   -0.11451E-03    64   0.210E-01    0.914E-02
RMM:  10    -0.239921680136E+02    0.14211E-03   -0.14892E-03    64   0.239E-01    0.455E-02
RMM:  11    -0.239922101177E+02   -0.42104E-04   -0.96968E-05    64   0.666E-02    0.497E-02
RMM:  12    -0.239921302098E+02    0.79908E-04   -0.15546E-04    64   0.768E-02    0.176E-02
RMM:  13    -0.239921274245E+02    0.27853E-05   -0.72400E-05    64   0.533E-02    0.944E-03
RMM:  14    -0.239921322858E+02   -0.48613E-05   -0.27582E-06    52   0.133E-02    0.605E-03
RMM:  15    -0.239921365743E+02   -0.42884E-05   -0.35189E-06    60   0.124E-02    0.234E-03
RMM:  16    -0.239921373361E+02   -0.76186E-06   -0.57843E-07    48   0.583E-03
    3 T=    78. E= -.23950367E+02 F= -.23992137E+02 E0= -.23996061E+02  EK= 0.40366E-01 SP= 0.85E-03 SK= 0.56E-03
 bond charge predicted
 prediction of wavefunctions
       N       E                     dE             d eps       ncg     rms          rms(c)
DAV:   1    -0.240250073282E+02   -0.32871E-01   -0.40927E-01    64   0.634E+00    0.450E-01
RMM:   2    -0.241183974007E+02   -0.93390E-01   -0.26104E-01    64   0.337E+00    0.149E+00
RMM:   3    -0.240197765704E+02    0.98621E-01   -0.26955E-01    64   0.324E+00    0.254E-01
RMM:   4    -0.240270712995E+02   -0.72947E-02   -0.48537E-02    64   0.140E+00    0.487E-01
RMM:   5    -0.240205082620E+02    0.65630E-02   -0.62087E-03    64   0.514E-01    0.220E-01
RMM:   6    -0.240245324340E+02   -0.40242E-02   -0.49430E-03    64   0.472E-01    0.443E-01
RMM:   7    -0.240201604179E+02    0.43720E-02   -0.51400E-03    64   0.448E-01    0.178E-01
RMM:   8    -0.240198524847E+02    0.30793E-03   -0.48975E-04    64   0.151E-01    0.125E-01
RMM:   9    -0.240197515694E+02    0.10092E-03   -0.19225E-04    64   0.908E-02    0.104E-01
RMM:  10    -0.240196618239E+02    0.89745E-04   -0.80032E-04    64   0.194E-01    0.331E-02
RMM:  11    -0.240196559590E+02    0.58649E-05   -0.67097E-05    64   0.555E-02    0.235E-02
RMM:  12    -0.240196746873E+02   -0.18728E-04   -0.10062E-04    64   0.657E-02    0.184E-02
RMM:  13    -0.240196888478E+02   -0.14160E-04   -0.65675E-05    64   0.505E-02    0.141E-02
RMM:  14    -0.240197162459E+02   -0.27398E-04   -0.43620E-05    64   0.413E-02    0.273E-02
RMM:  15    -0.240197048941E+02    0.11352E-04   -0.34620E-06    56   0.125E-02    0.200E-02
RMM:  16    -0.240196979216E+02    0.69726E-05   -0.40041E-05    64   0.390E-02    0.167E-03
RMM:  17    -0.240197003719E+02   -0.24503E-05   -0.26242E-06    56   0.113E-02    0.248E-03
RMM:  18    -0.240197014326E+02   -0.10607E-05   -0.50209E-07    48   0.521E-03    0.530E-04
RMM:  19    -0.240197020230E+02   -0.59036E-06   -0.10693E-07    48   0.279E-03
    4 T=   133. E= -.23947384E+02 F= -.24019702E+02 E0= -.24028396E+02  EK= 0.68545E-01 SP= 0.19E-02 SK= 0.19E-02
 bond charge predicted
 prediction of wavefunctions
       N       E                     dE             d eps       ncg     rms          rms(c)
DAV:   1    -0.240062328603E+02    0.13469E-01   -0.26169E+00    64   0.156E+01    0.746E-01
RMM:   2    -0.253514094074E+02   -0.13452E+01   -0.39832E+00    64   0.123E+01    0.539E+00
RMM:   3    -0.240142515420E+02    0.13372E+01   -0.42528E+00    64   0.126E+01    0.893E-01
RMM:   4    -0.240130118479E+02    0.12397E-02   -0.85338E-02    64   0.229E+00    0.764E-01
RMM:   5    -0.240071059931E+02    0.59059E-02   -0.10553E-02    64   0.711E-01    0.450E-01
RMM:   6    -0.240018013972E+02    0.53046E-02   -0.48636E-02    64   0.141E+00    0.197E-01
RMM:   7    -0.240032647990E+02   -0.14634E-02   -0.46032E-03    64   0.467E-01    0.231E-01
RMM:   8    -0.240035788373E+02   -0.31404E-03   -0.39475E-04    64   0.152E-01    0.246E-01
RMM:   9    -0.240021915190E+02    0.13873E-02   -0.36665E-03    64   0.377E-01    0.154E-01
RMM:  10    -0.240017142093E+02    0.47731E-03   -0.40687E-04    64   0.130E-01    0.110E-01
RMM:  11    -0.240014515078E+02    0.26270E-03   -0.32217E-04    64   0.114E-01    0.769E-02
RMM:  12    -0.240013054919E+02    0.14602E-03   -0.21669E-04    64   0.927E-02    0.445E-02
RMM:  13    -0.240012805882E+02    0.24904E-04   -0.12546E-04    64   0.712E-02    0.254E-02
RMM:  14    -0.240012774073E+02    0.31809E-05   -0.13178E-05    64   0.258E-02    0.199E-02
RMM:  15    -0.240012695275E+02    0.78797E-05   -0.19185E-05    64   0.282E-02    0.943E-03
RMM:  16    -0.240012716464E+02   -0.21188E-05   -0.88624E-06    64   0.191E-02    0.359E-03
RMM:  17    -0.240012749338E+02   -0.32875E-05   -0.16288E-06    48   0.926E-03    0.133E-03
RMM:  18    -0.240012765476E+02   -0.16138E-05   -0.73910E-07    48   0.695E-03    0.429E-04
RMM:  19    -0.240012772443E+02   -0.69671E-06   -0.14053E-07    48   0.328E-03
    5 T=   164. E= -.23906138E+02 F= -.24001277E+02 E0= -.24005286E+02  EK= 0.84912E-01 SP= 0.39E-02 SK= 0.63E-02
 bond charge predicted
 prediction of wavefunctions
       N       E                     dE             d eps       ncg     rms          rms(c)
DAV:   1    -0.239960733178E+02    0.52032E-02   -0.10725E+00    64   0.109E+01    0.662E-01
RMM:   2    -0.240385839335E+02   -0.42511E-01   -0.22976E-01    64   0.327E+00    0.116E+00
RMM:   3    -0.239994701896E+02    0.39114E-01   -0.82253E-02    64   0.186E+00    0.472E-01
RMM:   4    -0.239930271357E+02    0.64431E-02   -0.38397E-02    64   0.116E+00    0.164E-01
RMM:   5    -0.239940700031E+02   -0.10429E-02   -0.29153E-03    64   0.387E-01    0.106E-01
RMM:   6    -0.239942404342E+02   -0.17043E-03   -0.10406E-03    64   0.206E-01    0.419E-02
RMM:   7    -0.239946220007E+02   -0.38157E-03   -0.10318E-04    64   0.696E-02    0.290E-02
RMM:   8    -0.239947486713E+02   -0.12667E-03   -0.23211E-04    64   0.931E-02    0.256E-02
RMM:   9    -0.239948077924E+02   -0.59121E-04   -0.35740E-05    64   0.376E-02    0.215E-02
RMM:  10    -0.239948221746E+02   -0.14382E-04   -0.47157E-05    64   0.421E-02    0.716E-03
RMM:  11    -0.239948333972E+02   -0.11223E-04   -0.22512E-05    64   0.285E-02    0.357E-03
RMM:  12    -0.239948378031E+02   -0.44060E-05   -0.74629E-06    64   0.177E-02    0.727E-03
RMM:  13    -0.239948399887E+02   -0.21855E-05   -0.13154E-06    48   0.776E-03    0.432E-03
RMM:  14    -0.239948405611E+02   -0.57242E-06   -0.71553E-07    48   0.586E-03
    6 T=    97. E= -.23925507E+02 F= -.23994841E+02 E0= -.23998751E+02  EK= 0.50295E-01 SP= 0.75E-02 SK= 0.12E-01
 bond charge predicted
 prediction of wavefunctions
       N       E                     dE             d eps       ncg     rms          rms(c)
DAV:   1    -0.239894938805E+02    0.53461E-02   -0.39509E-01    64   0.691E+00    0.536E-01
RMM:   2    -0.239846677724E+02    0.48261E-02   -0.36285E-02    64   0.148E+00    0.506E-01
RMM:   3    -0.239926759561E+02   -0.80082E-02   -0.24794E-02    64   0.109E+00    0.470E-01
RMM:   4    -0.239952860271E+02   -0.26101E-02   -0.41428E-03    64   0.452E-01    0.485E-01
RMM:   5    -0.239919778527E+02    0.33082E-02   -0.14501E-02    64   0.742E-01    0.267E-01
RMM:   6    -0.239878322787E+02    0.41456E-02   -0.71799E-03    64   0.532E-01    0.248E-01
RMM:   7    -0.239857519489E+02    0.20803E-02   -0.25224E-03    64   0.314E-01    0.202E-01
RMM:   8    -0.239852602340E+02    0.49171E-03   -0.52117E-04    64   0.152E-01    0.155E-01
RMM:   9    -0.239849473296E+02    0.31290E-03   -0.64656E-04    64   0.164E-01    0.468E-02
RMM:  10    -0.239850575327E+02   -0.11020E-03   -0.31872E-04    64   0.107E-01    0.289E-02
RMM:  11    -0.239851663863E+02   -0.10885E-03   -0.33167E-05    64   0.370E-02    0.526E-02
RMM:  12    -0.239851428871E+02    0.23499E-04   -0.63879E-05    64   0.469E-02    0.115E-02
RMM:  13    -0.239851797851E+02   -0.36898E-04   -0.16948E-05    64   0.251E-02    0.336E-02
RMM:  14    -0.239851757858E+02    0.39993E-05   -0.65323E-06    64   0.164E-02    0.162E-02
RMM:  15    -0.239851832735E+02   -0.74877E-05   -0.81738E-06    64   0.168E-02    0.300E-03
RMM:  16    -0.239851888770E+02   -0.56035E-05   -0.66781E-07    48   0.665E-03    0.485E-03
RMM:  17    -0.239851902882E+02   -0.14112E-05   -0.90768E-07    48   0.594E-03    0.449E-03
RMM:  18    -0.239851904361E+02   -0.14791E-06   -0.22732E-07    48   0.342E-03
    7 T=   100. E= -.23906150E+02 F= -.23985190E+02 E0= -.23993508E+02  EK= 0.51777E-01 SP= 0.12E-01 SK= 0.16E-01
 bond charge predicted
 prediction of wavefunctions
       N       E                     dE             d eps       ncg     rms          rms(c)
DAV:   1    -0.240476460392E+02   -0.62456E-01   -0.11333E+00    64   0.103E+01    0.677E-01
RMM:   2    -0.240414943336E+02    0.61517E-02   -0.49701E-02    64   0.171E+00    0.433E-01
RMM:   3    -0.240444400033E+02   -0.29457E-02   -0.34503E-02    64   0.118E+00    0.430E-01
RMM:   4    -0.240459874467E+02   -0.15474E-02   -0.39670E-03    64   0.427E-01    0.462E-01
RMM:   5    -0.240403079525E+02    0.56795E-02   -0.79275E-03    64   0.523E-01    0.144E-01
RMM:   6    -0.240403527372E+02   -0.44785E-04   -0.14344E-03    64   0.244E-01    0.145E-01
RMM:   7    -0.240402417698E+02    0.11097E-03   -0.26079E-04    64   0.106E-01    0.567E-02
RMM:   8    -0.240403310553E+02   -0.89286E-04   -0.18346E-04    64   0.939E-02    0.514E-02
RMM:   9    -0.240403783119E+02   -0.47257E-04   -0.83171E-05    64   0.631E-02    0.383E-02
RMM:  10    -0.240404169773E+02   -0.38665E-04   -0.48805E-05    64   0.444E-02    0.337E-02
RMM:  11    -0.240404231389E+02   -0.61616E-05   -0.77254E-05    64   0.528E-02    0.374E-02
RMM:  12    -0.240404098813E+02    0.13258E-04   -0.99386E-06    64   0.223E-02    0.893E-03
RMM:  13    -0.240404170285E+02   -0.71472E-05   -0.13810E-06    48   0.859E-03    0.743E-03
RMM:  14    -0.240404217388E+02   -0.47103E-05   -0.26951E-06    56   0.109E-02    0.330E-03
RMM:  15    -0.240404228804E+02   -0.11416E-05   -0.32805E-07    48   0.475E-03    0.161E-03
RMM:  16    -0.240404234441E+02   -0.56368E-06   -0.93545E-08    48   0.237E-03
    8 T=   179. E= -.23906043E+02 F= -.24040423E+02 E0= -.24048854E+02  EK= 0.92702E-01 SP= 0.16E-01 SK= 0.25E-01
 bond charge predicted
 prediction of wavefunctions
       N       E                     dE             d eps       ncg     rms          rms(c)
DAV:   1    -0.239932825451E+02    0.47140E-01   -0.65707E-01    64   0.806E+00    0.526E-01
RMM:   2    -0.240511885895E+02   -0.57906E-01   -0.18484E-01    64   0.300E+00    0.114E+00
RMM:   3    -0.240185493186E+02    0.32639E-01   -0.19837E-02    64   0.949E-01    0.856E-01
RMM:   4    -0.240002350410E+02    0.18314E-01   -0.39486E-02    64   0.131E+00    0.463E-01
RMM:   5    -0.239967645199E+02    0.34705E-02   -0.66881E-03    64   0.537E-01    0.351E-01
RMM:   6    -0.239941283129E+02    0.26362E-02   -0.29078E-03    64   0.349E-01    0.247E-01
RMM:   7    -0.239921730247E+02    0.19553E-02   -0.34111E-03    64   0.371E-01    0.113E-01
RMM:   8    -0.239918252152E+02    0.34781E-03   -0.11363E-03    64   0.215E-01    0.586E-02
RMM:   9    -0.239918084015E+02    0.16814E-04   -0.14807E-04    64   0.862E-02    0.430E-02
RMM:  10    -0.239917870644E+02    0.21337E-04   -0.73974E-05    64   0.571E-02    0.298E-02
RMM:  11    -0.239917654820E+02    0.21582E-04   -0.40964E-05    64   0.416E-02    0.201E-02
RMM:  12    -0.239917601894E+02    0.52926E-05   -0.30331E-05    64   0.351E-02    0.122E-02
RMM:  13    -0.239917606822E+02   -0.49278E-06   -0.18412E-05    64   0.269E-02    0.688E-03
RMM:  14    -0.239917635271E+02   -0.28449E-05   -0.47174E-06    60   0.148E-02    0.431E-03
RMM:  15    -0.239917650084E+02   -0.14813E-05   -0.20433E-06    56   0.982E-03    0.243E-03
RMM:  16    -0.239917656398E+02   -0.63139E-06   -0.86389E-07    48   0.699E-03
    9 T=    70. E= -.23899156E+02 F= -.23991766E+02 E0= -.23996572E+02  EK= 0.36020E-01 SP= 0.23E-01 SK= 0.34E-01
 bond charge predicted
 prediction of wavefunctions
       N       E                     dE             d eps       ncg     rms          rms(c)
DAV:   1    -0.240251839586E+02   -0.33419E-01   -0.14061E+00    64   0.112E+01    0.689E-01
RMM:   2    -0.240441752778E+02   -0.18991E-01   -0.13589E-01    64   0.248E+00    0.874E-01
RMM:   3    -0.240592230709E+02   -0.15048E-01   -0.85836E-02    64   0.184E+00    0.112E+00
RMM:   4    -0.240172902306E+02    0.41933E-01   -0.65690E-02    64   0.157E+00    0.312E-01
RMM:   5    -0.240171905717E+02    0.99659E-04   -0.10283E-02    64   0.661E-01    0.285E-01
RMM:   6    -0.240175305218E+02   -0.33995E-03   -0.27368E-03    64   0.348E-01    0.198E-01
RMM:   7    -0.240169263790E+02    0.60414E-03   -0.13814E-03    64   0.264E-01    0.141E-01
RMM:   8    -0.240159938383E+02    0.93254E-03   -0.10108E-03    64   0.197E-01    0.161E-01
RMM:   9    -0.240152008974E+02    0.79294E-03   -0.66779E-04    64   0.163E-01    0.148E-01
RMM:  10    -0.240147798872E+02    0.42101E-03   -0.64998E-04    64   0.163E-01    0.950E-02
RMM:  11    -0.240148057417E+02   -0.25854E-04   -0.36079E-05    64   0.456E-02    0.921E-02
RMM:  12    -0.240146741662E+02    0.13158E-03   -0.45196E-04    64   0.133E-01    0.706E-02
RMM:  13    -0.240145733944E+02    0.10077E-03   -0.10544E-04    64   0.658E-02    0.313E-02
RMM:  14    -0.240145660599E+02    0.73346E-05   -0.22888E-05    64   0.323E-02    0.220E-02
RMM:  15    -0.240145580929E+02    0.79670E-05   -0.47801E-05    64   0.445E-02    0.120E-02
RMM:  16    -0.240145587307E+02   -0.63780E-06   -0.20455E-05    64   0.290E-02    0.334E-03
RMM:  17    -0.240145607007E+02   -0.19700E-05   -0.11401E-06    48   0.903E-03    0.430E-03
RMM:  18    -0.240145608625E+02   -0.16179E-06   -0.32735E-07    48   0.465E-03
   10 T=    97. E= -.23896131E+02 F= -.24014561E+02 E0= -.24023023E+02  EK= 0.50250E-01 SP= 0.29E-01 SK= 0.39E-01
 bond charge predicted
 prediction of wavefunctions
 wavefunctions rotated
