<?xml version="1.0" encoding="ISO-8859-1"?>
<modeling>
 <generator>
  <i name="program" type="string">vasp </i>
  <i name="version" type="string">5.4.4.18Apr17-6-g9f103f2a35  </i>
  <i name="subversion" type="string">(build Jul 12 2018 13:43:46) complex            parallel </i>
  <i name="platform" type="string">LinuxGNU </i>
  <i name="date" type="string">2019 06 22 </i>
  <i name="time" type="string">02:17:35 </i>
 </generator>
 <incar>
  <i type="int" name="ISTART">     0</i>
  <i type="string" name="PREC">a</i>
  <i type="string" name="ALGO">fast</i>
  <i type="int" name="MAXMIX">    50</i>
  <i type="int" name="ICHARG">     2</i>
  <i type="int" name="IBRION">     0</i>
  <i name="EDIFF">      0.00000100</i>
  <i type="int" name="NSW">    10</i>
  <i type="int" name="ISIF">     2</i>
  <i type="int" name="ISYM">     0</i>
  <i type="int" name="NBLOCK">     1</i>
  <i type="int" name="KBLOCK">   100</i>
  <i name="ENCUT">    400.00000000</i>
  <i name="POTIM">      2.00000000</i>
  <i name="TEBEG">     50.00000000</i>
  <i name="TEEND">     50.00000000</i>
  <i name="SMASS">      0.00000000</i>
  <i type="logical" name="LREAL"> T  </i>
  <i type="int" name="ISMEAR">     1</i>
  <i name="SIGMA">      0.20000000</i>
  <i name="KSPACING">      0.50000000</i>
  <i type="logical" name="KGAMMA"> F  </i>
  <i name="PSTRESS">      0.00000000</i>
  <i type="logical" name="LWAVE"> F  </i>
  <i type="logical" name="LCHARG"> F  </i>
  <v type="int" name="KPOINT_BSE">    -1     0     0     0</v>
 </incar>
 <structure name="primitive_cell" >
  <crystal>
   <varray name="basis" >
    <v>      10.28348048       0.00000000       0.00000000 </v>
    <v>      -0.11778305       9.84371039       0.00000000 </v>
    <v>      -0.00543416       0.28106836      10.06567573 </v>
   </varray>
   <i name="volume">   1018.92423372 </i>
   <varray name="rec_basis" >
    <v>       0.09724334       0.00116355       0.00002001 </v>
    <v>       0.00000000       0.10158771      -0.00283668 </v>
    <v>       0.00000000      -0.00000000       0.09934753 </v>
   </varray>
  </crystal>
  <varray name="positions" >
   <v>      -0.46198704       0.40649384       0.36056490 </v>
   <v>      -0.49692664       0.46755915       0.44555439 </v>
   <v>      -0.44799216      -0.43458545       0.44266907 </v>
   <v>      -0.47179698       0.41705677      -0.46044665 </v>
   <v>       0.39455684       0.48065054       0.43858568 </v>
  </varray>
 </structure>
 <varray name="primitive_index" >
  <v type="int" >        1 </v>
  <v type="int" >        5 </v>
  <v type="int" >        3 </v>
  <v type="int" >        4 </v>
  <v type="int" >        2 </v>
 </varray>
 <kpoints>
  <generation param="Monkhorst-Pack">
   <v type="int" name="divisions">       2        2        2 </v>
   <v name="usershift">      0.00000000       0.00000000       0.00000000 </v>
   <v name="genvec1">      0.50000000       0.00000000      -0.00000000 </v>
   <v name="genvec2">      0.00000000       0.50000000       0.00000000 </v>
   <v name="genvec3">      0.00000000       0.00000000       0.50000000 </v>
   <v name="shift">      0.50000000       0.50000000       0.50000000 </v>
  </generation>
  <varray name="kpointlist" >
   <v>       0.25000000       0.25000000       0.25000000 </v>
   <v>      -0.25000000       0.25000000       0.25000000 </v>
   <v>       0.25000000      -0.25000000       0.25000000 </v>
   <v>      -0.25000000      -0.25000000       0.25000000 </v>
  </varray>
  <varray name="weights" >
   <v>       0.25000000 </v>
   <v>       0.25000000 </v>
   <v>       0.25000000 </v>
   <v>       0.25000000 </v>
  </varray>
 </kpoints>
 <parameters>
  <separator name="general" >
   <i type="string" name="SYSTEM">unknown system</i>
   <i type="logical" name="LCOMPAT"> F  </i>
  </separator>
  <separator name="electronic" >
   <i type="string" name="PREC">a</i>
   <i name="ENMAX">    400.00000000</i>
   <i name="ENAUG">    644.87300000</i>
   <i name="EDIFF">      0.00000100</i>
   <i type="int" name="IALGO">    68</i>
   <i type="int" name="IWAVPR">    12</i>
   <i type="int" name="NBANDS">     8</i>
   <i name="NELECT">      8.00000000</i>
   <i type="int" name="TURBO">     0</i>
   <i type="int" name="IRESTART">     0</i>
   <i type="int" name="NREBOOT">     0</i>
   <i type="int" name="NMIN">     0</i>
   <i name="EREF">      0.00000000</i>
   <separator name="electronic smearing" >
    <i type="int" name="ISMEAR">     1</i>
    <i name="SIGMA">      0.20000000</i>
    <i name="KSPACING">      0.50000000</i>
    <i type="logical" name="KGAMMA"> F  </i>
   </separator>
   <separator name="electronic projectors" >
    <i type="logical" name="LREAL"> T  </i>
    <v name="ROPT">      0.00000000      0.00000000</v>
    <i type="int" name="LMAXPAW">  -100</i>
    <i type="int" name="LMAXMIX">     2</i>
    <i type="logical" name="NLSPLINE"> F  </i>
   </separator>
   <separator name="electronic startup" >
    <i type="int" name="ISTART">     0</i>
    <i type="int" name="ICHARG">     2</i>
    <i type="int" name="INIWAV">     1</i>
   </separator>
   <separator name="electronic spin" >
    <i type="int" name="ISPIN">     1</i>
    <i type="logical" name="LNONCOLLINEAR"> F  </i>
    <v name="MAGMOM">      1.00000000      1.00000000      1.00000000      1.00000000      1.00000000</v>
    <i name="NUPDOWN">     -1.00000000</i>
    <i type="logical" name="LSORBIT"> F  </i>
    <v name="SAXIS">      0.00000000      0.00000000      1.00000000</v>
    <i type="logical" name="LSPIRAL"> F  </i>
    <v name="QSPIRAL">      0.00000000      0.00000000      0.00000000</v>
    <i type="logical" name="LZEROZ"> F  </i>
   </separator>
   <separator name="electronic exchange-correlation" >
    <i type="logical" name="LASPH"> F  </i>
    <i type="logical" name="LMETAGGA"> F  </i>
   </separator>
   <separator name="electronic convergence" >
    <i type="int" name="NELM">    60</i>
    <i type="int" name="NELMDL">    -5</i>
    <i type="int" name="NELMIN">     2</i>
    <i name="ENINI">    400.00000000</i>
    <separator name="electronic convergence detail" >
     <i type="logical" name="LDIAG"> T  </i>
     <i type="logical" name="LSUBROT"> F  </i>
     <i name="WEIMIN">      0.00100000</i>
     <i name="EBREAK">      0.00000003</i>
     <i name="DEPER">      0.30000000</i>
     <i type="int" name="NRMM">     4</i>
     <i name="TIME">      0.40000000</i>
    </separator>
   </separator>
   <separator name="electronic mixer" >
    <i name="AMIX">      0.40000000</i>
    <i name="BMIX">      1.00000000</i>
    <i name="AMIN">      0.10000000</i>
    <i name="AMIX_MAG">      1.60000000</i>
    <i name="BMIX_MAG">      1.00000000</i>
    <separator name="electronic mixer details" >
     <i type="int" name="IMIX">     4</i>
     <i type="logical" name="MIXFIRST"> F  </i>
     <i type="int" name="MAXMIX">    50</i>
     <i name="WC">    100.00000000</i>
     <i type="int" name="INIMIX">     1</i>
     <i type="int" name="MIXPRE">     1</i>
     <i type="int" name="MREMOVE">     5</i>
    </separator>
   </separator>
   <separator name="electronic dipolcorrection" >
    <i type="logical" name="LDIPOL"> F  </i>
    <i type="logical" name="LMONO"> F  </i>
    <i type="int" name="IDIPOL">     0</i>
    <i name="EPSILON">      1.00000000</i>
    <v name="DIPOL">   -100.00000000   -100.00000000   -100.00000000</v>
    <i name="EFIELD">      0.00000000</i>
   </separator>
  </separator>
  <separator name="grids" >
   <i type="int" name="NGX">    70</i>
   <i type="int" name="NGY">    64</i>
   <i type="int" name="NGZ">    70</i>
   <i type="int" name="NGXF">   140</i>
   <i type="int" name="NGYF">   128</i>
   <i type="int" name="NGZF">   140</i>
   <i type="logical" name="ADDGRID"> F  </i>
  </separator>
  <separator name="ionic" >
   <i type="int" name="NSW">    10</i>
   <i type="int" name="IBRION">     0</i>
   <i type="int" name="MDALGO">     0</i>
   <i type="int" name="ISIF">     2</i>
   <i name="PSTRESS">      0.00000000</i>
   <i name="EDIFFG">      0.00001000</i>
   <i type="int" name="NFREE">     0</i>
   <i name="POTIM">      2.00000000</i>
   <i name="SMASS">      0.00152953</i>
   <i name="SCALEE">      1.00000000</i>
  </separator>
  <separator name="ionic md" >
   <i name="TEBEG">     50.00000000</i>
   <i name="TEEND">     50.00000000</i>
   <i type="int" name="NBLOCK">     1</i>
   <i type="int" name="KBLOCK">     1</i>
   <i type="int" name="NPACO">   256</i>
   <i name="APACO">     16.00000000</i>
  </separator>
  <separator name="symmetry" >
   <i type="int" name="ISYM">     0</i>
   <i name="SYMPREC">      0.00001000</i>
  </separator>
  <separator name="dos" >
   <i type="int" name="LORBIT">     0</i>
   <v name="RWIGS">     -1.00000000     -1.00000000</v>
   <i type="int" name="NEDOS">   301</i>
   <i name="EMIN">     10.00000000</i>
   <i name="EMAX">    -10.00000000</i>
   <i name="EFERMI">      0.00000000</i>
  </separator>
  <separator name="writing" >
   <i type="int" name="NWRITE">     2</i>
   <i type="logical" name="LWAVE"> F  </i>
   <i type="logical" name="LDOWNSAMPLE"> F  </i>
   <i type="logical" name="LCHARG"> F  </i>
   <i type="logical" name="LPARD"> F  </i>
   <i type="logical" name="LVTOT"> F  </i>
   <i type="logical" name="LVHAR"> F  </i>
   <i type="logical" name="LELF"> F  </i>
   <i type="logical" name="LOPTICS"> F  </i>
   <v name="STM">      0.00000000      0.00000000      0.00000000      0.00000000      0.00000000      0.00000000      0.00000000</v>
  </separator>
  <separator name="performance" >
   <i type="int" name="NPAR">     1</i>
   <i type="int" name="NSIM">     4</i>
   <i type="int" name="NBLK">    -1</i>
   <i type="logical" name="LPLANE"> T  </i>
   <i type="logical" name="LSCALAPACK"> T  </i>
   <i type="logical" name="LSCAAWARE"> F  </i>
   <i type="logical" name="LSCALU"> F  </i>
   <i type="logical" name="LASYNC"> F  </i>
   <i type="logical" name="LORBITALREAL"> F  </i>
  </separator>
  <separator name="miscellaneous" >
   <i type="int" name="IDIOT">     3</i>
   <i type="int" name="ISPECIAL">     0</i>
   <i type="logical" name="LMUSIC"> F  </i>
   <v name="POMASS">      1.00000000     12.01100000</v>
   <v name="DARWINR">      0.00000000      0.00000000</v>
   <v name="DARWINV">      1.00000000      1.00000000</v>
   <i type="logical" name="LCORR"> T  </i>
  </separator>
  <i type="logical" name="GGA_COMPAT"> T  </i>
  <i type="logical" name="LBERRY"> F  </i>
  <i type="int" name="ICORELEVEL">     0</i>
  <i type="logical" name="LDAU"> F  </i>
  <i type="int" name="I_CONSTRAINED_M">     0</i>
  <separator name="electronic exchange-correlation" >
   <i type="string" name="GGA">--</i>
   <i type="int" name="VOSKOWN">     0</i>
   <i type="logical" name="LHFCALC"> F  </i>
   <i type="string" name="PRECFOCK"></i>
   <i type="logical" name="LSYMGRAD"> F  </i>
   <i type="logical" name="LHFONE"> F  </i>
   <i type="logical" name="LRHFCALC"> F  </i>
   <i type="logical" name="LTHOMAS"> F  </i>
   <i type="logical" name="LMODELHF"> F  </i>
   <i name="ENCUT4O">     -1.00000000</i>
   <i type="int" name="EXXOEP">     0</i>
   <i type="int" name="FOURORBIT">     0</i>
   <i name="AEXX">      0.00000000</i>
   <i name="HFALPHA">      0.00000000</i>
   <i name="MCALPHA">      0.00000000</i>
   <i name="ALDAX">      1.00000000</i>
   <i name="AGGAX">      1.00000000</i>
   <i name="ALDAC">      1.00000000</i>
   <i name="AGGAC">      1.00000000</i>
   <i type="int" name="NKREDX">     1</i>
   <i type="int" name="NKREDY">     1</i>
   <i type="int" name="NKREDZ">     1</i>
   <i type="logical" name="SHIFTRED"> F  </i>
   <i type="logical" name="ODDONLY"> F  </i>
   <i type="logical" name="EVENONLY"> F  </i>
   <i type="int" name="LMAXFOCK">     0</i>
   <i type="int" name="NMAXFOCKAE">     0</i>
   <i type="logical" name="LFOCKAEDFT"> F  </i>
   <i name="HFSCREEN">      0.00000000</i>
   <i name="HFSCREENC">      0.00000000</i>
   <i type="int" name="NBANDSGWLOW">     0</i>
  </separator>
  <separator name="vdW DFT" >
   <i type="logical" name="LUSE_VDW"> F  </i>
   <i name="Zab_VDW">     -0.84910000</i>
   <i name="PARAM1">      0.12340000</i>
   <i name="PARAM2">      1.00000000</i>
   <i name="PARAM3">      0.00000000</i>
  </separator>
  <separator name="model GW" >
   <i type="int" name="MODEL_GW">     0</i>
   <i name="MODEL_EPS0">    122.27090805</i>
   <i name="MODEL_ALPHA">      1.00000000</i>
  </separator>
  <separator name="linear response parameters" >
   <i type="logical" name="LEPSILON"> F  </i>
   <i type="logical" name="LRPA"> F  </i>
   <i type="logical" name="LNABLA"> F  </i>
   <i type="logical" name="LVEL"> F  </i>
   <i type="int" name="KINTER">     0</i>
   <i name="CSHIFT">      0.10000000</i>
   <i name="OMEGAMAX">     -1.00000000</i>
   <i name="DEG_THRESHOLD">      0.00200000</i>
   <i name="RTIME">     -0.10000000</i>
   <i name="WPLASMAI">      0.00000000</i>
   <v name="DFIELD">      0.00000000      0.00000000      0.00000000</v>
   <v name="WPLASMA">      0.00000000      0.00000000      0.00000000      0.00000000      0.00000000      0.00000000      0.00000000      0.00000000      0.00000000</v>
  </separator>
  <separator name="orbital magnetization" >
   <i type="logical" name="NUCIND"> F  </i>
   <v name="MAGPOS">      0.00000000      0.00000000      0.00000000</v>
   <i type="logical" name="LNICSALL"> T  </i>
   <i type="logical" name="ORBITALMAG"> F  </i>
   <i type="logical" name="LMAGBLOCH"> F  </i>
   <i type="logical" name="LCHIMAG"> F  </i>
   <i type="logical" name="LGAUGE"> T  </i>
   <i type="int" name="MAGATOM">     0</i>
   <v name="MAGDIPOL">      0.00000000      0.00000000      0.00000000</v>
   <v name="AVECCONST">      0.00000000      0.00000000      0.00000000</v>
  </separator>
  <separator name="response functions" >
   <i type="logical" name="LADDER"> F  </i>
   <i type="logical" name="LRPAFORCE"> F  </i>
   <i type="logical" name="LFXC"> F  </i>
   <i type="logical" name="LHARTREE"> T  </i>
   <i type="int" name="IBSE">     0</i>
   <v type="int" name="KPOINT">    -1     0     0     0</v>
   <i type="logical" name="LTCTE"> F  </i>
   <i type="logical" name="LTETE"> F  </i>
   <i type="logical" name="LTRIPLET"> F  </i>
   <i type="logical" name="LFXCEPS"> F  </i>
   <i type="logical" name="LFXHEG"> F  </i>
   <i type="int" name="NATURALO">     2</i>
   <i type="logical" name="L2ORDER"> F  </i>
   <i type="logical" name="LMP2LT"> F  </i>
   <i type="logical" name="LUSEW"> F  </i>
   <i name="ENCUTGW">     -2.00000000</i>
   <i name="ENCUTGWSOFT">     -2.00000000</i>
   <i name="ENCUTLF">     -1.00000000</i>
   <i type="int" name="LMAXMP2">    -1</i>
   <i name="SCISSOR">      0.00000000</i>
   <i type="int" name="NOMEGA">     0</i>
   <i type="int" name="NOMEGAR">     0</i>
   <i type="int" name="NBANDSGW">    -1</i>
   <i type="int" name="NBANDSO">    -1</i>
   <i type="int" name="NBANDSV">    -1</i>
   <i type="int" name="NELM">     1</i>
   <i type="int" name="NELMHF">     1</i>
   <i type="int" name="DIM">     3</i>
   <i type="int" name="ANTIRES">     0</i>
   <i name="OMEGAMAX">    -30.00000000</i>
   <i name="OMEGAMIN">    -30.00000000</i>
   <i name="OMEGATL">   -200.00000000</i>
   <i type="int" name="OMEGAGRID">   140</i>
   <i name="CSHIFT">     -0.10000000</i>
   <i type="logical" name="SELFENERGY"> F  </i>
   <i type="logical" name="LSPECTRAL"> F  </i>
   <i type="logical" name="LSPECTRALGW"> F  </i>
   <i type="logical" name="LSINGLES"> F  </i>
   <i type="logical" name="LFERMIGW"> F  </i>
   <i type="logical" name="ODDONLYGW"> F  </i>
   <i type="logical" name="EVENONLYGW"> F  </i>
   <i type="int" name="NKREDLFX">     1</i>
   <i type="int" name="NKREDLFY">     1</i>
   <i type="int" name="NKREDLFZ">     1</i>
   <i type="int" name="MAXMEM">  2800</i>
   <i type="int" name="TELESCOPE">     0</i>
   <i type="int" name="TAUPAR">     1</i>
   <i type="int" name="OMEGAPAR">    -1</i>
   <i name="LAMBDA">      1.00000000</i>
  </separator>
  <separator name="External order field" >
   <i name="OFIELD_KAPPA">      0.00000000</i>
   <v name="OFIELD_K">      0.00000000      0.00000000      0.00000000</v>
   <i name="OFIELD_Q6_NEAR">      0.00000000</i>
   <i name="OFIELD_Q6_FAR">      0.00000000</i>
   <i name="OFIELD_A">      0.00000000</i>
  </separator>
 </parameters>
 <atominfo>
  <atoms>       5 </atoms>
  <types>       2 </types>
  <array name="atoms" >
   <dimension dim="1">ion</dimension>
   <field type="string">element</field>
   <field type="int">atomtype</field>
   <set>
    <rc><c>H </c><c>   1</c></rc>
    <rc><c>H </c><c>   1</c></rc>
    <rc><c>H </c><c>   1</c></rc>
    <rc><c>H </c><c>   1</c></rc>
    <rc><c>C </c><c>   2</c></rc>
   </set>
  </array>
  <array name="atomtypes" >
   <dimension dim="1">type</dimension>
   <field type="int">atomspertype</field>
   <field type="string">element</field>
   <field>mass</field>
   <field>valence</field>
   <field type="string">pseudopotential</field>
   <set>
    <rc><c>   4</c><c>H </c><c>      1.00000000</c><c>      1.00000000</c><c>  PAW_PBE H 15Jun2001                   </c></rc>
    <rc><c>   1</c><c>C </c><c>     12.01100000</c><c>      4.00000000</c><c>  PAW_PBE C 08Apr2002                   </c></rc>
   </set>
  </array>
 </atominfo>
 <structure name="initialpos" >
  <crystal>
   <varray name="basis" >
    <v>      10.28348048       0.00000000       0.00000000 </v>
    <v>      -0.11778305       9.84371039       0.00000000 </v>
    <v>      -0.00543416       0.28106836      10.06567573 </v>
   </varray>
   <i name="volume">   1018.92423372 </i>
   <varray name="rec_basis" >
    <v>       0.09724334       0.00116355       0.00002001 </v>
    <v>       0.00000000       0.10158771      -0.00283668 </v>
    <v>       0.00000000      -0.00000000       0.09934753 </v>
   </varray>
  </crystal>
  <varray name="positions" >
   <v>       0.53801296       0.40649384       0.36056490 </v>
   <v>       0.39455684       0.48065054       0.43858568 </v>
   <v>       0.55200784       0.56541455       0.44266907 </v>
   <v>       0.52820302       0.41705677       0.53955335 </v>
   <v>       0.50307336       0.46755915       0.44555439 </v>
  </varray>
  <varray name="velocities" >
   <v>       0.00120768      -0.00098357       0.00077454 </v>
   <v>      -0.00057536       0.00165448      -0.00079592 </v>
   <v>       0.00241172       0.00069906       0.00109429 </v>
   <v>       0.00049083       0.00162050      -0.00096912 </v>
   <v>      -0.00029430      -0.00024898      -0.00000864 </v>
  </varray>
 </structure>
 <calculation>
  <scstep>
   <time name="dav">    2.37    2.37</time>
   <time name="total">    4.00    4.01</time>
   <energy>
    <i name="alphaZ">      0.23775153 </i>
    <i name="ewald">    127.84043229 </i>
    <i name="hartreedc">   -243.87950560 </i>
    <i name="XCdc">     21.96779052 </i>
    <i name="pawpsdc">    117.05815612 </i>
    <i name="pawaedc">   -117.66307307 </i>
    <i name="eentropy">     -0.02851966 </i>
    <i name="bandstr">    -81.04856475 </i>
    <i name="atom">    197.04175453 </i>
    <i name="e_fr_energy">     21.52622192 </i>
    <i name="e_wo_entrp">     21.55474158 </i>
    <i name="e_0_energy">     21.53572847 </i>
   </energy>
  </scstep>
  <scstep>
   <time name="dav">    1.85    1.86</time>
   <time name="total">    1.85    1.86</time>
   <energy>
    <i name="e_fr_energy">    -20.87667482 </i>
    <i name="e_wo_entrp">    -20.87964521 </i>
    <i name="e_0_energy">    -20.87766495 </i>
   </energy>
  </scstep>
  <scstep>
   <time name="dav">    1.71    1.72</time>
   <time name="total">    1.71    1.72</time>
   <energy>
    <i name="e_fr_energy">    -27.13718998 </i>
    <i name="e_wo_entrp">    -27.15786265 </i>
    <i name="e_0_energy">    -27.14408087 </i>
   </energy>
  </scstep>
  <scstep>
   <time name="dav">    3.03    3.04</time>
   <time name="total">    3.03    3.04</time>
   <energy>
    <i name="e_fr_energy">    -27.42634458 </i>
    <i name="e_wo_entrp">    -27.44597641 </i>
    <i name="e_0_energy">    -27.43288853 </i>
   </energy>
  </scstep>
  <scstep>
   <time name="dav">    1.96    1.97</time>
   <time name="total">    2.15    2.15</time>
   <energy>
    <i name="e_fr_energy">    -27.42647555 </i>
    <i name="e_wo_entrp">    -27.44610748 </i>
    <i name="e_0_energy">    -27.43301953 </i>
   </energy>
  </scstep>
  <scstep>
   <time name="diag">    0.27    0.27</time>
   <time name="diis">    1.14    1.14</time>
   <time name="orth">    0.01    0.01</time>
   <time name="total">    3.19    3.19</time>
   <energy>
    <i name="e_fr_energy">    -24.60730312 </i>
    <i name="e_wo_entrp">    -24.64582639 </i>
    <i name="e_0_energy">    -24.62014421 </i>
   </energy>
  </scstep>
  <scstep>
   <time name="diag">    0.41    0.41</time>
   <time name="diis">    1.34    1.35</time>
   <time name="orth">    0.01    0.01</time>
   <time name="total">    3.47    3.48</time>
   <energy>
    <i name="e_fr_energy">    -24.13154645 </i>
    <i name="e_wo_entrp">    -24.17165733 </i>
    <i name="e_0_energy">    -24.14491674 </i>
   </energy>
  </scstep>
  <scstep>
   <time name="diag">    0.28    0.28</time>
   <time name="diis">    1.26    1.27</time>
   <time name="orth">    0.01    0.01</time>
   <time name="total">    3.36    3.37</time>
   <energy>
    <i name="e_fr_energy">    -24.02801640 </i>
    <i name="e_wo_entrp">    -24.05827420 </i>
    <i name="e_0_energy">    -24.03810233 </i>
   </energy>
  </scstep>
  <scstep>
   <time name="diag">    0.26    0.26</time>
   <time name="diis">    1.31    1.31</time>
   <time name="orth">    0.01    0.01</time>
   <time name="total">    3.28    3.29</time>
   <energy>
    <i name="e_fr_energy">    -23.98788626 </i>
    <i name="e_wo_entrp">    -24.02367503 </i>
    <i name="e_0_energy">    -23.99981585 </i>
   </energy>
  </scstep>
  <scstep>
   <time name="diag">    0.27    0.27</time>
   <time name="diis">    1.12    1.13</time>
   <time name="orth">    0.01    0.01</time>
   <time name="total">    3.04    3.05</time>
   <energy>
    <i name="e_fr_energy">    -23.97301364 </i>
    <i name="e_wo_entrp">    -24.01194042 </i>
    <i name="e_0_energy">    -23.98598923 </i>
   </energy>
  </scstep>
  <scstep>
   <time name="diag">    0.26    0.26</time>
   <time name="diis">    1.14    1.14</time>
   <time name="orth">    0.01    0.01</time>
   <time name="total">    3.14    3.15</time>
   <energy>
    <i name="e_fr_energy">    -23.97283513 </i>
    <i name="e_wo_entrp">    -24.01010866 </i>
    <i name="e_0_energy">    -23.98525964 </i>
   </energy>
  </scstep>
  <scstep>
   <time name="diag">    0.26    0.26</time>
   <time name="diis">    1.14    1.14</time>
   <time name="orth">    0.01    0.01</time>
   <time name="total">    3.06    3.07</time>
   <energy>
    <i name="e_fr_energy">    -23.97016033 </i>
    <i name="e_wo_entrp">    -24.00788995 </i>
    <i name="e_0_energy">    -23.98273687 </i>
   </energy>
  </scstep>
  <scstep>
   <time name="diag">    0.29    0.30</time>
   <time name="diis">    1.22    1.22</time>
   <time name="orth">    0.01    0.01</time>
   <time name="total">    3.05    3.06</time>
   <energy>
    <i name="e_fr_energy">    -23.96902844 </i>
    <i name="e_wo_entrp">    -24.00631648 </i>
    <i name="e_0_energy">    -23.98145779 </i>
   </energy>
  </scstep>
  <scstep>
   <time name="diag">    0.26    0.26</time>
   <time name="diis">    1.22    1.23</time>
   <time name="orth">    0.01    0.01</time>
   <time name="total">    2.99    2.99</time>
   <energy>
    <i name="e_fr_energy">    -23.97566802 </i>
    <i name="e_wo_entrp">    -24.01619446 </i>
    <i name="e_0_energy">    -23.98917683 </i>
   </energy>
  </scstep>
  <scstep>
   <time name="diag">    0.26    0.26</time>
   <time name="diis">    1.15    1.15</time>
   <time name="orth">    0.01    0.01</time>
   <time name="total">    2.89    2.89</time>
   <energy>
    <i name="e_fr_energy">    -23.97794905 </i>
    <i name="e_wo_entrp">    -24.01845785 </i>
    <i name="e_0_energy">    -23.99145198 </i>
   </energy>
  </scstep>
  <scstep>
   <time name="diag">    0.29    0.29</time>
   <time name="diis">    1.14    1.14</time>
   <time name="orth">    0.01    0.01</time>
   <time name="total">    3.03    3.04</time>
   <energy>
    <i name="e_fr_energy">    -23.97757973 </i>
    <i name="e_wo_entrp">    -24.01556912 </i>
    <i name="e_0_energy">    -23.99024286 </i>
   </energy>
  </scstep>
  <scstep>
   <time name="diag">    0.40    0.40</time>
   <time name="diis">    1.14    1.15</time>
   <time name="orth">    0.01    0.01</time>
   <time name="total">    3.02    3.02</time>
   <energy>
    <i name="e_fr_energy">    -23.97885717 </i>
    <i name="e_wo_entrp">    -24.01615374 </i>
    <i name="e_0_energy">    -23.99128936 </i>
   </energy>
  </scstep>
  <scstep>
   <time name="diag">    0.30    0.30</time>
   <time name="diis">    1.25    1.26</time>
   <time name="orth">    0.01    0.01</time>
   <time name="total">    2.99    3.00</time>
   <energy>
    <i name="e_fr_energy">    -23.97927636 </i>
    <i name="e_wo_entrp">    -24.01708987 </i>
    <i name="e_0_energy">    -23.99188087 </i>
   </energy>
  </scstep>
  <scstep>
   <time name="diag">    0.28    0.28</time>
   <time name="diis">    1.14    1.14</time>
   <time name="orth">    0.01    0.01</time>
   <time name="total">    2.92    2.92</time>
   <energy>
    <i name="e_fr_energy">    -23.97977987 </i>
    <i name="e_wo_entrp">    -24.01723308 </i>
    <i name="e_0_energy">    -23.99226427 </i>
   </energy>
  </scstep>
  <scstep>
   <time name="diag">    0.28    0.28</time>
   <time name="diis">    1.16    1.16</time>
   <time name="orth">    0.01    0.01</time>
   <time name="total">    2.99    3.00</time>
   <energy>
    <i name="e_fr_energy">    -23.97994991 </i>
    <i name="e_wo_entrp">    -24.01755322 </i>
    <i name="e_0_energy">    -23.99248434 </i>
   </energy>
  </scstep>
  <scstep>
   <time name="diag">    0.29    0.29</time>
   <time name="diis">    1.09    1.09</time>
   <time name="orth">    0.01    0.01</time>
   <time name="total">    2.96    2.97</time>
   <energy>
    <i name="e_fr_energy">    -23.98001236 </i>
    <i name="e_wo_entrp">    -24.01764012 </i>
    <i name="e_0_energy">    -23.99255494 </i>
   </energy>
  </scstep>
  <scstep>
   <time name="diag">    0.32    0.33</time>
   <time name="diis">    1.01    1.01</time>
   <time name="orth">    0.01    0.01</time>
   <time name="total">    2.88    2.89</time>
   <energy>
    <i name="e_fr_energy">    -23.98004434 </i>
    <i name="e_wo_entrp">    -24.01766426 </i>
    <i name="e_0_energy">    -23.99258431 </i>
   </energy>
  </scstep>
  <scstep>
   <time name="diag">    0.28    0.28</time>
   <time name="diis">    0.98    0.98</time>
   <time name="orth">    0.02    0.02</time>
   <time name="total">    2.90    2.91</time>
   <energy>
    <i name="e_fr_energy">    -23.98004876 </i>
    <i name="e_wo_entrp">    -24.01767457 </i>
    <i name="e_0_energy">    -23.99259070 </i>
   </energy>
  </scstep>
  <scstep>
   <time name="diag">    0.28    0.28</time>
   <time name="diis">    0.90    0.90</time>
   <time name="orth">    0.01    0.01</time>
   <time name="total">    2.60    2.60</time>
   <energy>
    <i name="alphaZ">      0.23775153 </i>
    <i name="ewald">    127.84043229 </i>
    <i name="hartreedc">   -283.80069681 </i>
    <i name="XCdc">     24.66268505 </i>
    <i name="pawpsdc">    427.95811786 </i>
    <i name="pawaedc">   -428.73964724 </i>
    <i name="eentropy">      0.03763192 </i>
    <i name="bandstr">    -89.21807884 </i>
    <i name="atom">    197.04175453 </i>
    <i name="e_fr_energy">    -23.98004972 </i>
    <i name="e_wo_entrp">    -24.01768163 </i>
    <i name="e_0_energy">    -23.99259369 </i>
   </energy>
  </scstep>
  <structure>
   <crystal>
    <varray name="basis" >
     <v>      10.28348048       0.00000000       0.00000000 </v>
     <v>      -0.11778305       9.84371039       0.00000000 </v>
     <v>      -0.00543416       0.28106836      10.06567573 </v>
    </varray>
    <i name="volume">   1018.92423372 </i>
    <varray name="rec_basis" >
     <v>       0.09724334       0.00116355       0.00002001 </v>
     <v>       0.00000000       0.10158771      -0.00283668 </v>
     <v>       0.00000000      -0.00000000       0.09934753 </v>
    </varray>
   </crystal>
   <varray name="positions" >
    <v>       0.53801296       0.40649384       0.36056490 </v>
    <v>       0.39455684       0.48065054       0.43858568 </v>
    <v>       0.55200784       0.56541455       0.44266907 </v>
    <v>       0.52820302       0.41705677       0.53955335 </v>
    <v>       0.50307336       0.46755915       0.44555439 </v>
   </varray>
  </structure>
  <varray name="forces" >
   <v>      -0.56061596       0.61554108      -0.03670317 </v>
   <v>       0.48263838      -0.28769561       0.13617312 </v>
   <v>       0.39344665       1.11228913      -0.11717483 </v>
   <v>      -0.44462947      -0.43703832       0.48538829 </v>
   <v>      -1.49357444       0.13933319      -1.34487634 </v>
  </varray>
  <varray name="stress" >
   <v>      -3.17385560       0.75470010       0.04527123 </v>
   <v>       0.75470010      -1.23197126      -1.13121042 </v>
   <v>       0.04527123      -1.13121043      -0.78587640 </v>
  </varray>
  <energy>
   <i name="e_fr_energy">    -23.98004972 </i>
   <i name="e_wo_entrp">    -23.99259369 </i>
   <i name="e_0_energy">      0.03763192 </i>
   <i name="kinetic">      0.03332806 </i>
   <i name="lattice kinetic">      0.00000000 </i>
   <i name="nosepot">      0.00000000 </i>
   <i name="nosekinetic">      0.00000668 </i>
   <i name="total">    -23.94671497 </i>
  </energy>
  <dos>
   <i name="efermi">     -9.07250301 </i>
   <total>
    <array>
     <dimension dim="1">gridpoints</dimension>
     <dimension dim="2">spin</dimension>
     <field>energy</field>
     <field>total</field>
     <field>integrated</field>
     <set>
      <set comment="spin 1">
       <r>   -18.8414     0.0000     0.0000 </r>
       <r>   -18.7696     0.0000     0.0000 </r>
       <r>   -18.6977     0.0000     0.0000 </r>
       <r>   -18.6259     0.0000     0.0000 </r>
       <r>   -18.5541     0.0000     0.0000 </r>
       <r>   -18.4822    -0.0000    -0.0000 </r>
       <r>   -18.4104    -0.0000    -0.0000 </r>
       <r>   -18.3386    -0.0000    -0.0000 </r>
       <r>   -18.2667    -0.0000    -0.0000 </r>
       <r>   -18.1949    -0.0000    -0.0000 </r>
       <r>   -18.1230    -0.0000    -0.0000 </r>
       <r>   -18.0512    -0.0000    -0.0000 </r>
       <r>   -17.9794    -0.0000    -0.0000 </r>
       <r>   -17.9075    -0.0000    -0.0000 </r>
       <r>   -17.8357    -0.0000    -0.0000 </r>
       <r>   -17.7638    -0.0000    -0.0000 </r>
       <r>   -17.6920    -0.0000    -0.0000 </r>
       <r>   -17.6202    -0.0000    -0.0000 </r>
       <r>   -17.5483    -0.0001    -0.0000 </r>
       <r>   -17.4765    -0.0008    -0.0001 </r>
       <r>   -17.4047    -0.0061    -0.0005 </r>
       <r>   -17.3328    -0.0320    -0.0028 </r>
       <r>   -17.2610    -0.1212    -0.0115 </r>
       <r>   -17.1891    -0.3102    -0.0338 </r>
       <r>   -17.1173    -0.4343    -0.0650 </r>
       <r>   -17.0455     0.1499    -0.0542 </r>
       <r>   -16.9736     2.2702     0.1089 </r>
       <r>   -16.9018     5.6375     0.5139 </r>
       <r>   -16.8299     8.1135     1.0967 </r>
       <r>   -16.7581     7.5853     1.6416 </r>
       <r>   -16.6863     4.5304     1.9671 </r>
       <r>   -16.6144     1.4061     2.0681 </r>
       <r>   -16.5426    -0.1708     2.0558 </r>
       <r>   -16.4708    -0.4300     2.0249 </r>
       <r>   -16.3989    -0.2416     2.0076 </r>
       <r>   -16.3271    -0.0824     2.0017 </r>
       <r>   -16.2552    -0.0195     2.0003 </r>
       <r>   -16.1834    -0.0033     2.0000 </r>
       <r>   -16.1116    -0.0004     2.0000 </r>
       <r>   -16.0397    -0.0000     2.0000 </r>
       <r>   -15.9679    -0.0000     2.0000 </r>
       <r>   -15.8960    -0.0000     2.0000 </r>
       <r>   -15.8242    -0.0000     2.0000 </r>
       <r>   -15.7524    -0.0000     2.0000 </r>
       <r>   -15.6805    -0.0000     2.0000 </r>
       <r>   -15.6087    -0.0000     2.0000 </r>
       <r>   -15.5369     0.0000     2.0000 </r>
       <r>   -15.4650     0.0000     2.0000 </r>
       <r>   -15.3932     0.0000     2.0000 </r>
       <r>   -15.3213     0.0000     2.0000 </r>
       <r>   -15.2495     0.0000     2.0000 </r>
       <r>   -15.1777     0.0000     2.0000 </r>
       <r>   -15.1058     0.0000     2.0000 </r>
       <r>   -15.0340     0.0000     2.0000 </r>
       <r>   -14.9621     0.0000     2.0000 </r>
       <r>   -14.8903     0.0000     2.0000 </r>
       <r>   -14.8185     0.0000     2.0000 </r>
       <r>   -14.7466     0.0000     2.0000 </r>
       <r>   -14.6748     0.0000     2.0000 </r>
       <r>   -14.6030     0.0000     2.0000 </r>
       <r>   -14.5311     0.0000     2.0000 </r>
       <r>   -14.4593     0.0000     2.0000 </r>
       <r>   -14.3874     0.0000     2.0000 </r>
       <r>   -14.3156     0.0000     2.0000 </r>
       <r>   -14.2438     0.0000     2.0000 </r>
       <r>   -14.1719     0.0000     2.0000 </r>
       <r>   -14.1001     0.0000     2.0000 </r>
       <r>   -14.0282     0.0000     2.0000 </r>
       <r>   -13.9564     0.0000     2.0000 </r>
       <r>   -13.8846     0.0000     2.0000 </r>
       <r>   -13.8127     0.0000     2.0000 </r>
       <r>   -13.7409     0.0000     2.0000 </r>
       <r>   -13.6691     0.0000     2.0000 </r>
       <r>   -13.5972     0.0000     2.0000 </r>
       <r>   -13.5254     0.0000     2.0000 </r>
       <r>   -13.4535     0.0000     2.0000 </r>
       <r>   -13.3817     0.0000     2.0000 </r>
       <r>   -13.3099     0.0000     2.0000 </r>
       <r>   -13.2380     0.0000     2.0000 </r>
       <r>   -13.1662     0.0000     2.0000 </r>
       <r>   -13.0943     0.0000     2.0000 </r>
       <r>   -13.0225     0.0000     2.0000 </r>
       <r>   -12.9507     0.0000     2.0000 </r>
       <r>   -12.8788     0.0000     2.0000 </r>
       <r>   -12.8070     0.0000     2.0000 </r>
       <r>   -12.7352     0.0000     2.0000 </r>
       <r>   -12.6633     0.0000     2.0000 </r>
       <r>   -12.5915     0.0000     2.0000 </r>
       <r>   -12.5196     0.0000     2.0000 </r>
       <r>   -12.4478     0.0000     2.0000 </r>
       <r>   -12.3760     0.0000     2.0000 </r>
       <r>   -12.3041     0.0000     2.0000 </r>
       <r>   -12.2323     0.0000     2.0000 </r>
       <r>   -12.1604     0.0000     2.0000 </r>
       <r>   -12.0886     0.0000     2.0000 </r>
       <r>   -12.0168     0.0000     2.0000 </r>
       <r>   -11.9449     0.0000     2.0000 </r>
       <r>   -11.8731     0.0000     2.0000 </r>
       <r>   -11.8013     0.0000     2.0000 </r>
       <r>   -11.7294     0.0000     2.0000 </r>
       <r>   -11.6576     0.0000     2.0000 </r>
       <r>   -11.5857     0.0000     2.0000 </r>
       <r>   -11.5139     0.0000     2.0000 </r>
       <r>   -11.4421     0.0000     2.0000 </r>
       <r>   -11.3702     0.0000     2.0000 </r>
       <r>   -11.2984     0.0000     2.0000 </r>
       <r>   -11.2265     0.0000     2.0000 </r>
       <r>   -11.1547     0.0000     2.0000 </r>
       <r>   -11.0829     0.0000     2.0000 </r>
       <r>   -11.0110     0.0000     2.0000 </r>
       <r>   -10.9392    -0.0000     2.0000 </r>
       <r>   -10.8674    -0.0000     2.0000 </r>
       <r>   -10.7955    -0.0000     2.0000 </r>
       <r>   -10.7237    -0.0000     2.0000 </r>
       <r>   -10.6518    -0.0000     2.0000 </r>
       <r>   -10.5800    -0.0000     2.0000 </r>
       <r>   -10.5082    -0.0000     2.0000 </r>
       <r>   -10.4363    -0.0000     2.0000 </r>
       <r>   -10.3645    -0.0000     2.0000 </r>
       <r>   -10.2926    -0.0000     2.0000 </r>
       <r>   -10.2208    -0.0000     2.0000 </r>
       <r>   -10.1490    -0.0000     2.0000 </r>
       <r>   -10.0771    -0.0000     2.0000 </r>
       <r>   -10.0053    -0.0001     2.0000 </r>
       <r>    -9.9335    -0.0013     1.9999 </r>
       <r>    -9.8616    -0.0093     1.9992 </r>
       <r>    -9.7898    -0.0512     1.9956 </r>
       <r>    -9.7179    -0.2072     1.9807 </r>
       <r>    -9.6461    -0.5917     1.9382 </r>
       <r>    -9.5743    -1.0580     1.8622 </r>
       <r>    -9.5024    -0.5367     1.8236 </r>
       <r>    -9.4306     3.0679     2.0440 </r>
       <r>    -9.3587    10.8230     2.8215 </r>
       <r>    -9.2869    19.6938     4.2363 </r>
       <r>    -9.2151    23.4842     5.9233 </r>
       <r>    -9.1432    19.0305     7.2905 </r>
       <r>    -9.0714     9.9639     8.0063 </r>
       <r>    -8.9996     2.4812     8.1845 </r>
       <r>    -8.9277    -0.7438     8.1311 </r>
       <r>    -8.8559    -1.0522     8.0555 </r>
       <r>    -8.7840    -0.5434     8.0164 </r>
       <r>    -8.7122    -0.1790     8.0036 </r>
       <r>    -8.6404    -0.0417     8.0006 </r>
       <r>    -8.5685    -0.0071     8.0001 </r>
       <r>    -8.4967    -0.0009     8.0000 </r>
       <r>    -8.4248    -0.0001     8.0000 </r>
       <r>    -8.3530    -0.0000     8.0000 </r>
       <r>    -8.2812    -0.0000     8.0000 </r>
       <r>    -8.2093    -0.0000     8.0000 </r>
       <r>    -8.1375    -0.0000     8.0000 </r>
       <r>    -8.0657    -0.0000     8.0000 </r>
       <r>    -7.9938    -0.0000     8.0000 </r>
       <r>    -7.9220    -0.0000     8.0000 </r>
       <r>    -7.8501     0.0000     8.0000 </r>
       <r>    -7.7783     0.0000     8.0000 </r>
       <r>    -7.7065     0.0000     8.0000 </r>
       <r>    -7.6346     0.0000     8.0000 </r>
       <r>    -7.5628     0.0000     8.0000 </r>
       <r>    -7.4909     0.0000     8.0000 </r>
       <r>    -7.4191     0.0000     8.0000 </r>
       <r>    -7.3473     0.0000     8.0000 </r>
       <r>    -7.2754     0.0000     8.0000 </r>
       <r>    -7.2036     0.0000     8.0000 </r>
       <r>    -7.1318     0.0000     8.0000 </r>
       <r>    -7.0599     0.0000     8.0000 </r>
       <r>    -6.9881     0.0000     8.0000 </r>
       <r>    -6.9162     0.0000     8.0000 </r>
       <r>    -6.8444     0.0000     8.0000 </r>
       <r>    -6.7726     0.0000     8.0000 </r>
       <r>    -6.7007     0.0000     8.0000 </r>
       <r>    -6.6289     0.0000     8.0000 </r>
       <r>    -6.5570     0.0000     8.0000 </r>
       <r>    -6.4852     0.0000     8.0000 </r>
       <r>    -6.4134     0.0000     8.0000 </r>
       <r>    -6.3415     0.0000     8.0000 </r>
       <r>    -6.2697     0.0000     8.0000 </r>
       <r>    -6.1979     0.0000     8.0000 </r>
       <r>    -6.1260     0.0000     8.0000 </r>
       <r>    -6.0542     0.0000     8.0000 </r>
       <r>    -5.9823     0.0000     8.0000 </r>
       <r>    -5.9105     0.0000     8.0000 </r>
       <r>    -5.8387     0.0000     8.0000 </r>
       <r>    -5.7668     0.0000     8.0000 </r>
       <r>    -5.6950     0.0000     8.0000 </r>
       <r>    -5.6231     0.0000     8.0000 </r>
       <r>    -5.5513     0.0000     8.0000 </r>
       <r>    -5.4795     0.0000     8.0000 </r>
       <r>    -5.4076     0.0000     8.0000 </r>
       <r>    -5.3358     0.0000     8.0000 </r>
       <r>    -5.2640     0.0000     8.0000 </r>
       <r>    -5.1921     0.0000     8.0000 </r>
       <r>    -5.1203     0.0000     8.0000 </r>
       <r>    -5.0484     0.0000     8.0000 </r>
       <r>    -4.9766     0.0000     8.0000 </r>
       <r>    -4.9048     0.0000     8.0000 </r>
       <r>    -4.8329     0.0000     8.0000 </r>
       <r>    -4.7611     0.0000     8.0000 </r>
       <r>    -4.6892     0.0000     8.0000 </r>
       <r>    -4.6174     0.0000     8.0000 </r>
       <r>    -4.5456     0.0000     8.0000 </r>
       <r>    -4.4737     0.0000     8.0000 </r>
       <r>    -4.4019     0.0000     8.0000 </r>
       <r>    -4.3301     0.0000     8.0000 </r>
       <r>    -4.2582     0.0000     8.0000 </r>
       <r>    -4.1864     0.0000     8.0000 </r>
       <r>    -4.1145     0.0000     8.0000 </r>
       <r>    -4.0427     0.0000     8.0000 </r>
       <r>    -3.9709     0.0000     8.0000 </r>
       <r>    -3.8990     0.0000     8.0000 </r>
       <r>    -3.8272     0.0000     8.0000 </r>
       <r>    -3.7553     0.0000     8.0000 </r>
       <r>    -3.6835     0.0000     8.0000 </r>
       <r>    -3.6117     0.0000     8.0000 </r>
       <r>    -3.5398     0.0000     8.0000 </r>
       <r>    -3.4680     0.0000     8.0000 </r>
       <r>    -3.3962     0.0000     8.0000 </r>
       <r>    -3.3243     0.0000     8.0000 </r>
       <r>    -3.2525     0.0000     8.0000 </r>
       <r>    -3.1806     0.0000     8.0000 </r>
       <r>    -3.1088     0.0000     8.0000 </r>
       <r>    -3.0370     0.0000     8.0000 </r>
       <r>    -2.9651     0.0000     8.0000 </r>
       <r>    -2.8933     0.0000     8.0000 </r>
       <r>    -2.8214     0.0000     8.0000 </r>
       <r>    -2.7496     0.0000     8.0000 </r>
       <r>    -2.6778     0.0000     8.0000 </r>
       <r>    -2.6059     0.0000     8.0000 </r>
       <r>    -2.5341     0.0000     8.0000 </r>
       <r>    -2.4623     0.0000     8.0000 </r>
       <r>    -2.3904     0.0000     8.0000 </r>
       <r>    -2.3186     0.0000     8.0000 </r>
       <r>    -2.2467     0.0000     8.0000 </r>
       <r>    -2.1749     0.0000     8.0000 </r>
       <r>    -2.1031     0.0000     8.0000 </r>
       <r>    -2.0312     0.0000     8.0000 </r>
       <r>    -1.9594    -0.0000     8.0000 </r>
       <r>    -1.8875    -0.0000     8.0000 </r>
       <r>    -1.8157    -0.0000     8.0000 </r>
       <r>    -1.7439    -0.0000     8.0000 </r>
       <r>    -1.6720    -0.0000     8.0000 </r>
       <r>    -1.6002    -0.0000     8.0000 </r>
       <r>    -1.5284    -0.0000     8.0000 </r>
       <r>    -1.4565    -0.0000     8.0000 </r>
       <r>    -1.3847    -0.0000     8.0000 </r>
       <r>    -1.3128    -0.0000     8.0000 </r>
       <r>    -1.2410    -0.0000     8.0000 </r>
       <r>    -1.1692    -0.0000     8.0000 </r>
       <r>    -1.0973    -0.0000     8.0000 </r>
       <r>    -1.0255    -0.0001     8.0000 </r>
       <r>    -0.9536    -0.0012     7.9999 </r>
       <r>    -0.8818    -0.0081     7.9993 </r>
       <r>    -0.8100    -0.0405     7.9964 </r>
       <r>    -0.7381    -0.1450     7.9860 </r>
       <r>    -0.6663    -0.3444     7.9613 </r>
       <r>    -0.5945    -0.4119     7.9317 </r>
       <r>    -0.5226     0.3726     7.9584 </r>
       <r>    -0.4508     2.7614     8.1568 </r>
       <r>    -0.3789     6.1642     8.5996 </r>
       <r>    -0.3071     8.2544     9.1926 </r>
       <r>    -0.2353     7.2111     9.7107 </r>
       <r>    -0.1634     3.9708     9.9959 </r>
       <r>    -0.0916     1.0376    10.0704 </r>
       <r>    -0.0197    -0.2834    10.0501 </r>
       <r>     0.0521    -0.4458    10.0181 </r>
       <r>     0.1239    -0.3503     9.9929 </r>
       <r>     0.1958    -0.4690     9.9592 </r>
       <r>     0.2676    -0.7564     9.9049 </r>
       <r>     0.3394    -0.5323     9.8666 </r>
       <r>     0.4113     1.5588     9.9786 </r>
       <r>     0.4831     6.6372    10.4554 </r>
       <r>     0.5550    13.8761    11.4522 </r>
       <r>     0.6268    19.8609    12.8790 </r>
       <r>     0.6986    20.6691    14.3639 </r>
       <r>     0.7705    15.4738    15.4755 </r>
       <r>     0.8423     7.6989    16.0285 </r>
       <r>     0.9142     1.7724    16.1559 </r>
       <r>     0.9860    -0.6784    16.1071 </r>
       <r>     1.0578    -0.8652    16.0450 </r>
       <r>     1.1297    -0.4408    16.0133 </r>
       <r>     1.2015    -0.1449    16.0029 </r>
       <r>     1.2733    -0.0338    16.0005 </r>
       <r>     1.3452    -0.0058    16.0001 </r>
       <r>     1.4170    -0.0007    16.0000 </r>
       <r>     1.4889    -0.0001    16.0000 </r>
       <r>     1.5607    -0.0000    16.0000 </r>
       <r>     1.6325    -0.0000    16.0000 </r>
       <r>     1.7044    -0.0000    16.0000 </r>
       <r>     1.7762    -0.0000    16.0000 </r>
       <r>     1.8481    -0.0000    16.0000 </r>
       <r>     1.9199    -0.0000    16.0000 </r>
       <r>     1.9917    -0.0000    16.0000 </r>
       <r>     2.0636     0.0000    16.0000 </r>
       <r>     2.1354     0.0000    16.0000 </r>
       <r>     2.2072     0.0000    16.0000 </r>
       <r>     2.2791     0.0000    16.0000 </r>
       <r>     2.3509     0.0000    16.0000 </r>
       <r>     2.4228     0.0000    16.0000 </r>
       <r>     2.4946     0.0000    16.0000 </r>
       <r>     2.5664     0.0000    16.0000 </r>
       <r>     2.6383     0.0000    16.0000 </r>
       <r>     2.7101     0.0000    16.0000 </r>
      </set>
     </set>
    </array>
   </total>
  </dos>
  <time name="totalsc">   76.72   76.91</time>
 </calculation>
 <calculation>
  <scstep>
   <time name="dav">    1.72    1.72</time>
   <time name="total">    3.33    3.34</time>
   <energy>
    <i name="alphaZ">      0.23775153 </i>
    <i name="ewald">    125.50301413 </i>
    <i name="hartreedc">   -282.41469768 </i>
    <i name="XCdc">     24.59201311 </i>
    <i name="pawpsdc">    427.96672585 </i>
    <i name="pawaedc">   -428.74823475 </i>
    <i name="eentropy">      0.01178077 </i>
    <i name="bandstr">    -88.20283130 </i>
    <i name="atom">    197.04175453 </i>
    <i name="e_fr_energy">    -24.01272382 </i>
    <i name="e_wo_entrp">    -24.02450459 </i>
    <i name="e_0_energy">    -24.01665074 </i>
   </energy>
  </scstep>
  <scstep>
   <time name="diag">    0.30    0.30</time>
   <time name="diis">    1.16    1.16</time>
   <time name="orth">    0.01    0.01</time>
   <time name="total">    2.97    2.98</time>
   <energy>
    <i name="e_fr_energy">    -24.01488829 </i>
    <i name="e_wo_entrp">    -24.02684592 </i>
    <i name="e_0_energy">    -24.01887417 </i>
   </energy>
  </scstep>
  <scstep>
   <time name="diag">    0.30    0.30</time>
   <time name="diis">    1.15    1.16</time>
   <time name="orth">    0.01    0.01</time>
   <time name="total">    3.06    3.07</time>
   <energy>
    <i name="e_fr_energy">    -24.00667753 </i>
    <i name="e_wo_entrp">    -24.02963616 </i>
    <i name="e_0_energy">    -24.01433040 </i>
   </energy>
  </scstep>
  <scstep>
   <time name="diag">    0.29    0.29</time>
   <time name="diis">    1.14    1.14</time>
   <time name="orth">    0.01    0.01</time>
   <time name="total">    2.98    2.99</time>
   <energy>
    <i name="e_fr_energy">    -24.01058402 </i>
    <i name="e_wo_entrp">    -24.03823744 </i>
    <i name="e_0_energy">    -24.01980182 </i>
   </energy>
  </scstep>
  <scstep>
   <time name="diag">    0.26    0.26</time>
   <time name="diis">    1.54    1.55</time>
   <time name="orth">    0.01    0.01</time>
   <time name="total">    3.25    3.26</time>
   <energy>
    <i name="e_fr_energy">    -24.00620238 </i>
    <i name="e_wo_entrp">    -24.03294227 </i>
    <i name="e_0_energy">    -24.01511568 </i>
   </energy>
  </scstep>
  <scstep>
   <time name="diag">    0.27    0.27</time>
   <time name="diis">    1.23    1.23</time>
   <time name="orth">    0.02    0.02</time>
   <time name="total">    2.97    2.98</time>
   <energy>
    <i name="e_fr_energy">    -24.00607449 </i>
    <i name="e_wo_entrp">    -24.03162093 </i>
    <i name="e_0_energy">    -24.01458997 </i>
   </energy>
  </scstep>
  <scstep>
   <time name="diag">    0.27    0.27</time>
   <time name="diis">    1.15    1.15</time>
   <time name="orth">    0.01    0.01</time>
   <time name="total">    2.86    2.86</time>
   <energy>
    <i name="e_fr_energy">    -24.00631495 </i>
    <i name="e_wo_entrp">    -24.03102470 </i>
    <i name="e_0_energy">    -24.01455153 </i>
   </energy>
  </scstep>
  <scstep>
   <time name="diag">    0.39    0.39</time>
   <time name="diis">    1.13    1.14</time>
   <time name="orth">    0.01    0.01</time>
   <time name="total">    3.30    3.31</time>
   <energy>
    <i name="e_fr_energy">    -24.00642426 </i>
    <i name="e_wo_entrp">    -24.03015309 </i>
    <i name="e_0_energy">    -24.01433387 </i>
   </energy>
  </scstep>
  <scstep>
   <time name="diag">    0.40    0.40</time>
   <time name="diis">    1.35    1.35</time>
   <time name="orth">    0.01    0.01</time>
   <time name="total">    3.42    3.43</time>
   <energy>
    <i name="e_fr_energy">    -24.00643031 </i>
    <i name="e_wo_entrp">    -24.02958158 </i>
    <i name="e_0_energy">    -24.01414740 </i>
   </energy>
  </scstep>
  <scstep>
   <time name="diag">    0.49    0.49</time>
   <time name="diis">    1.14    1.14</time>
   <time name="orth">    0.01    0.01</time>
   <time name="total">    3.15    3.16</time>
   <energy>
    <i name="e_fr_energy">    -24.00643140 </i>
    <i name="e_wo_entrp">    -24.02973586 </i>
    <i name="e_0_energy">    -24.01419956 </i>
   </energy>
  </scstep>
  <scstep>
   <time name="diag">    0.28    0.28</time>
   <time name="diis">    1.29    1.30</time>
   <time name="orth">    0.01    0.01</time>
   <time name="total">    3.08    3.08</time>
   <energy>
    <i name="e_fr_energy">    -24.00641785 </i>
    <i name="e_wo_entrp">    -24.02887098 </i>
    <i name="e_0_energy">    -24.01390223 </i>
   </energy>
  </scstep>
  <scstep>
   <time name="diag">    0.26    0.27</time>
   <time name="diis">    1.19    1.20</time>
   <time name="orth">    0.01    0.01</time>
   <time name="total">    3.10    3.11</time>
   <energy>
    <i name="e_fr_energy">    -24.00639288 </i>
    <i name="e_wo_entrp">    -24.02819552 </i>
    <i name="e_0_energy">    -24.01366042 </i>
   </energy>
  </scstep>
  <scstep>
   <time name="diag">    0.28    0.28</time>
   <time name="diis">    1.13    1.13</time>
   <time name="orth">    0.01    0.01</time>
   <time name="total">    2.97    2.97</time>
   <energy>
    <i name="e_fr_energy">    -24.00636845 </i>
    <i name="e_wo_entrp">    -24.02763178 </i>
    <i name="e_0_energy">    -24.01345623 </i>
   </energy>
  </scstep>
  <scstep>
   <time name="diag">    0.28    0.28</time>
   <time name="diis">    1.13    1.14</time>
   <time name="orth">    0.01    0.01</time>
   <time name="total">    3.03    3.04</time>
   <energy>
    <i name="e_fr_energy">    -24.00623492 </i>
    <i name="e_wo_entrp">    -24.02526569 </i>
    <i name="e_0_energy">    -24.01257851 </i>
   </energy>
  </scstep>
  <scstep>
   <time name="diag">    0.37    0.37</time>
   <time name="diis">    1.15    1.16</time>
   <time name="orth">    0.01    0.01</time>
   <time name="total">    3.03    3.03</time>
   <energy>
    <i name="e_fr_energy">    -24.00619193 </i>
    <i name="e_wo_entrp">    -24.02438360 </i>
    <i name="e_0_energy">    -24.01225582 </i>
   </energy>
  </scstep>
  <scstep>
   <time name="diag">    0.27    0.28</time>
   <time name="diis">    1.18    1.18</time>
   <time name="orth">    0.02    0.02</time>
   <time name="total">    3.00    3.01</time>
   <energy>
    <i name="e_fr_energy">    -24.00608791 </i>
    <i name="e_wo_entrp">    -24.02264460 </i>
    <i name="e_0_energy">    -24.01160681 </i>
   </energy>
  </scstep>
  <scstep>
   <time name="diag">    0.28    0.28</time>
   <time name="diis">    1.14    1.14</time>
   <time name="orth">    0.01    0.01</time>
   <time name="total">    2.96    2.97</time>
   <energy>
    <i name="e_fr_energy">    -24.00606890 </i>
    <i name="e_wo_entrp">    -24.02216349 </i>
    <i name="e_0_energy">    -24.01143376 </i>
   </energy>
  </scstep>
  <scstep>
   <time name="diag">    0.28    0.28</time>
   <time name="diis">    1.13    1.13</time>
   <time name="orth">    0.01    0.01</time>
   <time name="total">    3.04    3.05</time>
   <energy>
    <i name="e_fr_energy">    -24.00605474 </i>
    <i name="e_wo_entrp">    -24.02192400 </i>
    <i name="e_0_energy">    -24.01134450 </i>
   </energy>
  </scstep>
  <scstep>
   <time name="diag">    0.27    0.27</time>
   <time name="diis">    1.15    1.15</time>
   <time name="orth">    0.01    0.01</time>
   <time name="total">    3.11    3.12</time>
   <energy>
    <i name="e_fr_energy">    -24.00604869 </i>
    <i name="e_wo_entrp">    -24.02178605 </i>
    <i name="e_0_energy">    -24.01129448 </i>
   </energy>
  </scstep>
  <scstep>
   <time name="diag">    0.30    0.30</time>
   <time name="diis">    1.22    1.22</time>
   <time name="orth">    0.01    0.01</time>
   <time name="total">    3.17    3.18</time>
   <energy>
    <i name="e_fr_energy">    -24.00603698 </i>
    <i name="e_wo_entrp">    -24.02146119 </i>
    <i name="e_0_energy">    -24.01117839 </i>
   </energy>
  </scstep>
  <scstep>
   <time name="diag">    0.27    0.28</time>
   <time name="diis">    1.24    1.24</time>
   <time name="orth">    0.01    0.01</time>
   <time name="total">    3.10    3.11</time>
   <energy>
    <i name="e_fr_energy">    -24.00602841 </i>
    <i name="e_wo_entrp">    -24.02113352 </i>
    <i name="e_0_energy">    -24.01106345 </i>
   </energy>
  </scstep>
  <scstep>
   <time name="diag">    0.28    0.28</time>
   <time name="diis">    1.00    1.00</time>
   <time name="orth">    0.01    0.01</time>
   <time name="total">    2.65    2.66</time>
   <energy>
    <i name="alphaZ">      0.23775153 </i>
    <i name="ewald">    125.50301413 </i>
    <i name="hartreedc">   -281.72641322 </i>
    <i name="XCdc">     24.55296376 </i>
    <i name="pawpsdc">    410.66642151 </i>
    <i name="pawaedc">   -411.44069815 </i>
    <i name="eentropy">      0.01504763 </i>
    <i name="bandstr">    -88.85587014 </i>
    <i name="atom">    197.04175453 </i>
    <i name="e_fr_energy">    -24.00602843 </i>
    <i name="e_wo_entrp">    -24.02107606 </i>
    <i name="e_0_energy">    -24.01104431 </i>
   </energy>
  </scstep>
  <structure>
   <crystal>
    <varray name="basis" >
     <v>      10.28348048       0.00000000       0.00000000 </v>
     <v>      -0.11778305       9.84371039       0.00000000 </v>
     <v>      -0.00543416       0.28106836      10.06567573 </v>
    </varray>
    <i name="volume">   1018.92423372 </i>
    <varray name="rec_basis" >
     <v>       0.09724334       0.00116355       0.00002001 </v>
     <v>       0.00000000       0.10158771      -0.00283668 </v>
     <v>       0.00000000      -0.00000000       0.09934753 </v>
    </varray>
   </crystal>
   <varray name="positions" >
    <v>       0.53752082       0.40764173       0.36140733 </v>
    <v>       0.39615631       0.48087472       0.43852271 </v>
    <v>       0.55631724       0.57019673       0.44352242 </v>
    <v>       0.52738339       0.41662383       0.54065527 </v>
    <v>       0.50269061       0.46708281       0.44532671 </v>
   </varray>
  </structure>
  <varray name="forces" >
   <v>      -0.13891050       0.49827403      -0.00178846 </v>
   <v>       0.64575795      -0.14139107       0.06765864 </v>
   <v>      -0.96073203      -0.88382270      -0.24115897 </v>
   <v>      -0.17909277      -0.27441968      -0.10872795 </v>
   <v>       0.33254842       2.01829219      -0.58256655 </v>
  </varray>
  <varray name="stress" >
   <v>      -4.10962892      -1.35744523      -0.11582988 </v>
   <v>      -1.35744523      -3.66979017      -0.95835645 </v>
   <v>      -0.11582987      -0.95835644      -1.55573030 </v>
  </varray>
  <energy>
   <i name="e_fr_energy">    -24.00602843 </i>
   <i name="e_wo_entrp">    -24.01104431 </i>
   <i name="e_0_energy">      0.01504763 </i>
   <i name="kinetic">      0.04525345 </i>
   <i name="lattice kinetic">      0.00000000 </i>
   <i name="nosepot">      0.00018430 </i>
   <i name="nosekinetic">      0.00014163 </i>
   <i name="total">    -23.96044906 </i>
  </energy>
  <dos>
   <i name="efermi">     -8.85312899 </i>
   <total>
    <array>
     <dimension dim="1">gridpoints</dimension>
     <dimension dim="2">spin</dimension>
     <field>energy</field>
     <field>total</field>
     <field>integrated</field>
     <set>
      <set comment="spin 1">
       <r>   -18.7684     0.0000     0.0000 </r>
       <r>   -18.6968     0.0000     0.0000 </r>
       <r>   -18.6252     0.0000     0.0000 </r>
       <r>   -18.5536     0.0000     0.0000 </r>
       <r>   -18.4820     0.0000     0.0000 </r>
       <r>   -18.4104    -0.0000    -0.0000 </r>
       <r>   -18.3389    -0.0000    -0.0000 </r>
       <r>   -18.2673    -0.0000    -0.0000 </r>
       <r>   -18.1957    -0.0000    -0.0000 </r>
       <r>   -18.1241    -0.0000    -0.0000 </r>
       <r>   -18.0525    -0.0000    -0.0000 </r>
       <r>   -17.9809    -0.0000    -0.0000 </r>
       <r>   -17.9093    -0.0000    -0.0000 </r>
       <r>   -17.8377    -0.0000    -0.0000 </r>
       <r>   -17.7662    -0.0000    -0.0000 </r>
       <r>   -17.6946    -0.0000    -0.0000 </r>
       <r>   -17.6230    -0.0000    -0.0000 </r>
       <r>   -17.5514    -0.0000    -0.0000 </r>
       <r>   -17.4798    -0.0001    -0.0000 </r>
       <r>   -17.4082    -0.0007    -0.0001 </r>
       <r>   -17.3366    -0.0053    -0.0004 </r>
       <r>   -17.2651    -0.0287    -0.0025 </r>
       <r>   -17.1935    -0.1110    -0.0104 </r>
       <r>   -17.1219    -0.2930    -0.0314 </r>
       <r>   -17.0503    -0.4388    -0.0628 </r>
       <r>   -16.9787     0.0478    -0.0594 </r>
       <r>   -16.9071     2.0112     0.0846 </r>
       <r>   -16.8355     5.3202     0.4654 </r>
       <r>   -16.7639     7.9876     1.0372 </r>
       <r>   -16.6924     7.7844     1.5945 </r>
       <r>   -16.6208     4.8935     1.9448 </r>
       <r>   -16.5492     1.6769     2.0649 </r>
       <r>   -16.4776    -0.0774     2.0593 </r>
       <r>   -16.4060    -0.4378     2.0280 </r>
       <r>   -16.3344    -0.2664     2.0089 </r>
       <r>   -16.2628    -0.0957     2.0020 </r>
       <r>   -16.1912    -0.0237     2.0003 </r>
       <r>   -16.1197    -0.0043     2.0000 </r>
       <r>   -16.0481    -0.0006     2.0000 </r>
       <r>   -15.9765    -0.0001     2.0000 </r>
       <r>   -15.9049    -0.0000     2.0000 </r>
       <r>   -15.8333    -0.0000     2.0000 </r>
       <r>   -15.7617    -0.0000     2.0000 </r>
       <r>   -15.6901    -0.0000     2.0000 </r>
       <r>   -15.6186    -0.0000     2.0000 </r>
       <r>   -15.5470    -0.0000     2.0000 </r>
       <r>   -15.4754     0.0000     2.0000 </r>
       <r>   -15.4038     0.0000     2.0000 </r>
       <r>   -15.3322     0.0000     2.0000 </r>
       <r>   -15.2606     0.0000     2.0000 </r>
       <r>   -15.1890     0.0000     2.0000 </r>
       <r>   -15.1174     0.0000     2.0000 </r>
       <r>   -15.0459     0.0000     2.0000 </r>
       <r>   -14.9743     0.0000     2.0000 </r>
       <r>   -14.9027     0.0000     2.0000 </r>
       <r>   -14.8311     0.0000     2.0000 </r>
       <r>   -14.7595     0.0000     2.0000 </r>
       <r>   -14.6879     0.0000     2.0000 </r>
       <r>   -14.6163     0.0000     2.0000 </r>
       <r>   -14.5447     0.0000     2.0000 </r>
       <r>   -14.4732     0.0000     2.0000 </r>
       <r>   -14.4016     0.0000     2.0000 </r>
       <r>   -14.3300     0.0000     2.0000 </r>
       <r>   -14.2584     0.0000     2.0000 </r>
       <r>   -14.1868     0.0000     2.0000 </r>
       <r>   -14.1152     0.0000     2.0000 </r>
       <r>   -14.0436     0.0000     2.0000 </r>
       <r>   -13.9721     0.0000     2.0000 </r>
       <r>   -13.9005     0.0000     2.0000 </r>
       <r>   -13.8289     0.0000     2.0000 </r>
       <r>   -13.7573     0.0000     2.0000 </r>
       <r>   -13.6857     0.0000     2.0000 </r>
       <r>   -13.6141     0.0000     2.0000 </r>
       <r>   -13.5425     0.0000     2.0000 </r>
       <r>   -13.4709     0.0000     2.0000 </r>
       <r>   -13.3994     0.0000     2.0000 </r>
       <r>   -13.3278     0.0000     2.0000 </r>
       <r>   -13.2562     0.0000     2.0000 </r>
       <r>   -13.1846     0.0000     2.0000 </r>
       <r>   -13.1130     0.0000     2.0000 </r>
       <r>   -13.0414     0.0000     2.0000 </r>
       <r>   -12.9698     0.0000     2.0000 </r>
       <r>   -12.8982     0.0000     2.0000 </r>
       <r>   -12.8267     0.0000     2.0000 </r>
       <r>   -12.7551     0.0000     2.0000 </r>
       <r>   -12.6835     0.0000     2.0000 </r>
       <r>   -12.6119     0.0000     2.0000 </r>
       <r>   -12.5403     0.0000     2.0000 </r>
       <r>   -12.4687     0.0000     2.0000 </r>
       <r>   -12.3971     0.0000     2.0000 </r>
       <r>   -12.3255     0.0000     2.0000 </r>
       <r>   -12.2540     0.0000     2.0000 </r>
       <r>   -12.1824     0.0000     2.0000 </r>
       <r>   -12.1108     0.0000     2.0000 </r>
       <r>   -12.0392     0.0000     2.0000 </r>
       <r>   -11.9676     0.0000     2.0000 </r>
       <r>   -11.8960     0.0000     2.0000 </r>
       <r>   -11.8244     0.0000     2.0000 </r>
       <r>   -11.7529     0.0000     2.0000 </r>
       <r>   -11.6813     0.0000     2.0000 </r>
       <r>   -11.6097     0.0000     2.0000 </r>
       <r>   -11.5381     0.0000     2.0000 </r>
       <r>   -11.4665     0.0000     2.0000 </r>
       <r>   -11.3949     0.0000     2.0000 </r>
       <r>   -11.3233     0.0000     2.0000 </r>
       <r>   -11.2517     0.0000     2.0000 </r>
       <r>   -11.1802     0.0000     2.0000 </r>
       <r>   -11.1086     0.0000     2.0000 </r>
       <r>   -11.0370     0.0000     2.0000 </r>
       <r>   -10.9654    -0.0000     2.0000 </r>
       <r>   -10.8938    -0.0000     2.0000 </r>
       <r>   -10.8222    -0.0000     2.0000 </r>
       <r>   -10.7506    -0.0000     2.0000 </r>
       <r>   -10.6790    -0.0000     2.0000 </r>
       <r>   -10.6075    -0.0000     2.0000 </r>
       <r>   -10.5359    -0.0000     2.0000 </r>
       <r>   -10.4643    -0.0000     2.0000 </r>
       <r>   -10.3927    -0.0000     2.0000 </r>
       <r>   -10.3211    -0.0000     2.0000 </r>
       <r>   -10.2495    -0.0000     2.0000 </r>
       <r>   -10.1779    -0.0000     2.0000 </r>
       <r>   -10.1064    -0.0000     2.0000 </r>
       <r>   -10.0348    -0.0002     2.0000 </r>
       <r>    -9.9632    -0.0017     1.9999 </r>
       <r>    -9.8916    -0.0118     1.9990 </r>
       <r>    -9.8200    -0.0605     1.9947 </r>
       <r>    -9.7484    -0.2249     1.9786 </r>
       <r>    -9.6768    -0.5712     1.9377 </r>
       <r>    -9.6052    -0.8157     1.8793 </r>
       <r>    -9.5337     0.1711     1.8916 </r>
       <r>    -9.4621     3.9102     2.1715 </r>
       <r>    -9.3905    10.0822     2.8932 </r>
       <r>    -9.3189    15.0778     3.9726 </r>
       <r>    -9.2473    15.1569     5.0576 </r>
       <r>    -9.1757    11.3028     5.8668 </r>
       <r>    -9.1041     8.0939     6.4462 </r>
       <r>    -9.0325     7.5571     6.9872 </r>
       <r>    -8.9610     7.3605     7.5141 </r>
       <r>    -8.8894     5.2936     7.8931 </r>
       <r>    -8.8178     2.2536     8.0544 </r>
       <r>    -8.7462     0.1834     8.0675 </r>
       <r>    -8.6746    -0.4378     8.0362 </r>
       <r>    -8.6030    -0.3282     8.0127 </r>
       <r>    -8.5314    -0.1328     8.0032 </r>
       <r>    -8.4599    -0.0362     8.0006 </r>
       <r>    -8.3883    -0.0071     8.0001 </r>
       <r>    -8.3167    -0.0010     8.0000 </r>
       <r>    -8.2451    -0.0001     8.0000 </r>
       <r>    -8.1735    -0.0000     8.0000 </r>
       <r>    -8.1019    -0.0000     8.0000 </r>
       <r>    -8.0303    -0.0000     8.0000 </r>
       <r>    -7.9587    -0.0000     8.0000 </r>
       <r>    -7.8872    -0.0000     8.0000 </r>
       <r>    -7.8156    -0.0000     8.0000 </r>
       <r>    -7.7440    -0.0000     8.0000 </r>
       <r>    -7.6724     0.0000     8.0000 </r>
       <r>    -7.6008     0.0000     8.0000 </r>
       <r>    -7.5292     0.0000     8.0000 </r>
       <r>    -7.4576     0.0000     8.0000 </r>
       <r>    -7.3860     0.0000     8.0000 </r>
       <r>    -7.3145     0.0000     8.0000 </r>
       <r>    -7.2429     0.0000     8.0000 </r>
       <r>    -7.1713     0.0000     8.0000 </r>
       <r>    -7.0997     0.0000     8.0000 </r>
       <r>    -7.0281     0.0000     8.0000 </r>
       <r>    -6.9565     0.0000     8.0000 </r>
       <r>    -6.8849     0.0000     8.0000 </r>
       <r>    -6.8134     0.0000     8.0000 </r>
       <r>    -6.7418     0.0000     8.0000 </r>
       <r>    -6.6702     0.0000     8.0000 </r>
       <r>    -6.5986     0.0000     8.0000 </r>
       <r>    -6.5270     0.0000     8.0000 </r>
       <r>    -6.4554     0.0000     8.0000 </r>
       <r>    -6.3838     0.0000     8.0000 </r>
       <r>    -6.3122     0.0000     8.0000 </r>
       <r>    -6.2407     0.0000     8.0000 </r>
       <r>    -6.1691     0.0000     8.0000 </r>
       <r>    -6.0975     0.0000     8.0000 </r>
       <r>    -6.0259     0.0000     8.0000 </r>
       <r>    -5.9543     0.0000     8.0000 </r>
       <r>    -5.8827     0.0000     8.0000 </r>
       <r>    -5.8111     0.0000     8.0000 </r>
       <r>    -5.7395     0.0000     8.0000 </r>
       <r>    -5.6680     0.0000     8.0000 </r>
       <r>    -5.5964     0.0000     8.0000 </r>
       <r>    -5.5248     0.0000     8.0000 </r>
       <r>    -5.4532     0.0000     8.0000 </r>
       <r>    -5.3816     0.0000     8.0000 </r>
       <r>    -5.3100     0.0000     8.0000 </r>
       <r>    -5.2384     0.0000     8.0000 </r>
       <r>    -5.1669     0.0000     8.0000 </r>
       <r>    -5.0953     0.0000     8.0000 </r>
       <r>    -5.0237     0.0000     8.0000 </r>
       <r>    -4.9521     0.0000     8.0000 </r>
       <r>    -4.8805     0.0000     8.0000 </r>
       <r>    -4.8089     0.0000     8.0000 </r>
       <r>    -4.7373     0.0000     8.0000 </r>
       <r>    -4.6657     0.0000     8.0000 </r>
       <r>    -4.5942     0.0000     8.0000 </r>
       <r>    -4.5226     0.0000     8.0000 </r>
       <r>    -4.4510     0.0000     8.0000 </r>
       <r>    -4.3794     0.0000     8.0000 </r>
       <r>    -4.3078     0.0000     8.0000 </r>
       <r>    -4.2362     0.0000     8.0000 </r>
       <r>    -4.1646     0.0000     8.0000 </r>
       <r>    -4.0930     0.0000     8.0000 </r>
       <r>    -4.0215     0.0000     8.0000 </r>
       <r>    -3.9499     0.0000     8.0000 </r>
       <r>    -3.8783     0.0000     8.0000 </r>
       <r>    -3.8067     0.0000     8.0000 </r>
       <r>    -3.7351     0.0000     8.0000 </r>
       <r>    -3.6635     0.0000     8.0000 </r>
       <r>    -3.5919     0.0000     8.0000 </r>
       <r>    -3.5203     0.0000     8.0000 </r>
       <r>    -3.4488     0.0000     8.0000 </r>
       <r>    -3.3772     0.0000     8.0000 </r>
       <r>    -3.3056     0.0000     8.0000 </r>
       <r>    -3.2340     0.0000     8.0000 </r>
       <r>    -3.1624     0.0000     8.0000 </r>
       <r>    -3.0908     0.0000     8.0000 </r>
       <r>    -3.0192     0.0000     8.0000 </r>
       <r>    -2.9477     0.0000     8.0000 </r>
       <r>    -2.8761     0.0000     8.0000 </r>
       <r>    -2.8045     0.0000     8.0000 </r>
       <r>    -2.7329     0.0000     8.0000 </r>
       <r>    -2.6613     0.0000     8.0000 </r>
       <r>    -2.5897     0.0000     8.0000 </r>
       <r>    -2.5181     0.0000     8.0000 </r>
       <r>    -2.4465     0.0000     8.0000 </r>
       <r>    -2.3750     0.0000     8.0000 </r>
       <r>    -2.3034     0.0000     8.0000 </r>
       <r>    -2.2318     0.0000     8.0000 </r>
       <r>    -2.1602     0.0000     8.0000 </r>
       <r>    -2.0886     0.0000     8.0000 </r>
       <r>    -2.0170    -0.0000     8.0000 </r>
       <r>    -1.9454    -0.0000     8.0000 </r>
       <r>    -1.8738    -0.0000     8.0000 </r>
       <r>    -1.8023    -0.0000     8.0000 </r>
       <r>    -1.7307    -0.0000     8.0000 </r>
       <r>    -1.6591    -0.0000     8.0000 </r>
       <r>    -1.5875    -0.0000     8.0000 </r>
       <r>    -1.5159    -0.0000     8.0000 </r>
       <r>    -1.4443    -0.0000     8.0000 </r>
       <r>    -1.3727    -0.0000     8.0000 </r>
       <r>    -1.3012    -0.0000     8.0000 </r>
       <r>    -1.2296    -0.0000     8.0000 </r>
       <r>    -1.1580    -0.0000     8.0000 </r>
       <r>    -1.0864    -0.0000     8.0000 </r>
       <r>    -1.0148    -0.0003     8.0000 </r>
       <r>    -0.9432    -0.0023     7.9998 </r>
       <r>    -0.8716    -0.0142     7.9988 </r>
       <r>    -0.8000    -0.0638     7.9942 </r>
       <r>    -0.7285    -0.2015     7.9798 </r>
       <r>    -0.6569    -0.4041     7.9509 </r>
       <r>    -0.5853    -0.3025     7.9292 </r>
       <r>    -0.5137     0.9311     7.9959 </r>
       <r>    -0.4421     3.7835     8.2667 </r>
       <r>    -0.3705     7.0617     8.7723 </r>
       <r>    -0.2989     8.2864     9.3655 </r>
       <r>    -0.2273     6.3682     9.8213 </r>
       <r>    -0.1558     2.9798    10.0347 </r>
       <r>    -0.0842     0.4847    10.0694 </r>
       <r>    -0.0126    -0.4031    10.0405 </r>
       <r>     0.0590    -0.4051    10.0115 </r>
       <r>     0.1306    -0.3265     9.9881 </r>
       <r>     0.2022    -0.4945     9.9527 </r>
       <r>     0.2738    -0.7641     9.8980 </r>
       <r>     0.3453    -0.3687     9.8716 </r>
       <r>     0.4169     2.0454    10.0181 </r>
       <r>     0.4885     7.4004    10.5478 </r>
       <r>     0.5601    14.5896    11.5923 </r>
       <r>     0.6317    20.1220    13.0327 </r>
       <r>     0.7033    20.3286    14.4880 </r>
       <r>     0.7749    14.7765    15.5458 </r>
       <r>     0.8465     7.0674    16.0517 </r>
       <r>     0.9180     1.4463    16.1553 </r>
       <r>     0.9896    -0.7497    16.1016 </r>
       <r>     1.0612    -0.8390    16.0415 </r>
       <r>     1.1328    -0.4118    16.0120 </r>
       <r>     1.2044    -0.1322    16.0026 </r>
       <r>     1.2760    -0.0303    16.0004 </r>
       <r>     1.3476    -0.0051    16.0001 </r>
       <r>     1.4192    -0.0007    16.0000 </r>
       <r>     1.4907    -0.0001    16.0000 </r>
       <r>     1.5623    -0.0000    16.0000 </r>
       <r>     1.6339    -0.0000    16.0000 </r>
       <r>     1.7055    -0.0000    16.0000 </r>
       <r>     1.7771    -0.0000    16.0000 </r>
       <r>     1.8487    -0.0000    16.0000 </r>
       <r>     1.9203    -0.0000    16.0000 </r>
       <r>     1.9918    -0.0000    16.0000 </r>
       <r>     2.0634     0.0000    16.0000 </r>
       <r>     2.1350     0.0000    16.0000 </r>
       <r>     2.2066     0.0000    16.0000 </r>
       <r>     2.2782     0.0000    16.0000 </r>
       <r>     2.3498     0.0000    16.0000 </r>
       <r>     2.4214     0.0000    16.0000 </r>
       <r>     2.4930     0.0000    16.0000 </r>
       <r>     2.5645     0.0000    16.0000 </r>
       <r>     2.6361     0.0000    16.0000 </r>
       <r>     2.7077     0.0000    16.0000 </r>
      </set>
     </set>
    </array>
   </total>
  </dos>
  <time name="totalsc">   73.79   73.98</time>
 </calculation>
 <calculation>
  <scstep>
   <time name="dav">    1.74    1.74</time>
   <time name="total">    3.26    3.27</time>
   <energy>
    <i name="alphaZ">      0.23775153 </i>
    <i name="ewald">    128.23456384 </i>
    <i name="hartreedc">   -282.94124456 </i>
    <i name="XCdc">     24.61535609 </i>
    <i name="pawpsdc">    403.40365912 </i>
    <i name="pawaedc">   -404.17486738 </i>
    <i name="eentropy">      0.01182687 </i>
    <i name="bandstr">    -90.42501542 </i>
    <i name="atom">    197.04175453 </i>
    <i name="e_fr_energy">    -23.99621538 </i>
    <i name="e_wo_entrp">    -24.00804225 </i>
    <i name="e_0_energy">    -24.00015767 </i>
   </energy>
  </scstep>
  <scstep>
   <time name="diag">    0.26    0.26</time>
   <time name="diis">    1.24    1.24</time>
   <time name="orth">    0.01    0.01</time>
   <time name="total">    3.03    3.04</time>
   <energy>
    <i name="e_fr_energy">    -24.14307366 </i>
    <i name="e_wo_entrp">    -24.15996354 </i>
    <i name="e_0_energy">    -24.14870362 </i>
   </energy>
  </scstep>
  <scstep>
   <time name="diag">    0.30    0.30</time>
   <time name="diis">    1.15    1.15</time>
   <time name="orth">    0.01    0.01</time>
   <time name="total">    2.94    2.95</time>
   <energy>
    <i name="e_fr_energy">    -24.10407106 </i>
    <i name="e_wo_entrp">    -24.11566687 </i>
    <i name="e_0_energy">    -24.10793633 </i>
   </energy>
  </scstep>
  <scstep>
   <time name="diag">    0.28    0.28</time>
   <time name="diis">    1.13    1.13</time>
   <time name="orth">    0.01    0.01</time>
   <time name="total">    3.13    3.14</time>
   <energy>
    <i name="e_fr_energy">    -23.99800111 </i>
    <i name="e_wo_entrp">    -24.01297874 </i>
    <i name="e_0_energy">    -24.00299365 </i>
   </energy>
  </scstep>
  <scstep>
   <time name="diag">    0.36    0.36</time>
   <time name="diis">    1.37    1.38</time>
   <time name="orth">    0.01    0.01</time>
   <time name="total">    3.45    3.46</time>
   <energy>
    <i name="e_fr_energy">    -23.99497626 </i>
    <i name="e_wo_entrp">    -24.00658325 </i>
    <i name="e_0_energy">    -23.99884526 </i>
   </energy>
  </scstep>
  <scstep>
   <time name="diag">    0.41    0.41</time>
   <time name="diis">    1.17    1.17</time>
   <time name="orth">    0.01    0.01</time>
   <time name="total">    3.20    3.20</time>
   <energy>
    <i name="e_fr_energy">    -23.99252700 </i>
    <i name="e_wo_entrp">    -24.00425119 </i>
    <i name="e_0_energy">    -23.99643506 </i>
   </energy>
  </scstep>
  <scstep>
   <time name="diag">    0.29    0.30</time>
   <time name="diis">    1.27    1.28</time>
   <time name="orth">    0.01    0.01</time>
   <time name="total">    3.20    3.20</time>
   <energy>
    <i name="e_fr_energy">    -23.99268517 </i>
    <i name="e_wo_entrp">    -24.00434815 </i>
    <i name="e_0_energy">    -23.99657283 </i>
   </energy>
  </scstep>
  <scstep>
   <time name="diag">    0.27    0.27</time>
   <time name="diis">    1.15    1.15</time>
   <time name="orth">    0.01    0.01</time>
   <time name="total">    3.05    3.06</time>
   <energy>
    <i name="e_fr_energy">    -23.99230747 </i>
    <i name="e_wo_entrp">    -24.00405352 </i>
    <i name="e_0_energy">    -23.99622282 </i>
   </energy>
  </scstep>
  <scstep>
   <time name="diag">    0.28    0.28</time>
   <time name="diis">    1.13    1.13</time>
   <time name="orth">    0.01    0.01</time>
   <time name="total">    3.02    3.03</time>
   <energy>
    <i name="e_fr_energy">    -23.99231012 </i>
    <i name="e_wo_entrp">    -24.00399388 </i>
    <i name="e_0_energy">    -23.99620471 </i>
   </energy>
  </scstep>
  <scstep>
   <time name="diag">    0.28    0.28</time>
   <time name="diis">    1.14    1.14</time>
   <time name="orth">    0.01    0.01</time>
   <time name="total">    3.11    3.11</time>
   <energy>
    <i name="e_fr_energy">    -23.99216801 </i>
    <i name="e_wo_entrp">    -24.00397162 </i>
    <i name="e_0_energy">    -23.99610255 </i>
   </energy>
  </scstep>
  <scstep>
   <time name="diag">    0.39    0.39</time>
   <time name="diis">    1.14    1.14</time>
   <time name="orth">    0.01    0.01</time>
   <time name="total">    3.13    3.13</time>
   <energy>
    <i name="e_fr_energy">    -23.99221012 </i>
    <i name="e_wo_entrp">    -24.00403474 </i>
    <i name="e_0_energy">    -23.99615166 </i>
   </energy>
  </scstep>
  <scstep>
   <time name="diag">    0.27    0.27</time>
   <time name="diis">    1.23    1.23</time>
   <time name="orth">    0.01    0.01</time>
   <time name="total">    3.08    3.08</time>
   <energy>
    <i name="e_fr_energy">    -23.99213021 </i>
    <i name="e_wo_entrp">    -24.00391318 </i>
    <i name="e_0_energy">    -23.99605786 </i>
   </energy>
  </scstep>
  <scstep>
   <time name="diag">    0.27    0.27</time>
   <time name="diis">    1.13    1.13</time>
   <time name="orth">    0.01    0.01</time>
   <time name="total">    3.09    3.09</time>
   <energy>
    <i name="e_fr_energy">    -23.99212742 </i>
    <i name="e_wo_entrp">    -24.00388851 </i>
    <i name="e_0_energy">    -23.99604779 </i>
   </energy>
  </scstep>
  <scstep>
   <time name="diag">    0.28    0.28</time>
   <time name="diis">    0.94    0.95</time>
   <time name="orth">    0.01    0.01</time>
   <time name="total">    2.83    2.84</time>
   <energy>
    <i name="e_fr_energy">    -23.99213229 </i>
    <i name="e_wo_entrp">    -24.00389864 </i>
    <i name="e_0_energy">    -23.99605440 </i>
   </energy>
  </scstep>
  <scstep>
   <time name="diag">    0.29    0.29</time>
   <time name="diis">    1.10    1.10</time>
   <time name="orth">    0.01    0.01</time>
   <time name="total">    3.11    3.12</time>
   <energy>
    <i name="e_fr_energy">    -23.99213657 </i>
    <i name="e_wo_entrp">    -24.00390642 </i>
    <i name="e_0_energy">    -23.99605986 </i>
   </energy>
  </scstep>
  <scstep>
   <time name="diag">    0.44    0.44</time>
   <time name="diis">    0.99    0.99</time>
   <time name="orth">    0.01    0.01</time>
   <time name="total">    2.91    2.91</time>
   <energy>
    <i name="alphaZ">      0.23775153 </i>
    <i name="ewald">    128.23456384 </i>
    <i name="hartreedc">   -284.08445978 </i>
    <i name="XCdc">     24.68066798 </i>
    <i name="pawpsdc">    424.72733374 </i>
    <i name="pawaedc">   -425.51368231 </i>
    <i name="eentropy">      0.01177217 </i>
    <i name="bandstr">    -89.32783904 </i>
    <i name="atom">    197.04175453 </i>
    <i name="e_fr_energy">    -23.99213734 </i>
    <i name="e_wo_entrp">    -24.00390951 </i>
    <i name="e_0_energy">    -23.99606139 </i>
   </energy>
  </scstep>
  <structure>
   <crystal>
    <varray name="basis" >
     <v>      10.28348048       0.00000000       0.00000000 </v>
     <v>      -0.11778305       9.84371039       0.00000000 </v>
     <v>      -0.00543416       0.28106836      10.06567573 </v>
    </varray>
    <i name="volume">   1018.92423372 </i>
    <varray name="rec_basis" >
     <v>       0.09724334       0.00116355       0.00002001 </v>
     <v>       0.00000000       0.10158771      -0.00283668 </v>
     <v>       0.00000000      -0.00000000       0.09934753 </v>
    </varray>
   </crystal>
   <varray name="positions" >
    <v>       0.53660257       0.41042332       0.36244271 </v>
    <v>       0.40021681       0.48023493       0.43892529 </v>
    <v>       0.55702753       0.57121236       0.44365458 </v>
    <v>       0.52595551       0.41483210       0.54153966 </v>
    <v>       0.50248874       0.46696911       0.44512235 </v>
   </varray>
  </structure>
  <varray name="forces" >
   <v>       0.15754506      -0.48257676      -0.76936471 </v>
   <v>      -0.32858918      -0.22702161      -0.14870562 </v>
   <v>      -1.20682846      -1.44249608      -0.19276387 </v>
   <v>      -0.03335021      -0.21929908      -0.27846682 </v>
   <v>       1.79985423       2.50967658       0.64595685 </v>
  </varray>
  <varray name="stress" >
   <v>      -1.86039213      -2.09818908      -0.11215583 </v>
   <v>      -2.09818907      -2.96686959       0.17053910 </v>
   <v>      -0.11215583       0.17053911      -1.07810803 </v>
  </varray>
  <energy>
   <i name="e_fr_energy">    -23.99213734 </i>
   <i name="e_wo_entrp">    -23.99606139 </i>
   <i name="e_0_energy">      0.01177217 </i>
   <i name="kinetic">      0.04036628 </i>
   <i name="lattice kinetic">      0.00000000 </i>
   <i name="nosepot">      0.00084621 </i>
   <i name="nosekinetic">      0.00055789 </i>
   <i name="total">    -23.95036695 </i>
  </energy>
  <dos>
   <i name="efermi">     -8.77962368 </i>
   <total>
    <array>
     <dimension dim="1">gridpoints</dimension>
     <dimension dim="2">spin</dimension>
     <field>energy</field>
     <field>total</field>
     <field>integrated</field>
     <set>
      <set comment="spin 1">
       <r>   -18.8686     0.0000     0.0000 </r>
       <r>   -18.7967     0.0000     0.0000 </r>
       <r>   -18.7247     0.0000     0.0000 </r>
       <r>   -18.6528     0.0000     0.0000 </r>
       <r>   -18.5809     0.0000     0.0000 </r>
       <r>   -18.5090    -0.0000    -0.0000 </r>
       <r>   -18.4370    -0.0000    -0.0000 </r>
[...]
       <r>     0.2696    -0.7291     9.9104 </r>
       <r>     0.3416    -0.5886     9.8680 </r>
       <r>     0.4136     1.2835     9.9604 </r>
       <r>     0.4855     6.0894    10.3987 </r>
       <r>     0.5575    13.2424    11.3517 </r>
       <r>     0.6295    19.5176    12.7564 </r>
       <r>     0.7014    20.8612    14.2577 </r>
       <r>     0.7734    16.0502    15.4128 </r>
       <r>     0.8454     8.2625    16.0075 </r>
       <r>     0.9173     2.0701    16.1565 </r>
       <r>     0.9893    -0.6145    16.1123 </r>
       <r>     1.0613    -0.8908    16.0481 </r>
       <r>     1.1332    -0.4680    16.0145 </r>
       <r>     1.2052    -0.1566    16.0032 </r>
       <r>     1.2772    -0.0370    16.0005 </r>
       <r>     1.3492    -0.0064    16.0001 </r>
       <r>     1.4211    -0.0008    16.0000 </r>
       <r>     1.4931    -0.0001    16.0000 </r>
       <r>     1.5651    -0.0000    16.0000 </r>
       <r>     1.6370    -0.0000    16.0000 </r>
       <r>     1.7090    -0.0000    16.0000 </r>
       <r>     1.7810    -0.0000    16.0000 </r>
       <r>     1.8529    -0.0000    16.0000 </r>
       <r>     1.9249    -0.0000    16.0000 </r>
       <r>     1.9969    -0.0000    16.0000 </r>
       <r>     2.0688     0.0000    16.0000 </r>
       <r>     2.1408     0.0000    16.0000 </r>
       <r>     2.2128     0.0000    16.0000 </r>
       <r>     2.2848     0.0000    16.0000 </r>
       <r>     2.3567     0.0000    16.0000 </r>
       <r>     2.4287     0.0000    16.0000 </r>
       <r>     2.5007     0.0000    16.0000 </r>
       <r>     2.5726     0.0000    16.0000 </r>
       <r>     2.6446     0.0000    16.0000 </r>
       <r>     2.7166     0.0000    16.0000 </r>
      </set>
     </set>
    </array>
   </total>
  </dos>
  <time name="totalsc">   62.63   62.79</time>
  <eigenvalues>
   <array>
    <dimension dim="1">band</dimension>
    <dimension dim="2">kpoint</dimension>
    <dimension dim="3">spin</dimension>
    <field>eigene</field>
    <field>occ</field>
    <set>
     <set comment="spin 1">
      <set comment="kpoint 1">
       <r>  -16.8244    1.0000 </r>
       <r>   -9.5205    1.0000 </r>
       <r>   -9.2724    1.0026 </r>
       <r>   -8.9767    0.9974 </r>
       <r>   -0.3423    0.0000 </r>
       <r>    0.5459    0.0000 </r>
       <r>    0.6595    0.0000 </r>
       <r>    0.7063    0.0000 </r>
      </set>
      <set comment="kpoint 2">
       <r>  -16.8244    1.0000 </r>
       <r>   -9.5203    1.0000 </r>
       <r>   -9.2723    1.0026 </r>
       <r>   -8.9766    0.9973 </r>
       <r>   -0.3450    0.0000 </r>
       <r>    0.5509    0.0000 </r>
       <r>    0.6649    0.0000 </r>
       <r>    0.7103    0.0000 </r>
      </set>
      <set comment="kpoint 3">
       <r>  -16.8244    1.0000 </r>
       <r>   -9.5204    1.0000 </r>
       <r>   -9.2723    1.0026 </r>
       <r>   -8.9766    0.9974 </r>
       <r>   -0.3383    0.0000 </r>
       <r>    0.5273    0.0000 </r>
       <r>    0.6603    0.0000 </r>
       <r>    0.6962    0.0000 </r>
      </set>
      <set comment="kpoint 4">
       <r>  -16.8244    1.0000 </r>
       <r>   -9.5205    1.0000 </r>
       <r>   -9.2724    1.0026 </r>
       <r>   -8.9767    0.9975 </r>
       <r>   -0.3368    0.0000 </r>
       <r>    0.5401    0.0000 </r>
       <r>    0.6444    0.0000 </r>
       <r>    0.6889    0.0000 </r>
      </set>
     </set>
    </set>
   </array>
  </eigenvalues>
  <separator name="orbital magnetization" >
   <v name="MAGDIPOLOUT">      0.00000000      0.00000000      0.00000000</v>
  </separator>
  <dos>
   <i name="efermi">     -8.81059610 </i>
   <total>
    <array>
     <dimension dim="1">gridpoints</dimension>
     <dimension dim="2">spin</dimension>
     <field>energy</field>
     <field>total</field>
     <field>integrated</field>
     <set>
      <set comment="spin 1">
       <r>   -18.8244     0.0000     0.0000 </r>
       <r>   -18.7526     0.0000     0.0000 </r>
       <r>   -18.6808     0.0000     0.0000 </r>
       <r>   -18.6090     0.0000     0.0000 </r>
       <r>   -18.5373     0.0000     0.0000 </r>
       <r>   -18.4655    -0.0000    -0.0000 </r>
       <r>   -18.3937    -0.0000    -0.0000 </r>
       <r>   -18.3219    -0.0000    -0.0000 </r>
       <r>   -18.2501    -0.0000    -0.0000 </r>
       <r>   -18.1783    -0.0000    -0.0000 </r>
       <r>   -18.1066    -0.0000    -0.0000 </r>
       <r>   -18.0348    -0.0000    -0.0000 </r>
       <r>   -17.9630    -0.0000    -0.0000 </r>
       <r>   -17.8912    -0.0000    -0.0000 </r>
       <r>   -17.8194    -0.0000    -0.0000 </r>
       <r>   -17.7476    -0.0000    -0.0000 </r>
       <r>   -17.6759    -0.0000    -0.0000 </r>
       <r>   -17.6041    -0.0000    -0.0000 </r>
       <r>   -17.5323    -0.0001    -0.0000 </r>
       <r>   -17.4605    -0.0008    -0.0001 </r>
       <r>   -17.3887    -0.0059    -0.0005 </r>
       <r>   -17.3170    -0.0312    -0.0027 </r>
       <r>   -17.2452    -0.1189    -0.0113 </r>
       <r>   -17.1734    -0.3064    -0.0333 </r>
       <r>   -17.1016    -0.4357    -0.0645 </r>
       <r>   -17.0298     0.1263    -0.0555 </r>
       <r>   -16.9580     2.2119     0.1033 </r>
       <r>   -16.8863     5.5679     0.5030 </r>
       <r>   -16.8145     8.0882     1.0836 </r>
       <r>   -16.7427     7.6318     1.6314 </r>
       <r>   -16.6709     4.6109     1.9624 </r>
       <r>   -16.5991     1.4644     2.0675 </r>
       <r>   -16.5273    -0.1516     2.0566 </r>
       <r>   -16.4556    -0.4322     2.0256 </r>
       <r>   -16.3838    -0.2470     2.0079 </r>
       <r>   -16.3120    -0.0852     2.0017 </r>
       <r>   -16.2402    -0.0203     2.0003 </r>
       <r>   -16.1684    -0.0035     2.0000 </r>
       <r>   -16.0967    -0.0005     2.0000 </r>
       <r>   -16.0249    -0.0000     2.0000 </r>
       <r>   -15.9531    -0.0000     2.0000 </r>
       <r>   -15.8813    -0.0000     2.0000 </r>
       <r>   -15.8095    -0.0000     2.0000 </r>
       <r>   -15.7377    -0.0000     2.0000 </r>
       <r>   -15.6660    -0.0000     2.0000 </r>
       <r>   -15.5942    -0.0000     2.0000 </r>
       <r>   -15.5224     0.0000     2.0000 </r>
       <r>   -15.4506     0.0000     2.0000 </r>
       <r>   -15.3788     0.0000     2.0000 </r>
       <r>   -15.3070     0.0000     2.0000 </r>
       <r>   -15.2353     0.0000     2.0000 </r>
       <r>   -15.1635     0.0000     2.0000 </r>
       <r>   -15.0917     0.0000     2.0000 </r>
       <r>   -15.0199     0.0000     2.0000 </r>
       <r>   -14.9481     0.0000     2.0000 </r>
       <r>   -14.8764     0.0000     2.0000 </r>
       <r>   -14.8046     0.0000     2.0000 </r>
       <r>   -14.7328     0.0000     2.0000 </r>
       <r>   -14.6610     0.0000     2.0000 </r>
       <r>   -14.5892     0.0000     2.0000 </r>
       <r>   -14.5174     0.0000     2.0000 </r>
       <r>   -14.4457     0.0000     2.0000 </r>
       <r>   -14.3739     0.0000     2.0000 </r>
       <r>   -14.3021     0.0000     2.0000 </r>
       <r>   -14.2303     0.0000     2.0000 </r>
       <r>   -14.1585     0.0000     2.0000 </r>
       <r>   -14.0867     0.0000     2.0000 </r>
       <r>   -14.0150     0.0000     2.0000 </r>
       <r>   -13.9432     0.0000     2.0000 </r>
       <r>   -13.8714     0.0000     2.0000 </r>
       <r>   -13.7996     0.0000     2.0000 </r>
       <r>   -13.7278     0.0000     2.0000 </r>
       <r>   -13.6561     0.0000     2.0000 </r>
       <r>   -13.5843     0.0000     2.0000 </r>
       <r>   -13.5125     0.0000     2.0000 </r>
       <r>   -13.4407     0.0000     2.0000 </r>
       <r>   -13.3689     0.0000     2.0000 </r>
       <r>   -13.2971     0.0000     2.0000 </r>
       <r>   -13.2254     0.0000     2.0000 </r>
       <r>   -13.1536     0.0000     2.0000 </r>
       <r>   -13.0818     0.0000     2.0000 </r>
       <r>   -13.0100     0.0000     2.0000 </r>
       <r>   -12.9382     0.0000     2.0000 </r>
       <r>   -12.8664     0.0000     2.0000 </r>
       <r>   -12.7947     0.0000     2.0000 </r>
       <r>   -12.7229     0.0000     2.0000 </r>
       <r>   -12.6511     0.0000     2.0000 </r>
       <r>   -12.5793     0.0000     2.0000 </r>
       <r>   -12.5075     0.0000     2.0000 </r>
       <r>   -12.4358     0.0000     2.0000 </r>
       <r>   -12.3640     0.0000     2.0000 </r>
       <r>   -12.2922     0.0000     2.0000 </r>
       <r>   -12.2204     0.0000     2.0000 </r>
       <r>   -12.1486     0.0000     2.0000 </r>
       <r>   -12.0768     0.0000     2.0000 </r>
       <r>   -12.0051     0.0000     2.0000 </r>
       <r>   -11.9333     0.0000     2.0000 </r>
       <r>   -11.8615     0.0000     2.0000 </r>
       <r>   -11.7897     0.0000     2.0000 </r>
       <r>   -11.7179     0.0000     2.0000 </r>
       <r>   -11.6461     0.0000     2.0000 </r>
       <r>   -11.5744     0.0000     2.0000 </r>
       <r>   -11.5026     0.0000     2.0000 </r>
       <r>   -11.4308     0.0000     2.0000 </r>
       <r>   -11.3590     0.0000     2.0000 </r>
       <r>   -11.2872     0.0000     2.0000 </r>
       <r>   -11.2155     0.0000     2.0000 </r>
       <r>   -11.1437    -0.0000     2.0000 </r>
       <r>   -11.0719    -0.0000     2.0000 </r>
       <r>   -11.0001    -0.0000     2.0000 </r>
       <r>   -10.9283    -0.0000     2.0000 </r>
       <r>   -10.8565    -0.0000     2.0000 </r>
       <r>   -10.7848    -0.0000     2.0000 </r>
       <r>   -10.7130    -0.0000     2.0000 </r>
       <r>   -10.6412    -0.0000     2.0000 </r>
       <r>   -10.5694    -0.0000     2.0000 </r>
       <r>   -10.4976    -0.0000     2.0000 </r>
       <r>   -10.4258    -0.0000     2.0000 </r>
       <r>   -10.3541    -0.0000     2.0000 </r>
       <r>   -10.2823    -0.0000     2.0000 </r>
       <r>   -10.2105    -0.0002     2.0000 </r>
       <r>   -10.1387    -0.0014     1.9999 </r>
       <r>   -10.0669    -0.0092     1.9992 </r>
       <r>    -9.9952    -0.0450     1.9960 </r>
       <r>    -9.9234    -0.1572     1.9847 </r>
       <r>    -9.8516    -0.3632     1.9586 </r>
       <r>    -9.7798    -0.4189     1.9286 </r>
       <r>    -9.7080     0.3895     1.9565 </r>
       <r>    -9.6362     2.7211     2.1519 </r>
       <r>    -9.5645     5.9412     2.5783 </r>
       <r>    -9.4927     8.1793     3.1655 </r>
       <r>    -9.4209     8.5966     3.7825 </r>
       <r>    -9.3491     8.3561     4.3824 </r>
       <r>    -9.2773     8.2381     4.9737 </r>
       <r>    -9.2055     7.4937     5.5116 </r>
       <r>    -9.1338     6.2728     5.9619 </r>
       <r>    -9.0620     6.2500     6.4106 </r>
       <r>    -8.9902     7.5081     6.9495 </r>
       <r>    -8.9184     7.6944     7.5018 </r>
       <r>    -8.8466     5.4464     7.8928 </r>
       <r>    -8.7749     2.2532     8.0545 </r>
       <r>    -8.7031     0.1626     8.0662 </r>
       <r>    -8.6313    -0.4366     8.0348 </r>
       <r>    -8.5595    -0.3181     8.0120 </r>
       <r>    -8.4877    -0.1261     8.0030 </r>
       <r>    -8.4159    -0.0337     8.0005 </r>
       <r>    -8.3442    -0.0065     8.0001 </r>
       <r>    -8.2724    -0.0009     8.0000 </r>
       <r>    -8.2006    -0.0001     8.0000 </r>
       <r>    -8.1288    -0.0000     8.0000 </r>
       <r>    -8.0570    -0.0000     8.0000 </r>
       <r>    -7.9852    -0.0000     8.0000 </r>
       <r>    -7.9135    -0.0000     8.0000 </r>
       <r>    -7.8417    -0.0000     8.0000 </r>
       <r>    -7.7699    -0.0000     8.0000 </r>
       <r>    -7.6981    -0.0000     8.0000 </r>
       <r>    -7.6263     0.0000     8.0000 </r>
       <r>    -7.5546     0.0000     8.0000 </r>
       <r>    -7.4828     0.0000     8.0000 </r>
       <r>    -7.4110     0.0000     8.0000 </r>
       <r>    -7.3392     0.0000     8.0000 </r>
       <r>    -7.2674     0.0000     8.0000 </r>
       <r>    -7.1956     0.0000     8.0000 </r>
       <r>    -7.1239     0.0000     8.0000 </r>
       <r>    -7.0521     0.0000     8.0000 </r>
       <r>    -6.9803     0.0000     8.0000 </r>
       <r>    -6.9085     0.0000     8.0000 </r>
       <r>    -6.8367     0.0000     8.0000 </r>
       <r>    -6.7649     0.0000     8.0000 </r>
       <r>    -6.6932     0.0000     8.0000 </r>
       <r>    -6.6214     0.0000     8.0000 </r>
       <r>    -6.5496     0.0000     8.0000 </r>
       <r>    -6.4778     0.0000     8.0000 </r>
       <r>    -6.4060     0.0000     8.0000 </r>
       <r>    -6.3343     0.0000     8.0000 </r>
       <r>    -6.2625     0.0000     8.0000 </r>
       <r>    -6.1907     0.0000     8.0000 </r>
       <r>    -6.1189     0.0000     8.0000 </r>
       <r>    -6.0471     0.0000     8.0000 </r>
       <r>    -5.9753     0.0000     8.0000 </r>
       <r>    -5.9036     0.0000     8.0000 </r>
       <r>    -5.8318     0.0000     8.0000 </r>
       <r>    -5.7600     0.0000     8.0000 </r>
       <r>    -5.6882     0.0000     8.0000 </r>
       <r>    -5.6164     0.0000     8.0000 </r>
       <r>    -5.5446     0.0000     8.0000 </r>
       <r>    -5.4729     0.0000     8.0000 </r>
       <r>    -5.4011     0.0000     8.0000 </r>
       <r>    -5.3293     0.0000     8.0000 </r>
       <r>    -5.2575     0.0000     8.0000 </r>
       <r>    -5.1857     0.0000     8.0000 </r>
       <r>    -5.1140     0.0000     8.0000 </r>
       <r>    -5.0422     0.0000     8.0000 </r>
       <r>    -4.9704     0.0000     8.0000 </r>
       <r>    -4.8986     0.0000     8.0000 </r>
       <r>    -4.8268     0.0000     8.0000 </r>
       <r>    -4.7550     0.0000     8.0000 </r>
       <r>    -4.6833     0.0000     8.0000 </r>
       <r>    -4.6115     0.0000     8.0000 </r>
       <r>    -4.5397     0.0000     8.0000 </r>
       <r>    -4.4679     0.0000     8.0000 </r>
       <r>    -4.3961     0.0000     8.0000 </r>
       <r>    -4.3243     0.0000     8.0000 </r>
       <r>    -4.2526     0.0000     8.0000 </r>
       <r>    -4.1808     0.0000     8.0000 </r>
       <r>    -4.1090     0.0000     8.0000 </r>
       <r>    -4.0372     0.0000     8.0000 </r>
       <r>    -3.9654     0.0000     8.0000 </r>
       <r>    -3.8937     0.0000     8.0000 </r>
       <r>    -3.8219     0.0000     8.0000 </r>
       <r>    -3.7501     0.0000     8.0000 </r>
       <r>    -3.6783     0.0000     8.0000 </r>
       <r>    -3.6065     0.0000     8.0000 </r>
       <r>    -3.5347     0.0000     8.0000 </r>
       <r>    -3.4630     0.0000     8.0000 </r>
       <r>    -3.3912     0.0000     8.0000 </r>
       <r>    -3.3194     0.0000     8.0000 </r>
       <r>    -3.2476     0.0000     8.0000 </r>
       <r>    -3.1758     0.0000     8.0000 </r>
       <r>    -3.1040     0.0000     8.0000 </r>
       <r>    -3.0323     0.0000     8.0000 </r>
       <r>    -2.9605     0.0000     8.0000 </r>
       <r>    -2.8887     0.0000     8.0000 </r>
       <r>    -2.8169     0.0000     8.0000 </r>
       <r>    -2.7451     0.0000     8.0000 </r>
       <r>    -2.6734     0.0000     8.0000 </r>
       <r>    -2.6016     0.0000     8.0000 </r>
       <r>    -2.5298     0.0000     8.0000 </r>
       <r>    -2.4580     0.0000     8.0000 </r>
       <r>    -2.3862     0.0000     8.0000 </r>
       <r>    -2.3144     0.0000     8.0000 </r>
       <r>    -2.2427     0.0000     8.0000 </r>
       <r>    -2.1709     0.0000     8.0000 </r>
       <r>    -2.0991     0.0000     8.0000 </r>
       <r>    -2.0273     0.0000     8.0000 </r>
       <r>    -1.9555    -0.0000     8.0000 </r>
       <r>    -1.8837    -0.0000     8.0000 </r>
       <r>    -1.8120    -0.0000     8.0000 </r>
       <r>    -1.7402    -0.0000     8.0000 </r>
       <r>    -1.6684    -0.0000     8.0000 </r>
       <r>    -1.5966    -0.0000     8.0000 </r>
       <r>    -1.5248    -0.0000     8.0000 </r>
       <r>    -1.4531    -0.0000     8.0000 </r>
       <r>    -1.3813    -0.0000     8.0000 </r>
       <r>    -1.3095    -0.0000     8.0000 </r>
       <r>    -1.2377    -0.0000     8.0000 </r>
       <r>    -1.1659    -0.0000     8.0000 </r>
       <r>    -1.0941    -0.0000     8.0000 </r>
       <r>    -1.0224    -0.0002     8.0000 </r>
       <r>    -0.9506    -0.0017     7.9999 </r>
       <r>    -0.8788    -0.0112     7.9991 </r>
       <r>    -0.8070    -0.0530     7.9952 </r>
       <r>    -0.7352    -0.1767     7.9826 </r>
       <r>    -0.6634    -0.3815     7.9552 </r>
       <r>    -0.5917    -0.3587     7.9294 </r>
       <r>    -0.5199     0.6857     7.9787 </r>
       <r>    -0.4481     3.3656     8.2202 </r>
       <r>    -0.3763     6.7265     8.7031 </r>
       <r>    -0.3045     8.3099     9.2996 </r>
       <r>    -0.2328     6.7130     9.7815 </r>
       <r>    -0.1610     3.3499    10.0219 </r>
       <r>    -0.0892     0.6760    10.0705 </r>
       <r>    -0.0174    -0.3678    10.0441 </r>
       <r>     0.0544    -0.4192    10.0140 </r>
       <r>     0.1262    -0.3255     9.9906 </r>
       <r>     0.1979    -0.4632     9.9574 </r>
       <r>     0.2697    -0.7302     9.9049 </r>
       <r>     0.3415    -0.4305     9.8740 </r>
       <r>     0.4133     1.7213     9.9976 </r>
       <r>     0.4851     6.7044    10.4789 </r>
       <r>     0.5569    13.6889    11.4615 </r>
       <r>     0.6286    19.5151    12.8623 </r>
       <r>     0.7004    20.4667    14.3315 </r>
       <r>     0.7722    15.5578    15.4482 </r>
       <r>     0.8440     7.9173    16.0166 </r>
       <r>     0.9158     1.9257    16.1548 </r>
       <r>     0.9875    -0.6347    16.1092 </r>
       <r>     1.0593    -0.8739    16.0465 </r>
       <r>     1.1311    -0.4542    16.0139 </r>
       <r>     1.2029    -0.1511    16.0031 </r>
       <r>     1.2747    -0.0356    16.0005 </r>
       <r>     1.3465    -0.0062    16.0001 </r>
       <r>     1.4182    -0.0008    16.0000 </r>
       <r>     1.4900    -0.0001    16.0000 </r>
       <r>     1.5618    -0.0000    16.0000 </r>
       <r>     1.6336    -0.0000    16.0000 </r>
       <r>     1.7054    -0.0000    16.0000 </r>
       <r>     1.7772    -0.0000    16.0000 </r>
       <r>     1.8489    -0.0000    16.0000 </r>
       <r>     1.9207    -0.0000    16.0000 </r>
       <r>     1.9925    -0.0000    16.0000 </r>
       <r>     2.0643     0.0000    16.0000 </r>
       <r>     2.1361     0.0000    16.0000 </r>
       <r>     2.2078     0.0000    16.0000 </r>
       <r>     2.2796     0.0000    16.0000 </r>
       <r>     2.3514     0.0000    16.0000 </r>
       <r>     2.4232     0.0000    16.0000 </r>
       <r>     2.4950     0.0000    16.0000 </r>
       <r>     2.5668     0.0000    16.0000 </r>
       <r>     2.6385     0.0000    16.0000 </r>
       <r>     2.7103     0.0000    16.0000 </r>
      </set>
     </set>
    </array>
   </total>
  </dos>
 </calculation>
 <structure name="finalpos" >
  <crystal>
   <varray name="basis" >
    <v>      10.28348048       0.00000000       0.00000000 </v>
    <v>      -0.11778305       9.84371039       0.00000000 </v>
    <v>      -0.00543416       0.28106836      10.06567573 </v>
   </varray>
   <i name="volume">   1018.92423372 </i>
   <varray name="rec_basis" >
    <v>       0.09724334       0.00116355       0.00002001 </v>
    <v>       0.00000000       0.10158771      -0.00283668 </v>
    <v>       0.00000000      -0.00000000       0.09934753 </v>
   </varray>
  </crystal>
  <varray name="positions" >
   <v>       0.53861831       0.41431654       0.36010968 </v>
   <v>       0.39388711       0.47677262       0.44458625 </v>
   <v>       0.54467824       0.57314481       0.44311938 </v>
   <v>       0.53657213       0.41209859       0.53873227 </v>
   <v>       0.50299217       0.46699993       0.44512357 </v>
  </varray>
  <varray name="velocities" >
   <v>      -0.00135666       0.00370465       0.00126778 </v>
   <v>      -0.00448345      -0.00241396      -0.00035318 </v>
   <v>       0.00075503       0.00517508      -0.00072965 </v>
   <v>       0.00123199       0.00116623      -0.00040776 </v>
   <v>       0.00032080      -0.00063542       0.00001855 </v>
  </varray>
 </structure>
</modeling>
