unknown system                          
           1
    10.283480    0.000000    0.000000
    -0.117783    9.843710    0.000000
    -0.005434    0.281068   10.065676
   H    C 
   4   1
Direct configuration=     1
   0.53801296  0.40649384  0.36056490
   0.39455684  0.48065054  0.43858568
   0.55200784  0.56541455  0.44266907
   0.52820302  0.41705677  0.53955335
   0.50307336  0.46755915  0.44555439
Direct configuration=     2
   0.53752082  0.40764173  0.36140733
   0.39615631  0.48087472  0.43852271
   0.55631724  0.57019673  0.44352242
   0.52738339  0.41662383  0.54065527
   0.50269061  0.46708281  0.44532671
Direct configuration=     3
   0.53660257  0.41042332  0.36244271
   0.40021681  0.48023493  0.43892529
   0.55702753  0.57121236  0.44365458
   0.52595551  0.41483210  0.54153966
   0.50248874  0.46696911  0.44512235
Direct configuration=     4
   0.53617287  0.41132809  0.36071186
   0.40288744  0.47870013  0.43893237
   0.55307862  0.56658405  0.44322805
   0.52432590  0.41220813  0.54152724
   0.50276662  0.46762537  0.44530242
Direct configuration=     5
   0.53559137  0.41329327  0.35695574
   0.39539670  0.47657883  0.43884921
   0.55022484  0.56485920  0.44275742
   0.52392098  0.41148170  0.54094525
   0.50371000  0.46784245  0.44570970
Direct configuration=     6
   0.53555715  0.41489451  0.35710292
   0.39054036  0.47487336  0.44041363
   0.54916140  0.56909676  0.44285244
   0.52498669  0.41140559  0.53828413
   0.50411699  0.46750466  0.44578084
Direct configuration=     7
   0.53694941  0.41585286  0.35977025
   0.39259419  0.47420351  0.44193580
   0.54851592  0.57389538  0.44320772
   0.52654712  0.41125207  0.53669680
   0.50375390  0.46709390  0.44553462
Direct configuration=     8
   0.53834871  0.41425541  0.36154542
   0.39755589  0.47502713  0.44416750
   0.54734191  0.57213411  0.44420207
   0.52999966  0.41116951  0.53648965
   0.50303460  0.46731184  0.44513548
Direct configuration=     9
   0.53983818  0.41050055  0.36089381
   0.40225942  0.47767958  0.44495860
   0.54468733  0.56720746  0.44408746
   0.53287341  0.41148227  0.53675544
   0.50250074  0.46778776  0.44511128
Direct configuration=    10
   0.53997497  0.41061189  0.35884190
   0.39837056  0.47918657  0.44493943
   0.54392321  0.56796973  0.44384904
   0.53534014  0.41093235  0.53914003
   0.50267137  0.46763535  0.44510502
