   5   5   0   0
  0.2066981E+03  0.1008471E-08  0.1025220E-08  0.1000157E-08  0.2000000E-14
   50.000000000000000     
  CAR 
 unknown system                          
      2.69035775    -18.79427814  301     -9.00797117      1.00000000
    -18.794  0.0000E+00  0.0000E+00
    -18.723  0.0000E+00  0.0000E+00
    -18.651  0.0000E+00  0.0000E+00
    -18.579  0.0000E+00  0.0000E+00
    -18.508  0.0000E+00  0.0000E+00
    -18.436 -0.3464E-27 -0.2481E-28
    -18.365 -0.1039E-24 -0.7464E-26
    -18.293 -0.2411E-22 -0.1734E-23
    -18.221 -0.4318E-20 -0.3110E-21
    -18.150 -0.5968E-18 -0.4305E-19
    -18.078 -0.6362E-16 -0.4599E-17
    -18.007 -0.5227E-14 -0.3790E-15
    -17.935 -0.3201E-12 -0.2330E-13
    -17.863 -0.1557E-10 -0.1139E-11
    -17.792 -0.5808E-09 -0.4273E-10
    -17.720 -0.1662E-07 -0.1233E-08
    -17.648 -0.3643E-06 -0.2732E-07
    -17.577 -0.6097E-05 -0.4640E-06
    -17.505 -0.7767E-04 -0.6026E-05
    -17.434 -0.7488E-03 -0.5965E-04
    -17.362 -0.5418E-02 -0.4477E-03
    -17.290 -0.2902E-01 -0.2526E-02
    -17.219 -0.1121E+00 -0.1056E-01
    -17.147 -0.2950E+00 -0.3168E-01
    -17.076 -0.4385E+00 -0.6308E-01
    -17.004  0.5897E-01 -0.5886E-01
    -16.932  0.2041E+01  0.8727E-01
    -16.861  0.5357E+01  0.4709E+00
    -16.789  0.8004E+01  0.1044E+01
    -16.717  0.7763E+01  0.1600E+01
    -16.646  0.4852E+01  0.1948E+01
    -16.574  0.1645E+01  0.2065E+01
    -16.503 -0.8903E-01  0.2059E+01
    -16.431 -0.4372E+00  0.2028E+01
    -16.359 -0.2635E+00  0.2009E+01
    -16.288 -0.9413E-01  0.2002E+01
    -16.216 -0.2318E-01  0.2000E+01
    -16.145 -0.4137E-02  0.2000E+01
    -16.073 -0.5479E-03  0.2000E+01
    -16.001 -0.5455E-04  0.2000E+01
    -15.930 -0.4114E-05  0.2000E+01
    -15.858 -0.2363E-06  0.2000E+01
    -15.786 -0.1037E-07  0.2000E+01
    -15.715 -0.3486E-09  0.2000E+01
    -15.643 -0.8993E-11  0.2000E+01
    -15.572 -0.1798E-12  0.2000E+01
    -15.500  0.0000E+00  0.2000E+01
    -15.428  0.0000E+00  0.2000E+01
    -15.357  0.0000E+00  0.2000E+01
    -15.285  0.0000E+00  0.2000E+01
    -15.214  0.0000E+00  0.2000E+01
    -15.142  0.0000E+00  0.2000E+01
    -15.070  0.0000E+00  0.2000E+01
    -14.999  0.0000E+00  0.2000E+01
    -14.927  0.0000E+00  0.2000E+01
    -14.855  0.0000E+00  0.2000E+01
    -14.784  0.0000E+00  0.2000E+01
    -14.712  0.0000E+00  0.2000E+01
    -14.641  0.0000E+00  0.2000E+01
    -14.569  0.0000E+00  0.2000E+01
    -14.497  0.0000E+00  0.2000E+01
    -14.426  0.0000E+00  0.2000E+01
    -14.354  0.0000E+00  0.2000E+01
    -14.283  0.0000E+00  0.2000E+01
    -14.211  0.0000E+00  0.2000E+01
    -14.139  0.0000E+00  0.2000E+01
    -14.068  0.0000E+00  0.2000E+01
    -13.996  0.0000E+00  0.2000E+01
    -13.924  0.0000E+00  0.2000E+01
    -13.853  0.0000E+00  0.2000E+01
    -13.781  0.0000E+00  0.2000E+01
    -13.710  0.0000E+00  0.2000E+01
    -13.638  0.0000E+00  0.2000E+01
    -13.566  0.0000E+00  0.2000E+01
    -13.495  0.0000E+00  0.2000E+01
    -13.423  0.0000E+00  0.2000E+01
    -13.352  0.0000E+00  0.2000E+01
    -13.280  0.0000E+00  0.2000E+01
    -13.208  0.0000E+00  0.2000E+01
    -13.137  0.0000E+00  0.2000E+01
    -13.065  0.0000E+00  0.2000E+01
    -12.993  0.0000E+00  0.2000E+01
    -12.922  0.0000E+00  0.2000E+01
    -12.850  0.0000E+00  0.2000E+01
    -12.779  0.0000E+00  0.2000E+01
    -12.707  0.0000E+00  0.2000E+01
    -12.635  0.0000E+00  0.2000E+01
    -12.564  0.0000E+00  0.2000E+01
    -12.492  0.0000E+00  0.2000E+01
    -12.421  0.0000E+00  0.2000E+01
    -12.349  0.0000E+00  0.2000E+01
    -12.277  0.0000E+00  0.2000E+01
    -12.206  0.0000E+00  0.2000E+01
    -12.134  0.0000E+00  0.2000E+01
    -12.062  0.0000E+00  0.2000E+01
    -11.991  0.0000E+00  0.2000E+01
    -11.919  0.0000E+00  0.2000E+01
    -11.848  0.0000E+00  0.2000E+01
    -11.776  0.0000E+00  0.2000E+01
    -11.704  0.0000E+00  0.2000E+01
    -11.633  0.0000E+00  0.2000E+01
    -11.561  0.0000E+00  0.2000E+01
    -11.490  0.0000E+00  0.2000E+01
    -11.418  0.0000E+00  0.2000E+01
    -11.346  0.0000E+00  0.2000E+01
    -11.275  0.0000E+00  0.2000E+01
    -11.203  0.0000E+00  0.2000E+01
    -11.131  0.0000E+00  0.2000E+01
    -11.060  0.0000E+00  0.2000E+01
    -10.988 -0.1429E-26  0.2000E+01
    -10.917 -0.4021E-24  0.2000E+01
    -10.845 -0.8761E-22  0.2000E+01
    -10.773 -0.1473E-19  0.2000E+01
    -10.702 -0.1911E-17  0.2000E+01
    -10.630 -0.1912E-15  0.2000E+01
    -10.559 -0.1474E-13  0.2000E+01
    -10.487 -0.8477E-12  0.2000E+01
    -10.415 -0.3861E-10  0.2000E+01
    -10.344 -0.1350E-08  0.2000E+01
    -10.272 -0.3621E-07  0.2000E+01
    -10.200 -0.7434E-06  0.2000E+01
    -10.129 -0.1165E-04  0.2000E+01
    -10.057 -0.1389E-03  0.2000E+01
     -9.986 -0.1252E-02  0.2000E+01
     -9.914 -0.8462E-02  0.1999E+01
     -9.842 -0.4233E-01  0.1996E+01
     -9.771 -0.1530E+00  0.1985E+01
     -9.699 -0.3789E+00  0.1958E+01
     -9.628 -0.5475E+00  0.1919E+01
     -9.556 -0.3482E-01  0.1916E+01
     -9.484  0.1975E+01  0.2058E+01
     -9.413  0.5659E+01  0.2463E+01
     -9.341  0.1033E+02  0.3203E+01
     -9.269  0.1500E+02  0.4277E+01
     -9.198  0.1813E+02  0.5575E+01
     -9.126  0.1741E+02  0.6822E+01
     -9.055  0.1221E+02  0.7697E+01
     -8.983  0.5433E+01  0.8086E+01
     -8.911  0.7679E+00  0.8141E+01
     -8.840 -0.8218E+00  0.8082E+01
     -8.768 -0.7189E+00  0.8031E+01
     -8.696 -0.3161E+00  0.8008E+01
     -8.625 -0.9252E-01  0.8002E+01
     -8.553 -0.1939E-01  0.8000E+01
     -8.482 -0.3002E-02  0.8000E+01
     -8.410 -0.3486E-03  0.8000E+01
     -8.338 -0.3067E-04  0.8000E+01
     -8.267 -0.2055E-05  0.8000E+01
     -8.195 -0.1053E-06  0.8000E+01
     -8.124 -0.4139E-08  0.8000E+01
     -8.052 -0.1250E-09  0.8000E+01
     -7.980 -0.2902E-11  0.8000E+01
     -7.909 -0.5581E-13  0.8000E+01
     -7.837  0.0000E+00  0.8000E+01
     -7.765  0.0000E+00  0.8000E+01
     -7.694  0.0000E+00  0.8000E+01
     -7.622  0.0000E+00  0.8000E+01
     -7.551  0.0000E+00  0.8000E+01
     -7.479  0.0000E+00  0.8000E+01
     -7.407  0.0000E+00  0.8000E+01
     -7.336  0.0000E+00  0.8000E+01
     -7.264  0.0000E+00  0.8000E+01
     -7.193  0.0000E+00  0.8000E+01
     -7.121  0.0000E+00  0.8000E+01
     -7.049  0.0000E+00  0.8000E+01
     -6.978  0.0000E+00  0.8000E+01
     -6.906  0.0000E+00  0.8000E+01
     -6.834  0.0000E+00  0.8000E+01
     -6.763  0.0000E+00  0.8000E+01
     -6.691  0.0000E+00  0.8000E+01
     -6.620  0.0000E+00  0.8000E+01
     -6.548  0.0000E+00  0.8000E+01
     -6.476  0.0000E+00  0.8000E+01
     -6.405  0.0000E+00  0.8000E+01
     -6.333  0.0000E+00  0.8000E+01
     -6.262  0.0000E+00  0.8000E+01
     -6.190  0.0000E+00  0.8000E+01
     -6.118  0.0000E+00  0.8000E+01
     -6.047  0.0000E+00  0.8000E+01
     -5.975  0.0000E+00  0.8000E+01
     -5.903  0.0000E+00  0.8000E+01
     -5.832  0.0000E+00  0.8000E+01
     -5.760  0.0000E+00  0.8000E+01
     -5.689  0.0000E+00  0.8000E+01
     -5.617  0.0000E+00  0.8000E+01
     -5.545  0.0000E+00  0.8000E+01
     -5.474  0.0000E+00  0.8000E+01
     -5.402  0.0000E+00  0.8000E+01
     -5.331  0.0000E+00  0.8000E+01
     -5.259  0.0000E+00  0.8000E+01
     -5.187  0.0000E+00  0.8000E+01
     -5.116  0.0000E+00  0.8000E+01
     -5.044  0.0000E+00  0.8000E+01
     -4.972  0.0000E+00  0.8000E+01
     -4.901  0.0000E+00  0.8000E+01
     -4.829  0.0000E+00  0.8000E+01
     -4.758  0.0000E+00  0.8000E+01
     -4.686  0.0000E+00  0.8000E+01
     -4.614  0.0000E+00  0.8000E+01
     -4.543  0.0000E+00  0.8000E+01
     -4.471  0.0000E+00  0.8000E+01
     -4.400  0.0000E+00  0.8000E+01
     -4.328  0.0000E+00  0.8000E+01
     -4.256  0.0000E+00  0.8000E+01
     -4.185  0.0000E+00  0.8000E+01
     -4.113  0.0000E+00  0.8000E+01
     -4.041  0.0000E+00  0.8000E+01
     -3.970  0.0000E+00  0.8000E+01
     -3.898  0.0000E+00  0.8000E+01
     -3.827  0.0000E+00  0.8000E+01
     -3.755  0.0000E+00  0.8000E+01
     -3.683  0.0000E+00  0.8000E+01
     -3.612  0.0000E+00  0.8000E+01
     -3.540  0.0000E+00  0.8000E+01
     -3.469  0.0000E+00  0.8000E+01
     -3.397  0.0000E+00  0.8000E+01
     -3.325  0.0000E+00  0.8000E+01
     -3.254  0.0000E+00  0.8000E+01
     -3.182  0.0000E+00  0.8000E+01
     -3.110  0.0000E+00  0.8000E+01
     -3.039  0.0000E+00  0.8000E+01
     -2.967  0.0000E+00  0.8000E+01
     -2.896  0.0000E+00  0.8000E+01
     -2.824  0.0000E+00  0.8000E+01
     -2.752  0.0000E+00  0.8000E+01
     -2.681  0.0000E+00  0.8000E+01
     -2.609  0.0000E+00  0.8000E+01
     -2.538  0.0000E+00  0.8000E+01
     -2.466  0.0000E+00  0.8000E+01
     -2.394  0.0000E+00  0.8000E+01
     -2.323  0.0000E+00  0.8000E+01
     -2.251  0.0000E+00  0.8000E+01
     -2.179  0.0000E+00  0.8000E+01
     -2.108  0.0000E+00  0.8000E+01
     -2.036  0.0000E+00  0.8000E+01
     -1.965 -0.1212E-26  0.8000E+01
     -1.893 -0.3433E-24  0.8000E+01
     -1.821 -0.7527E-22  0.8000E+01
     -1.750 -0.1274E-19  0.8000E+01
     -1.678 -0.1663E-17  0.8000E+01
     -1.607 -0.1675E-15  0.8000E+01
     -1.535 -0.1300E-13  0.8000E+01
     -1.463 -0.7530E-12  0.8000E+01
     -1.392 -0.3454E-10  0.8000E+01
     -1.320 -0.1217E-08  0.8000E+01
     -1.248 -0.3287E-07  0.8000E+01
     -1.177 -0.6798E-06  0.8000E+01
     -1.105 -0.1073E-04  0.8000E+01
     -1.034 -0.1288E-03  0.8000E+01
     -0.962 -0.1169E-02  0.8000E+01
     -0.890 -0.7942E-02  0.7999E+01
     -0.819 -0.3978E-01  0.7996E+01
     -0.747 -0.1425E+00  0.7986E+01
     -0.676 -0.3404E+00  0.7962E+01
     -0.604 -0.4162E+00  0.7932E+01
     -0.532  0.3346E+00  0.7956E+01
     -0.461  0.2672E+01  0.8147E+01
     -0.389  0.6063E+01  0.8582E+01
     -0.317  0.8231E+01  0.9171E+01
     -0.246  0.7305E+01  0.9694E+01
     -0.174  0.4113E+01  0.9989E+01
     -0.103  0.1134E+01  0.1007E+02
     -0.031 -0.2553E+00  0.1005E+02
      0.041 -0.4509E+00  0.1002E+02
      0.112 -0.3537E+00  0.9994E+01
      0.184 -0.4565E+00  0.9961E+01
      0.255 -0.7376E+00  0.9909E+01
      0.327 -0.5657E+00  0.9868E+01
      0.399  0.1357E+01  0.9965E+01
      0.470  0.6192E+01  0.1041E+02
      0.542  0.1334E+02  0.1136E+02
      0.614  0.1961E+02  0.1277E+02
      0.685  0.2096E+02  0.1427E+02
      0.757  0.1612E+02  0.1542E+02
      0.828  0.8267E+01  0.1602E+02
      0.900  0.2030E+01  0.1616E+02
      0.972 -0.6546E+00  0.1611E+02
      1.043 -0.9113E+00  0.1605E+02
      1.115 -0.4743E+00  0.1601E+02
      1.186 -0.1577E+00  0.1600E+02
      1.258 -0.3706E-01  0.1600E+02
      1.330 -0.6397E-02  0.1600E+02
      1.401 -0.8258E-03  0.1600E+02
      1.473 -0.8060E-04  0.1600E+02
      1.545 -0.5985E-05  0.1600E+02
      1.616 -0.3396E-06  0.1600E+02
      1.688 -0.1477E-07  0.1600E+02
      1.759 -0.4936E-09  0.1600E+02
      1.831 -0.1269E-10  0.1600E+02
      1.903 -0.2511E-12  0.1600E+02
      1.974 -0.3101E-14  0.1600E+02
      2.046  0.0000E+00  0.1600E+02
      2.117  0.0000E+00  0.1600E+02
      2.189  0.0000E+00  0.1600E+02
      2.261  0.0000E+00  0.1600E+02
      2.332  0.0000E+00  0.1600E+02
      2.404  0.0000E+00  0.1600E+02
      2.476  0.0000E+00  0.1600E+02
      2.547  0.0000E+00  0.1600E+02
      2.619  0.0000E+00  0.1600E+02
      2.690  0.0000E+00  0.1600E+02
      2.69553679    -18.87152426  301     -8.91342505      1.00000000
    -18.872  0.0000E+00  0.0000E+00
    -18.800  0.0000E+00  0.0000E+00
    -18.728  0.0000E+00  0.0000E+00
    -18.656  0.0000E+00  0.0000E+00
    -18.584  0.0000E+00  0.0000E+00
    -18.512 -0.3860E-27 -0.2775E-28
    -18.440 -0.1177E-24 -0.8486E-26
    -18.368 -0.2770E-22 -0.2000E-23
    -18.296 -0.5024E-20 -0.3632E-21
    -18.225 -0.7017E-18 -0.5081E-19
    -18.153 -0.7543E-16 -0.5473E-17
    -18.081 -0.6238E-14 -0.4539E-15
    -18.009 -0.3843E-12 -0.2808E-13
    -17.937 -0.1871E-10 -0.1373E-11
    -17.865 -0.6978E-09 -0.5154E-10
    -17.793 -0.1993E-07 -0.1484E-08
    -17.721 -0.4350E-06 -0.3276E-07
    -17.649 -0.7236E-05 -0.5530E-06
    -17.578 -0.9138E-04 -0.7122E-05
    -17.506 -0.8711E-03 -0.6975E-04
    -17.434 -0.6214E-02 -0.5165E-03
    -17.362 -0.3269E-01 -0.2867E-02
    -17.290 -0.1234E+00 -0.1174E-01
    -17.218 -0.3137E+00 -0.3429E-01
    -17.146 -0.4328E+00 -0.6541E-01
    -17.074  0.1725E+00 -0.5300E-01
    -17.002  0.2325E+01  0.1142E+00
    -16.930  0.5702E+01  0.5241E+00
    -16.859  0.8136E+01  0.1109E+01
    -16.787  0.7541E+01  0.1651E+01
    -16.715  0.4455E+01  0.1971E+01
    -16.643  0.1353E+01  0.2069E+01
    -16.571 -0.1881E+00  0.2055E+01
    -16.499 -0.4277E+00  0.2024E+01
    -16.427 -0.2365E+00  0.2007E+01
    -16.355 -0.7979E-01  0.2002E+01
    -16.283 -0.1868E-01  0.2000E+01
    -16.212 -0.3175E-02  0.2000E+01
    -16.140 -0.4006E-03  0.2000E+01
    -16.068 -0.3795E-04  0.2000E+01
    -15.996 -0.2721E-05  0.2000E+01
    -15.924 -0.1483E-06  0.2000E+01
    -15.852 -0.6168E-08  0.2000E+01
    -15.780 -0.1962E-09  0.2000E+01
    -15.708 -0.4778E-11  0.2000E+01
    -15.636 -0.9266E-13  0.2000E+01
    -15.565  0.0000E+00  0.2000E+01
    -15.493  0.0000E+00  0.2000E+01
    -15.421  0.0000E+00  0.2000E+01
    -15.349  0.0000E+00  0.2000E+01
    -15.277  0.0000E+00  0.2000E+01
    -15.205  0.0000E+00  0.2000E+01
    -15.133  0.0000E+00  0.2000E+01
    -15.061  0.0000E+00  0.2000E+01
    -14.989  0.0000E+00  0.2000E+01
    -14.918  0.0000E+00  0.2000E+01
    -14.846  0.0000E+00  0.2000E+01
    -14.774  0.0000E+00  0.2000E+01
    -14.702  0.0000E+00  0.2000E+01
    -14.630  0.0000E+00  0.2000E+01
    -14.558  0.0000E+00  0.2000E+01
    -14.486  0.0000E+00  0.2000E+01
    -14.414  0.0000E+00  0.2000E+01
    -14.342  0.0000E+00  0.2000E+01
    -14.271  0.0000E+00  0.2000E+01
    -14.199  0.0000E+00  0.2000E+01
    -14.127  0.0000E+00  0.2000E+01
    -14.055  0.0000E+00  0.2000E+01
    -13.983  0.0000E+00  0.2000E+01
    -13.911  0.0000E+00  0.2000E+01
    -13.839  0.0000E+00  0.2000E+01
    -13.767  0.0000E+00  0.2000E+01
    -13.695  0.0000E+00  0.2000E+01
    -13.624  0.0000E+00  0.2000E+01
    -13.552  0.0000E+00  0.2000E+01
    -13.480  0.0000E+00  0.2000E+01
    -13.408  0.0000E+00  0.2000E+01
    -13.336  0.0000E+00  0.2000E+01
    -13.264  0.0000E+00  0.2000E+01
    -13.192  0.0000E+00  0.2000E+01
    -13.120  0.0000E+00  0.2000E+01
    -13.048  0.0000E+00  0.2000E+01
    -12.977  0.0000E+00  0.2000E+01
    -12.905  0.0000E+00  0.2000E+01
    -12.833  0.0000E+00  0.2000E+01
    -12.761  0.0000E+00  0.2000E+01
    -12.689  0.0000E+00  0.2000E+01
    -12.617  0.0000E+00  0.2000E+01
    -12.545  0.0000E+00  0.2000E+01
    -12.473  0.0000E+00  0.2000E+01
    -12.401  0.0000E+00  0.2000E+01
    -12.330  0.0000E+00  0.2000E+01
    -12.258  0.0000E+00  0.2000E+01
    -12.186  0.0000E+00  0.2000E+01
    -12.114  0.0000E+00  0.2000E+01
    -12.042  0.0000E+00  0.2000E+01
    -11.970  0.0000E+00  0.2000E+01
    -11.898  0.0000E+00  0.2000E+01
    -11.826  0.0000E+00  0.2000E+01
    -11.754  0.0000E+00  0.2000E+01
    -11.683  0.0000E+00  0.2000E+01
    -11.611  0.0000E+00  0.2000E+01
    -11.539  0.0000E+00  0.2000E+01
    -11.467  0.0000E+00  0.2000E+01
    -11.395  0.0000E+00  0.2000E+01
    -11.323  0.0000E+00  0.2000E+01
    -11.251  0.0000E+00  0.2000E+01
    -11.179  0.0000E+00  0.2000E+01
    -11.107 -0.4101E-28  0.2000E+01
    -11.035 -0.1380E-25  0.2000E+01
    -10.964 -0.3589E-23  0.2000E+01
    -10.892 -0.7188E-21  0.2000E+01
    -10.820 -0.1109E-18  0.2000E+01
    -10.748 -0.1316E-16  0.2000E+01
    -10.676 -0.1203E-14  0.2000E+01
    -10.604 -0.8143E-13  0.2000E+01
    -10.532 -0.4415E-11  0.2000E+01
    -10.460 -0.1822E-09  0.2000E+01
    -10.388 -0.5762E-08  0.2000E+01
    -10.317 -0.1394E-06  0.2000E+01
    -10.245 -0.2574E-05  0.2000E+01
    -10.173 -0.3616E-04  0.2000E+01
    -10.101 -0.3849E-03  0.2000E+01
    -10.029 -0.3083E-02  0.2000E+01
     -9.957 -0.1841E-01  0.1998E+01
     -9.885 -0.8050E-01  0.1993E+01
     -9.813 -0.2491E+00  0.1975E+01
     -9.741 -0.4993E+00  0.1939E+01
     -9.670 -0.4291E+00  0.1908E+01
     -9.598  0.8673E+00  0.1970E+01
     -9.526  0.4082E+01  0.2264E+01
     -9.454  0.8487E+01  0.2874E+01
     -9.382  0.1198E+02  0.3735E+01
     -9.310  0.1289E+02  0.4662E+01
     -9.238  0.1164E+02  0.5499E+01
     -9.166  0.1011E+02  0.6225E+01
     -9.094  0.9320E+01  0.6895E+01
     -9.023  0.8191E+01  0.7484E+01
     -8.951  0.5583E+01  0.7886E+01
     -8.879  0.2368E+01  0.8056E+01
     -8.807  0.2164E+00  0.8071E+01
     -8.735 -0.4514E+00  0.8039E+01
     -8.663 -0.3489E+00  0.8014E+01
     -8.591 -0.1440E+00  0.8004E+01
     -8.519 -0.3981E-01  0.8001E+01
     -8.447 -0.7876E-02  0.8000E+01
     -8.376 -0.1147E-02  0.8000E+01
     -8.304 -0.1249E-03  0.8000E+01
     -8.232 -0.1026E-04  0.8000E+01
     -8.160 -0.6392E-06  0.8000E+01
     -8.088 -0.3034E-07  0.8000E+01
     -8.016 -0.1100E-08  0.8000E+01
     -7.944 -0.3055E-10  0.8000E+01
     -7.872 -0.6486E-12  0.8000E+01
     -7.800 -0.1235E-13  0.8000E+01
     -7.729  0.0000E+00  0.8000E+01
     -7.657  0.0000E+00  0.8000E+01
     -7.585  0.0000E+00  0.8000E+01
     -7.513  0.0000E+00  0.8000E+01
     -7.441  0.0000E+00  0.8000E+01
     -7.369  0.0000E+00  0.8000E+01
     -7.297  0.0000E+00  0.8000E+01
     -7.225  0.0000E+00  0.8000E+01
     -7.153  0.0000E+00  0.8000E+01
     -7.082  0.0000E+00  0.8000E+01
     -7.010  0.0000E+00  0.8000E+01
     -6.938  0.0000E+00  0.8000E+01
     -6.866  0.0000E+00  0.8000E+01
     -6.794  0.0000E+00  0.8000E+01
     -6.722  0.0000E+00  0.8000E+01
     -6.650  0.0000E+00  0.8000E+01
     -6.578  0.0000E+00  0.8000E+01
     -6.506  0.0000E+00  0.8000E+01
     -6.435  0.0000E+00  0.8000E+01
     -6.363  0.0000E+00  0.8000E+01
     -6.291  0.0000E+00  0.8000E+01
     -6.219  0.0000E+00  0.8000E+01
     -6.147  0.0000E+00  0.8000E+01
     -6.075  0.0000E+00  0.8000E+01
     -6.003  0.0000E+00  0.8000E+01
     -5.931  0.0000E+00  0.8000E+01
     -5.859  0.0000E+00  0.8000E+01
     -5.788  0.0000E+00  0.8000E+01
     -5.716  0.0000E+00  0.8000E+01
     -5.644  0.0000E+00  0.8000E+01
     -5.572  0.0000E+00  0.8000E+01
     -5.500  0.0000E+00  0.8000E+01
     -5.428  0.0000E+00  0.8000E+01
     -5.356  0.0000E+00  0.8000E+01
     -5.284  0.0000E+00  0.8000E+01
     -5.212  0.0000E+00  0.8000E+01
     -5.140  0.0000E+00  0.8000E+01
     -5.069  0.0000E+00  0.8000E+01
     -4.997  0.0000E+00  0.8000E+01
     -4.925  0.0000E+00  0.8000E+01
     -4.853  0.0000E+00  0.8000E+01
     -4.781  0.0000E+00  0.8000E+01
     -4.709  0.0000E+00  0.8000E+01
     -4.637  0.0000E+00  0.8000E+01
     -4.565  0.0000E+00  0.8000E+01
     -4.493  0.0000E+00  0.8000E+01
     -4.422  0.0000E+00  0.8000E+01
     -4.350  0.0000E+00  0.8000E+01
     -4.278  0.0000E+00  0.8000E+01
     -4.206  0.0000E+00  0.8000E+01
     -4.134  0.0000E+00  0.8000E+01
     -4.062  0.0000E+00  0.8000E+01
     -3.990  0.0000E+00  0.8000E+01
     -3.918  0.0000E+00  0.8000E+01
     -3.846  0.0000E+00  0.8000E+01
     -3.775  0.0000E+00  0.8000E+01
     -3.703  0.0000E+00  0.8000E+01
     -3.631  0.0000E+00  0.8000E+01
     -3.559  0.0000E+00  0.8000E+01
     -3.487  0.0000E+00  0.8000E+01
     -3.415  0.0000E+00  0.8000E+01
     -3.343  0.0000E+00  0.8000E+01
     -3.271  0.0000E+00  0.8000E+01
     -3.199  0.0000E+00  0.8000E+01
     -3.128  0.0000E+00  0.8000E+01
     -3.056  0.0000E+00  0.8000E+01
     -2.984  0.0000E+00  0.8000E+01
     -2.912  0.0000E+00  0.8000E+01
     -2.840  0.0000E+00  0.8000E+01
     -2.768  0.0000E+00  0.8000E+01
     -2.696  0.0000E+00  0.8000E+01
     -2.624  0.0000E+00  0.8000E+01
     -2.552  0.0000E+00  0.8000E+01
     -2.481  0.0000E+00  0.8000E+01
     -2.409  0.0000E+00  0.8000E+01
     -2.337  0.0000E+00  0.8000E+01
     -2.265  0.0000E+00  0.8000E+01
     -2.193  0.0000E+00  0.8000E+01
     -2.121  0.0000E+00  0.8000E+01
     -2.049  0.0000E+00  0.8000E+01
     -1.977 -0.1693E-27  0.8000E+01
     -1.905 -0.5346E-25  0.8000E+01
     -1.834 -0.1304E-22  0.8000E+01
     -1.762 -0.2450E-20  0.8000E+01
     -1.690 -0.3545E-18  0.8000E+01
     -1.618 -0.3949E-16  0.8000E+01
     -1.546 -0.3386E-14  0.8000E+01
     -1.474 -0.2159E-12  0.8000E+01
     -1.402 -0.1093E-10  0.8000E+01
     -1.330 -0.4229E-09  0.8000E+01
     -1.258 -0.1254E-07  0.8000E+01
     -1.187 -0.2842E-06  0.8000E+01
     -1.115 -0.4912E-05  0.8000E+01
     -1.043 -0.6451E-04  0.8000E+01
     -0.971 -0.6402E-03  0.8000E+01
     -0.899 -0.4763E-02  0.8000E+01
     -0.827 -0.2621E-01  0.7998E+01
     -0.755 -0.1040E+00  0.7990E+01
     -0.683 -0.2818E+00  0.7970E+01
     -0.611 -0.4386E+00  0.7938E+01
     -0.540  0.3389E-02  0.7939E+01
     -0.468  0.1905E+01  0.8076E+01
     -0.396  0.5200E+01  0.8449E+01
     -0.324  0.7937E+01  0.9020E+01
     -0.252  0.7827E+01  0.9583E+01
     -0.180  0.4970E+01  0.9940E+01
     -0.108  0.1725E+01  0.1006E+02
     -0.036 -0.6738E-01  0.1006E+02
      0.036 -0.4637E+00  0.1003E+02
      0.107 -0.3783E+00  0.9999E+01
      0.179 -0.4313E+00  0.9968E+01
      0.251 -0.7005E+00  0.9917E+01
      0.323 -0.6574E+00  0.9870E+01
      0.395  0.9296E+00  0.9937E+01
      0.467  0.5352E+01  0.1032E+02
      0.539  0.1236E+02  0.1121E+02
      0.611  0.1903E+02  0.1258E+02
      0.683  0.2117E+02  0.1410E+02
      0.755  0.1695E+02  0.1532E+02
      0.826  0.9149E+01  0.1598E+02
      0.898  0.2534E+01  0.1616E+02
      0.970 -0.5231E+00  0.1612E+02
      1.042 -0.9405E+00  0.1605E+02
      1.114 -0.5167E+00  0.1602E+02
      1.186 -0.1775E+00  0.1600E+02
      1.258 -0.4276E-01  0.1600E+02
      1.330 -0.7532E-02  0.1600E+02
      1.402 -0.9895E-03  0.1600E+02
      1.473 -0.9802E-04  0.1600E+02
      1.545 -0.7371E-05  0.1600E+02
      1.617 -0.4227E-06  0.1600E+02
      1.689 -0.1854E-07  0.1600E+02
      1.761 -0.6237E-09  0.1600E+02
      1.833 -0.1611E-10  0.1600E+02
      1.905 -0.3197E-12  0.1600E+02
      1.977 -0.4633E-14  0.1600E+02
      2.049  0.0000E+00  0.1600E+02
      2.120  0.0000E+00  0.1600E+02
      2.192  0.0000E+00  0.1600E+02
      2.264  0.0000E+00  0.1600E+02
      2.336  0.0000E+00  0.1600E+02
      2.408  0.0000E+00  0.1600E+02
      2.480  0.0000E+00  0.1600E+02
      2.552  0.0000E+00  0.1600E+02
      2.624  0.0000E+00  0.1600E+02
      2.696  0.0000E+00  0.1600E+02
      2.69796859    -18.94008943  301     -8.89280598      1.00000000
    -18.940  0.0000E+00  0.0000E+00
    -18.868  0.0000E+00  0.0000E+00
    -18.796  0.0000E+00  0.0000E+00
    -18.724  0.0000E+00  0.0000E+00
    -18.652  0.0000E+00  0.0000E+00
    -18.579 -0.4236E-27 -0.3055E-28
    -18.507 -0.1310E-24 -0.9477E-26
    -18.435 -0.3122E-22 -0.2261E-23
    -18.363 -0.5723E-20 -0.4151E-21
    -18.291 -0.8065E-18 -0.5858E-19
    -18.219 -0.8732E-16 -0.6357E-17
    -18.147 -0.7261E-14 -0.5301E-15
    -18.075 -0.4496E-12 -0.3296E-13
    -18.002 -0.2189E-10 -0.1612E-11
    -17.930 -0.8167E-09 -0.6052E-10
    -17.858 -0.2329E-07 -0.1740E-08
    -17.786 -0.5065E-06 -0.3827E-07
    -17.714 -0.8378E-05 -0.6426E-06
    -17.642 -0.1050E-03 -0.8216E-05
    -17.570 -0.9912E-03 -0.7971E-04
    -17.498 -0.6984E-02 -0.5834E-03
    -17.425 -0.3617E-01 -0.3192E-02
    -17.353 -0.1337E+00 -0.1284E-01
    -17.281 -0.3297E+00 -0.3662E-01
    -17.209 -0.4235E+00 -0.6716E-01
    -17.137  0.2819E+00 -0.4683E-01
    -17.065  0.2581E+01  0.1394E+00
    -16.993  0.5992E+01  0.5715E+00
    -16.921  0.8220E+01  0.1164E+01
    -16.848  0.7324E+01  0.1693E+01
    -16.776  0.4115E+01  0.1989E+01
    -16.704  0.1120E+01  0.2070E+01
    -16.632 -0.2577E+00  0.2052E+01
    -16.560 -0.4149E+00  0.2022E+01
    -16.488 -0.2142E+00  0.2006E+01
    -16.416 -0.6886E-01  0.2001E+01
    -16.344 -0.1544E-01  0.2000E+01
    -16.271 -0.2517E-02  0.2000E+01
    -16.199 -0.3045E-03  0.2000E+01
    -16.127 -0.2764E-04  0.2000E+01
    -16.055 -0.1896E-05  0.2000E+01
    -15.983 -0.9881E-07  0.2000E+01
    -15.911 -0.3922E-08  0.2000E+01
    -15.839 -0.1189E-09  0.2000E+01
    -15.767 -0.2760E-11  0.2000E+01
    -15.694 -0.4926E-13  0.2000E+01
    -15.622  0.0000E+00  0.2000E+01
    -15.550  0.0000E+00  0.2000E+01
    -15.478  0.0000E+00  0.2000E+01
    -15.406  0.0000E+00  0.2000E+01
    -15.334  0.0000E+00  0.2000E+01
    -15.262  0.0000E+00  0.2000E+01
    -15.189  0.0000E+00  0.2000E+01
    -15.117  0.0000E+00  0.2000E+01
    -15.045  0.0000E+00  0.2000E+01
    -14.973  0.0000E+00  0.2000E+01
    -14.901  0.0000E+00  0.2000E+01
    -14.829  0.0000E+00  0.2000E+01
    -14.757  0.0000E+00  0.2000E+01
    -14.685  0.0000E+00  0.2000E+01
    -14.612  0.0000E+00  0.2000E+01
    -14.540  0.0000E+00  0.2000E+01
    -14.468  0.0000E+00  0.2000E+01
    -14.396  0.0000E+00  0.2000E+01
    -14.324  0.0000E+00  0.2000E+01
    -14.252  0.0000E+00  0.2000E+01
    -14.180  0.0000E+00  0.2000E+01
    -14.108  0.0000E+00  0.2000E+01
    -14.035  0.0000E+00  0.2000E+01
    -13.963  0.0000E+00  0.2000E+01
    -13.891  0.0000E+00  0.2000E+01
    -13.819  0.0000E+00  0.2000E+01
    -13.747  0.0000E+00  0.2000E+01
    -13.675  0.0000E+00  0.2000E+01
    -13.603  0.0000E+00  0.2000E+01
    -13.531  0.0000E+00  0.2000E+01
    -13.458  0.0000E+00  0.2000E+01
    -13.386  0.0000E+00  0.2000E+01
    -13.314  0.0000E+00  0.2000E+01
    -13.242  0.0000E+00  0.2000E+01
    -13.170  0.0000E+00  0.2000E+01
    -13.098  0.0000E+00  0.2000E+01
    -13.026  0.0000E+00  0.2000E+01
    -12.954  0.0000E+00  0.2000E+01
    -12.881  0.0000E+00  0.2000E+01
    -12.809  0.0000E+00  0.2000E+01
    -12.737  0.0000E+00  0.2000E+01
    -12.665  0.0000E+00  0.2000E+01
    -12.593  0.0000E+00  0.2000E+01
    -12.521  0.0000E+00  0.2000E+01
    -12.449  0.0000E+00  0.2000E+01
    -12.377  0.0000E+00  0.2000E+01
    -12.304  0.0000E+00  0.2000E+01
    -12.232  0.0000E+00  0.2000E+01
    -12.160  0.0000E+00  0.2000E+01
    -12.088  0.0000E+00  0.2000E+01
    -12.016  0.0000E+00  0.2000E+01
    -11.944  0.0000E+00  0.2000E+01
    -11.872  0.0000E+00  0.2000E+01
    -11.800  0.0000E+00  0.2000E+01
    -11.727  0.0000E+00  0.2000E+01
    -11.655  0.0000E+00  0.2000E+01
    -11.583  0.0000E+00  0.2000E+01
    -11.511  0.0000E+00  0.2000E+01
    -11.439  0.0000E+00  0.2000E+01
    -11.367  0.0000E+00  0.2000E+01
    -11.295  0.0000E+00  0.2000E+01
    -11.223  0.0000E+00  0.2000E+01
    -11.150 -0.3021E-27  0.2000E+01
    -11.078 -0.9482E-25  0.2000E+01
    -11.006 -0.2295E-22  0.2000E+01
    -10.934 -0.4271E-20  0.2000E+01
    -10.862 -0.6110E-18  0.2000E+01
    -10.790 -0.6717E-16  0.2000E+01
    -10.718 -0.5671E-14  0.2000E+01
    -10.646 -0.3567E-12  0.2000E+01
    -10.573 -0.1763E-10  0.2000E+01
    -10.501 -0.6681E-09  0.2000E+01
    -10.429 -0.1935E-07  0.2000E+01
    -10.357 -0.4274E-06  0.2000E+01
    -10.285 -0.7185E-05  0.2000E+01
    -10.213 -0.9153E-04  0.2000E+01
    -10.141 -0.8789E-03  0.2000E+01
    -10.068 -0.6308E-02  0.1999E+01
     -9.996 -0.3337E-01  0.1997E+01
     -9.924 -0.1269E+00  0.1988E+01
     -9.852 -0.3276E+00  0.1964E+01
     -9.780 -0.4808E+00  0.1930E+01
     -9.708  0.3201E-01  0.1932E+01
     -9.636  0.2025E+01  0.2078E+01
     -9.564  0.5410E+01  0.2468E+01
     -9.491  0.8722E+01  0.3097E+01
     -9.419  0.1051E+02  0.3855E+01
     -9.347  0.1057E+02  0.4618E+01
     -9.275  0.9485E+01  0.5302E+01
     -9.203  0.8191E+01  0.5892E+01
     -9.131  0.7855E+01  0.6459E+01
     -9.059  0.8255E+01  0.7054E+01
     -8.987  0.7504E+01  0.7596E+01
     -8.914  0.4805E+01  0.7942E+01
     -8.842  0.1719E+01  0.8066E+01
     -8.770 -0.5603E-01  0.8062E+01
     -8.698 -0.4496E+00  0.8030E+01
     -8.626 -0.2805E+00  0.8010E+01
     -8.554 -0.1020E+00  0.8002E+01
     -8.482 -0.2538E-01  0.8000E+01
     -8.410 -0.4550E-02  0.8000E+01
     -8.337 -0.6024E-03  0.8000E+01
     -8.265 -0.5969E-04  0.8000E+01
     -8.193 -0.4462E-05  0.8000E+01
     -8.121 -0.2530E-06  0.8000E+01
     -8.049 -0.1092E-07  0.8000E+01
     -7.977 -0.3596E-09  0.8000E+01
     -7.905 -0.9054E-11  0.8000E+01
     -7.833 -0.1786E-12  0.8000E+01
     -7.760  0.0000E+00  0.8000E+01
     -7.688  0.0000E+00  0.8000E+01
     -7.616  0.0000E+00  0.8000E+01
     -7.544  0.0000E+00  0.8000E+01
     -7.472  0.0000E+00  0.8000E+01
     -7.400  0.0000E+00  0.8000E+01
     -7.328  0.0000E+00  0.8000E+01
     -7.256  0.0000E+00  0.8000E+01
     -7.183  0.0000E+00  0.8000E+01
     -7.111  0.0000E+00  0.8000E+01
     -7.039  0.0000E+00  0.8000E+01
     -6.967  0.0000E+00  0.8000E+01
     -6.895  0.0000E+00  0.8000E+01
     -6.823  0.0000E+00  0.8000E+01
     -6.751  0.0000E+00  0.8000E+01
     -6.679  0.0000E+00  0.8000E+01
     -6.606  0.0000E+00  0.8000E+01
     -6.534  0.0000E+00  0.8000E+01
     -6.462  0.0000E+00  0.8000E+01
     -6.390  0.0000E+00  0.8000E+01
     -6.318  0.0000E+00  0.8000E+01
     -6.246  0.0000E+00  0.8000E+01
     -6.174  0.0000E+00  0.8000E+01
     -6.102  0.0000E+00  0.8000E+01
     -6.029  0.0000E+00  0.8000E+01
     -5.957  0.0000E+00  0.8000E+01
     -5.885  0.0000E+00  0.8000E+01
     -5.813  0.0000E+00  0.8000E+01
     -5.741  0.0000E+00  0.8000E+01
     -5.669  0.0000E+00  0.8000E+01
     -5.597  0.0000E+00  0.8000E+01
     -5.524  0.0000E+00  0.8000E+01
     -5.452  0.0000E+00  0.8000E+01
     -5.380  0.0000E+00  0.8000E+01
     -5.308  0.0000E+00  0.8000E+01
     -5.236  0.0000E+00  0.8000E+01
     -5.164  0.0000E+00  0.8000E+01
     -5.092  0.0000E+00  0.8000E+01
     -5.020  0.0000E+00  0.8000E+01
     -4.947  0.0000E+00  0.8000E+01
     -4.875  0.0000E+00  0.8000E+01
     -4.803  0.0000E+00  0.8000E+01
     -4.731  0.0000E+00  0.8000E+01
     -4.659  0.0000E+00  0.8000E+01
     -4.587  0.0000E+00  0.8000E+01
     -4.515  0.0000E+00  0.8000E+01
     -4.443  0.0000E+00  0.8000E+01
     -4.370  0.0000E+00  0.8000E+01
     -4.298  0.0000E+00  0.8000E+01
     -4.226  0.0000E+00  0.8000E+01
     -4.154  0.0000E+00  0.8000E+01
     -4.082  0.0000E+00  0.8000E+01
     -4.010  0.0000E+00  0.8000E+01
     -3.938  0.0000E+00  0.8000E+01
     -3.866  0.0000E+00  0.8000E+01
     -3.793  0.0000E+00  0.8000E+01
     -3.721  0.0000E+00  0.8000E+01
     -3.649  0.0000E+00  0.8000E+01
     -3.577  0.0000E+00  0.8000E+01
     -3.505  0.0000E+00  0.8000E+01
     -3.433  0.0000E+00  0.8000E+01
     -3.361  0.0000E+00  0.8000E+01
     -3.289  0.0000E+00  0.8000E+01
     -3.216  0.0000E+00  0.8000E+01
     -3.144  0.0000E+00  0.8000E+01