    5    5    1    1
  0.2066981E+03  0.1008471E-08  0.1025220E-08  0.1000157E-08  0.2000000E-14
   50.000000000000000     
  CAR 
 unknown system                          
      8      4      8

  0.2500000E+00  0.2500000E+00  0.2500000E+00  0.2500000E+00
    1      -16.923618   1.000000
    2       -9.563903   1.000000
    3       -9.343594   1.000010
    4       -8.837828   0.999985
    5       -0.294237   0.000000
    6        0.560256   0.000000
    7        0.647794   0.000000
    8        0.691833   0.000000

 -0.2500000E+00  0.2500000E+00  0.2500000E+00  0.2500000E+00
    1      -16.923674   1.000000
    2       -9.563838   1.000000
    3       -9.343660   1.000010
    4       -8.837871   1.000031
    5       -0.297029   0.000000
    6        0.561482   0.000000
    7        0.662097   0.000000
    8        0.690983   0.000000

  0.2500000E+00 -0.2500000E+00  0.2500000E+00  0.2500000E+00
    1      -16.923617   1.000000
    2       -9.563709   1.000000
    3       -9.343616   1.000010
    4       -8.837762   0.999912
    5       -0.301762   0.000000
    6        0.560753   0.000000
    7        0.684214   0.000000
    8        0.708314   0.000000

 -0.2500000E+00 -0.2500000E+00  0.2500000E+00  0.2500000E+00
    1      -16.923685   1.000000
    2       -9.563825   1.000000
    3       -9.343661   1.000010
    4       -8.837872   1.000032
    5       -0.297794   0.000000
    6        0.564627   0.000000
    7        0.652455   0.000000
    8        0.706963   0.000000
