       N       E                     dE             d eps       ncg     rms          rms(c)
DAV:   1     0.158453433572E+02    0.15845E+02   -0.20263E+03    96   0.424E+02
DAV:   2    -0.225504536400E+02   -0.38396E+02   -0.38439E+02    80   0.110E+02
DAV:   3    -0.271745670447E+02   -0.46241E+01   -0.46376E+01    80   0.399E+01
DAV:   4    -0.273800563228E+02   -0.20549E+00   -0.20447E+00   128   0.874E+00
DAV:   5    -0.273801545489E+02   -0.98226E-04   -0.98228E-04   104   0.191E-01    0.845E+00
RMM:   6    -0.246329508698E+02    0.27472E+01   -0.50022E+00    64   0.136E+01    0.413E+00
RMM:   7    -0.241684872427E+02    0.46446E+00   -0.10733E+00    64   0.597E+00    0.221E+00
RMM:   8    -0.240320407596E+02    0.13645E+00   -0.14228E-01    64   0.262E+00    0.667E-01
RMM:   9    -0.240195647266E+02    0.12476E-01   -0.15396E-02    64   0.903E-01    0.230E-01
RMM:  10    -0.240173078371E+02    0.22569E-02   -0.61219E-03    64   0.421E-01    0.145E-01
RMM:  11    -0.240110604977E+02    0.62473E-02   -0.73888E-03    64   0.497E-01    0.130E-01
RMM:  12    -0.240132345789E+02   -0.21741E-02   -0.13554E-03    64   0.240E-01    0.530E-02
RMM:  13    -0.240210386105E+02   -0.78040E-02   -0.15831E-03    64   0.241E-01    0.354E-02
RMM:  14    -0.240223816394E+02   -0.13430E-02   -0.45948E-04    64   0.105E-01    0.154E-02
RMM:  15    -0.240245599212E+02   -0.21783E-02   -0.42199E-04    64   0.111E-01    0.900E-03
RMM:  16    -0.240248920249E+02   -0.33210E-03   -0.43443E-05    60   0.309E-02    0.451E-03
RMM:  17    -0.240250834248E+02   -0.19140E-03   -0.10819E-05    60   0.182E-02    0.196E-03
RMM:  18    -0.240251196223E+02   -0.36197E-04   -0.13242E-06    48   0.679E-03    0.107E-03
RMM:  19    -0.240251304415E+02   -0.10819E-04   -0.60881E-07    48   0.447E-03    0.637E-04
RMM:  20    -0.240251333508E+02   -0.29094E-05   -0.14003E-07    44   0.241E-03    0.255E-04
RMM:  21    -0.240251341811E+02   -0.83027E-06    0.00000E+00    32   0.147E-03
    1 T=    92. E= -.23977692E+02 F= -.24025134E+02 E0= -.24035655E+02  EK= 0.47386E-01 SP= 0.00E+00 SK= 0.56E-04
       N       E                     dE             d eps       ncg     rms          rms(c)
DAV:   1    -0.239984584587E+02    0.26675E-01   -0.25517E+00    64   0.159E+01    0.586E-01
RMM:   2    -0.239992134861E+02   -0.75503E-03   -0.74814E-02    64   0.223E+00    0.513E-01
RMM:   3    -0.239970695644E+02    0.21439E-02   -0.31966E-02    64   0.116E+00    0.166E-01
RMM:   4    -0.239992337753E+02   -0.21642E-02   -0.20831E-03    64   0.361E-01    0.141E-01
RMM:   5    -0.239991389803E+02    0.94795E-04   -0.65030E-03    64   0.466E-01    0.887E-02
RMM:   6    -0.239989529120E+02    0.18607E-03   -0.16581E-03    64   0.232E-01    0.355E-02
RMM:   7    -0.239989706070E+02   -0.17695E-04   -0.91252E-05    64   0.753E-02    0.355E-02
RMM:   8    -0.239990058834E+02   -0.35276E-04   -0.12326E-04    64   0.681E-02    0.774E-03
RMM:   9    -0.239990665353E+02   -0.60652E-04   -0.29387E-05    64   0.371E-02    0.289E-03
RMM:  10    -0.239990883138E+02   -0.21779E-04   -0.10239E-05    64   0.195E-02    0.678E-03
RMM:  11    -0.239990970784E+02   -0.87646E-05   -0.92604E-06    64   0.174E-02    0.147E-03
RMM:  12    -0.239991050551E+02   -0.79767E-05   -0.91469E-07    48   0.729E-03    0.176E-03
RMM:  13    -0.239991072381E+02   -0.21830E-05   -0.38801E-07    48   0.392E-03    0.973E-04
RMM:  14    -0.239991085783E+02   -0.13402E-05   -0.33558E-07    48   0.368E-03    0.240E-04
RMM:  15    -0.239991089635E+02   -0.38512E-06   -0.44503E-08    44   0.185E-03
    2 T=    93. E= -.23950184E+02 F= -.23999109E+02 E0= -.24005140E+02  EK= 0.47886E-01 SP= 0.53E-03 SK= 0.51E-03
       N       E                     dE             d eps       ncg     rms          rms(c)
DAV:   1    -0.239906006777E+02    0.85079E-02   -0.19165E+00    64   0.139E+01    0.422E-01
RMM:   2    -0.240173351514E+02   -0.26734E-01   -0.19457E-01    64   0.280E+00    0.950E-01
RMM:   3    -0.240063795551E+02    0.10956E-01   -0.39232E-03    64   0.543E-01    0.771E-01
RMM:   4    -0.239915570153E+02    0.14823E-01   -0.10599E-01    64   0.188E+00    0.980E-02
RMM:   5    -0.239920599877E+02   -0.50297E-03   -0.31442E-03    64   0.417E-01    0.923E-02
RMM:   6    -0.239920362053E+02    0.23782E-04   -0.49270E-04    64   0.152E-01    0.358E-02
RMM:   7    -0.239920367465E+02   -0.54117E-06   -0.24533E-04    64   0.944E-02    0.289E-02
RMM:   8    -0.239920343883E+02    0.23582E-05   -0.80495E-05    64   0.535E-02    0.933E-03
RMM:   9    -0.239920572336E+02   -0.22845E-04   -0.25013E-05    64   0.333E-02    0.687E-03
RMM:  10    -0.239920766979E+02   -0.19464E-04   -0.52049E-06    64   0.148E-02    0.247E-03
RMM:  11    -0.239920833657E+02   -0.66677E-05   -0.14418E-06    48   0.813E-03    0.905E-04
RMM:  12    -0.239920872795E+02   -0.39138E-05   -0.16741E-06    48   0.907E-03    0.184E-03
RMM:  13    -0.239920887335E+02   -0.14540E-05   -0.33267E-07    48   0.484E-03    0.192E-03
RMM:  14    -0.239920896476E+02   -0.91404E-06   -0.52712E-07    48   0.463E-03
    3 T=    48. E= -.23964982E+02 F= -.23992090E+02 E0= -.23997165E+02  EK= 0.24630E-01 SP= 0.16E-02 SK= 0.88E-03
       N       E                     dE             d eps       ncg     rms          rms(c)
DAV:   1    -0.240060314203E+02   -0.13943E-01   -0.24968E-01    64   0.510E+00    0.311E-01
RMM:   2    -0.240072372406E+02   -0.12058E-02   -0.26301E-02    64   0.116E+00    0.318E-01
RMM:   3    -0.240092803754E+02   -0.20431E-02   -0.16747E-02    64   0.786E-01    0.470E-01
RMM:   4    -0.240031110115E+02    0.61694E-02   -0.55147E-02    64   0.132E+00    0.119E-01
RMM:   5    -0.240033916211E+02   -0.28061E-03   -0.11091E-03    64   0.273E-01    0.121E-01
RMM:   6    -0.240032233882E+02    0.16823E-03   -0.16116E-03    64   0.237E-01    0.488E-02
RMM:   7    -0.240033198747E+02   -0.96486E-04   -0.11987E-04    64   0.748E-02    0.459E-02
RMM:   8    -0.240033653894E+02   -0.45515E-04   -0.19961E-04    64   0.840E-02    0.328E-02
RMM:   9    -0.240034036946E+02   -0.38305E-04   -0.21154E-05    64   0.319E-02    0.272E-02
RMM:  10    -0.240034137166E+02   -0.10022E-04   -0.11932E-04    64   0.636E-02    0.264E-03
RMM:  11    -0.240034243620E+02   -0.10645E-04   -0.78255E-06    64   0.192E-02    0.372E-03
RMM:  12    -0.240034294565E+02   -0.50945E-05   -0.15089E-06    48   0.790E-03    0.338E-03
RMM:  13    -0.240034319678E+02   -0.25113E-05   -0.34098E-07    48   0.421E-03    0.445E-04
RMM:  14    -0.240034332125E+02   -0.12447E-05   -0.10211E-07    44   0.214E-03    0.302E-04
RMM:  15    -0.240034341101E+02   -0.89762E-06   -0.61526E-08    44   0.194E-03
    4 T=    96. E= -.23949702E+02 F= -.24003434E+02 E0= -.24011847E+02  EK= 0.49673E-01 SP= 0.26E-02 SK= 0.14E-02
       N       E                     dE             d eps       ncg     rms          rms(c)
DAV:   1    -0.239490482697E+02    0.54385E-01   -0.75078E-01    64   0.868E+00    0.800E-01
RMM:   2    -0.240014009178E+02   -0.52353E-01   -0.77661E-02    64   0.225E+00    0.173E+00
RMM:   3    -0.239749231982E+02    0.26478E-01   -0.15366E-01    64   0.231E+00    0.119E+00
RMM:   4    -0.239377706870E+02    0.37153E-01   -0.14530E-01    64   0.224E+00    0.527E-01
RMM:   5    -0.239310996473E+02    0.66710E-02   -0.10435E-02    64   0.654E-01    0.396E-01
RMM:   6    -0.239281681647E+02    0.29315E-02   -0.36867E-03    64   0.387E-01    0.304E-01
RMM:   7    -0.239249128187E+02    0.32553E-02   -0.71109E-03    64   0.523E-01    0.105E-01
RMM:   8    -0.239247850476E+02    0.12777E-03   -0.17042E-03    64   0.266E-01    0.339E-02
RMM:   9    -0.239250064418E+02   -0.22139E-03   -0.11782E-03    64   0.207E-01    0.437E-02
RMM:  10    -0.239250102938E+02   -0.38520E-05   -0.96931E-05    64   0.673E-02    0.279E-02
RMM:  11    -0.239250037612E+02    0.65325E-05   -0.16433E-04    64   0.751E-02    0.698E-03
RMM:  12    -0.239250097061E+02   -0.59449E-05   -0.14386E-05    64   0.250E-02    0.643E-03
RMM:  13    -0.239250137796E+02   -0.40734E-05   -0.11652E-05    64   0.207E-02    0.104E-02
RMM:  14    -0.239250123808E+02    0.13988E-05   -0.24157E-05    64   0.281E-02    0.277E-03
RMM:  15    -0.239250133934E+02   -0.10126E-05   -0.36050E-07    48   0.519E-03    0.178E-03
RMM:  16    -0.239250144996E+02   -0.11061E-05   -0.13823E-06    48   0.714E-03    0.129E-03
RMM:  17    -0.239250147935E+02   -0.29393E-06   -0.17182E-07    48   0.304E-03
    5 T=   104. E= -.23863876E+02 F= -.23925015E+02 E0= -.23928886E+02  EK= 0.53775E-01 SP= 0.43E-02 SK= 0.31E-02
       N       E                     dE             d eps       ncg     rms          rms(c)
DAV:   1    -0.240162749202E+02   -0.91260E-01   -0.18542E+00    64   0.137E+01    0.860E-01
RMM:   2    -0.240153879047E+02    0.88702E-03   -0.51894E-02    64   0.163E+00    0.565E-01
RMM:   3    -0.240532804114E+02   -0.37893E-01   -0.20557E-01    64   0.267E+00    0.997E-01
RMM:   4    -0.240133901955E+02    0.39890E-01   -0.79900E-02    64   0.178E+00    0.277E-01
RMM:   5    -0.240125396201E+02    0.85058E-03   -0.11256E-02    64   0.671E-01    0.150E-01
RMM:   6    -0.240130356963E+02   -0.49608E-03   -0.31376E-03    64   0.359E-01    0.365E-02
RMM:   7    -0.240136419992E+02   -0.60630E-03   -0.22055E-03    64   0.294E-01    0.726E-02
RMM:   8    -0.240137320596E+02   -0.90060E-04   -0.18982E-04    64   0.960E-02    0.370E-02
RMM:   9    -0.240137699679E+02   -0.37908E-04   -0.23968E-04    64   0.896E-02    0.908E-03
RMM:  10    -0.240138225444E+02   -0.52577E-04   -0.80993E-06    60   0.198E-02    0.841E-03
RMM:  11    -0.240138409612E+02   -0.18417E-04   -0.59280E-06    60   0.149E-02    0.376E-03
RMM:  12    -0.240138475751E+02   -0.66139E-05   -0.46539E-06    64   0.137E-02    0.232E-03
RMM:  13    -0.240138512140E+02   -0.36389E-05   -0.62674E-07    48   0.550E-03    0.645E-04
RMM:  14    -0.240138528068E+02   -0.15928E-05   -0.35552E-07    48   0.426E-03    0.551E-04
RMM:  15    -0.240138534045E+02   -0.59762E-06   -0.70078E-08    44   0.205E-03
    6 T=   268. E= -.23857575E+02 F= -.24013853E+02 E0= -.24017831E+02  EK= 0.13842E+00 SP= 0.66E-02 SK= 0.11E-01
       N       E                     dE             d eps       ncg     rms          rms(c)
DAV:   1    -0.238628188005E+02    0.15103E+00   -0.19833E+00    64   0.136E+01    0.129E+00
RMM:   2    -0.238528060006E+02    0.10013E-01   -0.84771E-02    64   0.241E+00    0.483E-01
RMM:   3    -0.238735969756E+02   -0.20791E-01   -0.27598E-01    64   0.296E+00    0.797E-01
RMM:   4    -0.238712848679E+02    0.23121E-02   -0.55397E-03    64   0.602E-01    0.813E-01
RMM:   5    -0.238509577237E+02    0.20327E-01   -0.90675E-02    64   0.174E+00    0.136E-01
RMM:   6    -0.238514176234E+02   -0.45990E-03   -0.61985E-03    65   0.528E-01    0.575E-02
RMM:   7    -0.238518271771E+02   -0.40955E-03   -0.63977E-04    64   0.160E-01    0.617E-02
RMM:   8    -0.238520450550E+02   -0.21788E-03   -0.13655E-03    64   0.214E-01    0.371E-02
RMM:   9    -0.238520590410E+02   -0.13986E-04   -0.22952E-04    65   0.956E-02    0.354E-02
RMM:  10    -0.238520842388E+02   -0.25198E-04   -0.29344E-04    64   0.975E-02    0.764E-03
RMM:  11    -0.238521052549E+02   -0.21016E-04   -0.13962E-05    64   0.277E-02    0.569E-03
RMM:  12    -0.238521137814E+02   -0.85265E-05   -0.68786E-06    64   0.144E-02    0.155E-03
RMM:  13    -0.238521191389E+02   -0.53575E-05   -0.63790E-07    48   0.536E-03    0.139E-03
RMM:  14    -0.238521240342E+02   -0.48953E-05   -0.41504E-07    48   0.406E-03    0.144E-03
RMM:  15    -0.238521255976E+02   -0.15633E-05   -0.65747E-07    48   0.493E-03    0.438E-04
RMM:  16    -0.238521258304E+02   -0.23288E-06   -0.69347E-08    44   0.244E-03
    7 T=   169. E= -.23725816E+02 F= -.23852126E+02 E0= -.23855999E+02  EK= 0.87192E-01 SP= 0.12E-01 SK= 0.27E-01
       N       E                     dE             d eps       ncg     rms          rms(c)
DAV:   1    -0.238563256304E+02   -0.42000E-02   -0.91806E-01    64   0.946E+00    0.482E-01
RMM:   2    -0.238563790209E+02   -0.53391E-04   -0.27578E-02    64   0.138E+00    0.364E-01
RMM:   3    -0.238543420009E+02    0.20370E-02   -0.21165E-02    64   0.847E-01    0.105E-01
RMM:   4    -0.238562437915E+02   -0.19018E-02   -0.63281E-03    64   0.461E-01    0.149E-01
RMM:   5    -0.238559483798E+02    0.29541E-03   -0.49880E-03    64   0.398E-01    0.292E-02
RMM:   6    -0.238562068157E+02   -0.25844E-03   -0.16175E-04    64   0.102E-01    0.144E-02
RMM:   7    -0.238563318784E+02   -0.12506E-03   -0.18732E-04    64   0.748E-02    0.180E-02
RMM:   8    -0.238563620004E+02   -0.30122E-04   -0.11655E-05    64   0.208E-02    0.126E-02
RMM:   9    -0.238563974980E+02   -0.35498E-04   -0.18146E-05    64   0.240E-02    0.488E-03
RMM:  10    -0.238564058344E+02   -0.83364E-05   -0.14707E-05    64   0.226E-02    0.358E-03
RMM:  11    -0.238564120939E+02   -0.62596E-05   -0.60464E-06    64   0.141E-02    0.251E-03
RMM:  12    -0.238564140431E+02   -0.19491E-05   -0.28483E-07    48   0.378E-03    0.170E-03
RMM:  13    -0.238564156651E+02   -0.16220E-05   -0.38757E-07    48   0.360E-03    0.744E-04
RMM:  14    -0.238564163649E+02   -0.69980E-06   -0.22255E-07    48   0.334E-03
    8 T=   101. E= -.23747767E+02 F= -.23856416E+02 E0= -.23860305E+02  EK= 0.52300E-01 SP= 0.18E-01 SK= 0.38E-01
       N       E                     dE             d eps       ncg     rms          rms(c)
DAV:   1    -0.239792756774E+02   -0.12286E+00   -0.86930E-01    64   0.858E+00    0.514E-01
RMM:   2    -0.239804119099E+02   -0.11362E-02   -0.16466E-01    64   0.258E+00    0.592E-01
RMM:   3    -0.239729547646E+02    0.74571E-02   -0.77540E-02    64   0.161E+00    0.245E-01
RMM:   4    -0.239748263673E+02   -0.18716E-02   -0.84867E-03    64   0.607E-01    0.306E-01
RMM:   5    -0.239743225245E+02    0.50384E-03   -0.12207E-02    64   0.629E-01    0.102E-01
RMM:   6    -0.239746187876E+02   -0.29626E-03   -0.12366E-03    64   0.234E-01    0.842E-02
RMM:   7    -0.239745499405E+02    0.68847E-04   -0.18562E-03    64   0.244E-01    0.301E-02
RMM:   8    -0.239746906265E+02   -0.14069E-03   -0.88645E-05    64   0.627E-02    0.637E-03
RMM:   9    -0.239747561828E+02   -0.65556E-04   -0.82752E-05    64   0.535E-02    0.130E-02
RMM:  10    -0.239747648012E+02   -0.86184E-05   -0.18676E-05    64   0.254E-02    0.390E-03
RMM:  11    -0.239747781825E+02   -0.13381E-04   -0.63877E-06    60   0.163E-02    0.261E-03
RMM:  12    -0.239747826873E+02   -0.45048E-05   -0.40120E-07    48   0.487E-03    0.832E-04
RMM:  13    -0.239747849482E+02   -0.22609E-05   -0.40887E-07    48   0.380E-03    0.420E-04
RMM:  14    -0.239747855306E+02   -0.58235E-06   -0.30142E-08    40   0.163E-03
    9 T=   193. E= -.23794706E+02 F= -.23974786E+02 E0= -.23983387E+02  EK= 0.10004E+00 SP= 0.25E-01 SK= 0.55E-01
       N       E                     dE             d eps       ncg     rms          rms(c)
DAV:   1    -0.239289088662E+02    0.45876E-01   -0.98132E-01    64   0.970E+00    0.487E-01
RMM:   2    -0.239226540086E+02    0.62549E-02   -0.29708E-02    64   0.143E+00    0.210E-01
RMM:   3    -0.239254217201E+02   -0.27677E-02   -0.29244E-03    64   0.411E-01    0.168E-01
RMM:   4    -0.239277011312E+02   -0.22794E-02   -0.15678E-02    64   0.733E-01    0.186E-01
RMM:   5    -0.239272818166E+02    0.41931E-03   -0.98120E-03    64   0.576E-01    0.828E-02
RMM:   6    -0.239275234876E+02   -0.24167E-03   -0.26893E-04    64   0.122E-01    0.848E-02
RMM:   7    -0.239275495711E+02   -0.26083E-04   -0.30439E-03    64   0.316E-01    0.568E-02
RMM:   8    -0.239275436979E+02    0.58732E-05   -0.41434E-05    64   0.525E-02    0.369E-02
RMM:   9    -0.239275252034E+02    0.18495E-04   -0.18129E-04    64   0.785E-02    0.107E-02
RMM:  10    -0.239275342193E+02   -0.90159E-05   -0.12468E-05    64   0.236E-02    0.531E-03
RMM:  11    -0.239275429878E+02   -0.87685E-05   -0.56946E-06    64   0.153E-02    0.132E-03
RMM:  12    -0.239275496548E+02   -0.66670E-05   -0.56243E-07    48   0.565E-03    0.132E-03
RMM:  13    -0.239275515107E+02   -0.18558E-05   -0.30165E-07    48   0.371E-03    0.600E-04
RMM:  14    -0.239275517109E+02   -0.20023E-06   -0.16006E-07    48   0.289E-03
   10 T=   102. E= -.23768763E+02 F= -.23927552E+02 E0= -.23931420E+02  EK= 0.52817E-01 SP= 0.35E-01 SK= 0.71E-01
