 vasp.5.4.4.18Apr17-6-g9f103f2a35 (build Jul 12 2018 13:43:46) complex           
 executed on             LinuxGNU date 2019.06.22  02:17:35
 running on    1 total cores
 distrk:  each k-point on    1 cores,    1 groups
 distr:  one band on NCORES_PER_BAND=   1 cores,    1 groups


--------------------------------------------------------------------------------------------------------


 INCAR:
 POTCAR:    PAW_PBE H 15Jun2001                   
 POTCAR:    PAW_PBE C 08Apr2002                   
 POTCAR:    PAW_PBE H 15Jun2001                   
   VRHFIN =H: ultrasoft test                                                    
   LEXCH  = PE                                                                  
   EATOM  =    12.4884 eV,    0.9179 Ry                                         
                                                                                
   TITEL  = PAW_PBE H 15Jun2001                                                 
   LULTRA =        F    use ultrasoft PP ?                                      
   IUNSCR =        0    unscreen: 0-lin 1-nonlin 2-no                           
   RPACOR =    0.000    partial core radius                                     
   POMASS =    1.000; ZVAL   =    1.000    mass and valenz                      
   RCORE  =    1.100    outmost cutoff radius                                   
   RWIGS  =    0.700; RWIGS  =    0.370    wigner-seitz radius (au A)           
   ENMAX  =  250.000; ENMIN  =  200.000 eV                                      
   RCLOC  =    0.701    cutoff for local pot                                    
   LCOR   =        T    correct aug charges                                     
   LPAW   =        T    paw PP                                                  
   EAUG   =  400.000                                                            
   RMAX   =    1.123    core radius for proj-oper                               
   RAUG   =    1.200    factor for augmentation sphere                          
   RDEP   =    1.112    radius for radial grids                                 
   RDEPT  =    0.926    core radius for aug-charge                              
                                                                                
   Atomic configuration                                                         
    2 entries                                                                   
     n  l   j            E        occ.                                          
     1  0  0.50        -6.4927   1.0000                                         
     2  1  0.50        -3.4015   0.0000                                         
   Description                                                                  
     l       E           TYP  RCUT    TYP  RCUT                                 
     0     -6.4927494     23  1.100                                             
     0      6.8029130     23  1.100                                             
     1     -4.0817478     23  1.100                                             
  local pseudopotential read in
  atomic valenz-charges read in
  non local Contribution for L=           0  read in
    real space projection operators read in
  non local Contribution for L=           0  read in
    real space projection operators read in
  non local Contribution for L=           1  read in
    real space projection operators read in
    PAW grid and wavefunctions read in

   number of l-projection  operators is LMAX  =           3
   number of lm-projection operators is LMMAX =           5

 POTCAR:    PAW_PBE C 08Apr2002                   
   VRHFIN =C: s2p2                                                              
   LEXCH  = PE                                                                  
   EATOM  =   147.1560 eV,   10.8157 Ry                                         
                                                                                
   TITEL  = PAW_PBE C 08Apr2002                                                 
   LULTRA =        F    use ultrasoft PP ?                                      
   IUNSCR =        1    unscreen: 0-lin 1-nonlin 2-no                           
   RPACOR =    1.200    partial core radius                                     
   POMASS =   12.011; ZVAL   =    4.000    mass and valenz                      
   RCORE  =    1.500    outmost cutoff radius                                   
   RWIGS  =    1.630; RWIGS  =    0.863    wigner-seitz radius (au A)           
   ENMAX  =  400.000; ENMIN  =  300.000 eV                                      
   ICORE  =        2    local potential                                         
   LCOR   =        T    correct aug charges                                     
   LPAW   =        T    paw PP                                                  
   EAUG   =  644.873                                                            
   DEXC   =    0.000                                                            
   RMAX   =    1.529    core radius for proj-oper                               
   RAUG   =    1.300    factor for augmentation sphere                          
   RDEP   =    1.501    radius for radial grids                                 
   RDEPT  =    1.300    core radius for aug-charge                              
                                                                                
   Atomic configuration                                                         
    4 entries                                                                   
     n  l   j            E        occ.                                          
     1  0  0.50      -273.3789   2.0000                                         
     2  0  0.50       -13.7508   2.0000                                         
     2  1  0.50        -5.2854   2.0000                                         
     3  2  1.50        -5.4423   0.0000                                         
   Description                                                                  
     l       E           TYP  RCUT    TYP  RCUT                                 
     0    -13.7508458     23  1.200                                             
     0     -8.2022199     23  1.200                                             
     1     -5.2854383     23  1.500                                             
     1     34.0145650     23  1.500                                             
     2     -5.4423304      7  1.500                                             
  local pseudopotential read in
  partial core-charges read in
  partial kinetic energy density read in
  atomic valenz-charges read in
  non local Contribution for L=           0  read in
    real space projection operators read in
  non local Contribution for L=           0  read in
    real space projection operators read in
  non local Contribution for L=           1  read in
    real space projection operators read in
  non local Contribution for L=           1  read in
    real space projection operators read in
    PAW grid and wavefunctions read in

   number of l-projection  operators is LMAX  =           4
   number of lm-projection operators is LMMAX =           8


 ----------------------------------------------------------------------------- 
|                                                                             |
|  ADVICE TO THIS USER RUNNING 'VASP/VAMP'   (HEAR YOUR MASTER'S VOICE ...):  |
|                                                                             |
|      You have a (more or less) 'small supercell' and for smaller cells      |
|      it is recommended  to use the reciprocal-space projection scheme!      |
|      The real space optimization is not  efficient for small cells and it   |
|      is also less accurate ...                                              |
|      Therefore set LREAL=.FALSE. in the  INCAR file                         |
|                                                                             |
 ----------------------------------------------------------------------------- 


 ----------------------------------------------------------------------------- 
|                                                                             |
|           W    W    AA    RRRRR   N    N  II  N    N   GGGG   !!!           |
|           W    W   A  A   R    R  NN   N  II  NN   N  G    G  !!!           |
|           W    W  A    A  R    R  N N  N  II  N N  N  G       !!!           |
|           W WW W  AAAAAA  RRRRR   N  N N  II  N  N N  G  GGG   !            |
|           WW  WW  A    A  R   R   N   NN  II  N   NN  G    G                |
|           W    W  A    A  R    R  N    N  II  N    N   GGGG   !!!           |
|                                                                             |
|     The real-space-projection scheme for the treatment of the nonlocal      |
|     pseudopotentials has been switched on -- but on file POTCAR I have      |
|     not found any entries signalling me that you have ever performed a      |
|     real-space optimization of all nonlocal projectors! BE WARNED that      |
|     a calculation using the real-space-projection scheme together with      |
|     nonlocal projectors which were not real-space-optimized (according      |
|     to the plane-wave-cutoff used in this calculation) might give more      |
|     or less inaccurate results                                              |
|     I hope you know what you are doing                                      |
|                                                                             |
 ----------------------------------------------------------------------------- 

  PAW_PBE H 15Jun2001                   :
 energy of atom  1       EATOM=  -12.4884
 kinetic energy error for atom=    0.0098 (will be added to EATOM!!)
  PAW_PBE C 08Apr2002                   :
 energy of atom  2       EATOM= -147.1560
 kinetic energy error for atom=    0.0288 (will be added to EATOM!!)


 POSCAR:  H  C                                   
  positions in cartesian coordinates
  No initial velocities read in
 exchange correlation table for  LEXCH =        8
   RHO(1)=    0.500       N(1)  =     2000
   RHO(2)=  100.500       N(2)  =     4000



--------------------------------------------------------------------------------------------------------


 ion  position               nearest neighbor table
   1  0.538  0.407  0.360-   5 1.10
   2  0.395  0.480  0.438-   5 1.11
   3  0.552  0.565  0.443-   5 1.10
   4  0.528  0.416  0.539-   5 1.12
   5  0.504  0.468  0.445-   1 1.10   3 1.10   2 1.11   4 1.12


IMPORTANT INFORMATION: All symmetrisations will be switched off!
NOSYMM: (Re-)initialisation of all symmetry stuff for point group C_1.




Automatic generation of k-mesh.
 generate k-points for:    2    2    2
Space group operators:
 irot       det(A)        alpha          n_x          n_y          n_z        tau_x        tau_y        tau_z
    1     1.000000     0.000000     1.000000     0.000000     0.000000     0.000000     0.000000     0.000000
 
 Subroutine IBZKPT returns following result:
 ===========================================
 
 Found      4 irreducible k-points:
 
 Following reciprocal coordinates:
            Coordinates               Weight
  0.250000  0.250000  0.250000      2.000000
 -0.250000  0.250000  0.250000      2.000000
  0.250000 -0.250000  0.250000      2.000000
 -0.250000 -0.250000  0.250000      2.000000
 
 Following cartesian coordinates:
            Coordinates               Weight
  0.024790  0.024825  0.025526      2.000000
 -0.024790  0.023952  0.025830      2.000000
  0.024790 -0.023952  0.024182      2.000000
 -0.024790 -0.024825  0.024486      2.000000
 


--------------------------------------------------------------------------------------------------------




 Dimension of arrays:
   k-points           NKPTS =      4   k-points in BZ     NKDIM =      4   number of bands    NBANDS=      8
   number of dos      NEDOS =    301   number of ions     NIONS =      5
   non local maximal  LDIM  =      4   non local SUM 2l+1 LMDIM =      8
   total plane-waves  NPLWV = 343000
   max r-space proj   IRMAX =    786   max aug-charges    IRDMAX=   4116
   dimension x,y,z NGX =    70 NGY =   70 NGZ =   70
   dimension x,y,z NGXF=   140 NGYF=  140 NGZF=  140
   support grid    NGXF=   140 NGYF=  140 NGZF=  140
   ions per type =               4   1
   NGX,Y,Z   is equivalent  to a cutoff of  11.54, 11.35, 11.64 a.u.
   NGXF,Y,Z  is equivalent  to a cutoff of  23.08, 22.70, 23.27 a.u.

 SYSTEM =  unknown system                          
 POSCAR =   H  C                                   

 Startparameter for this run:
   NWRITE =      2    write-flag & timer
   PREC   = a         normal or accurate (medium, high low for compatibility)
   ISTART =      0    job   : 0-new  1-cont  2-samecut
   ICHARG =      2    charge: 1-file 2-atom 10-const
   ISPIN  =      1    spin polarized calculation?
   LNONCOLLINEAR =      F non collinear calculations
   LSORBIT =      F    spin-orbit coupling
   INIWAV =      1    electr: 0-lowe 1-rand  2-diag
   LASPH  =      F    aspherical Exc in radial PAW
   METAGGA=      F    non-selfconsistent MetaGGA calc.

 Electronic Relaxation 1
   ENCUT  =  400.0 eV  29.40 Ry    5.42 a.u.  16.45 16.72 16.31*2*pi/ulx,y,z
   ENINI  =  400.0     initial cutoff
   ENAUG  =  644.9 eV  augmentation charge cutoff
   NELM   =     60;   NELMIN=  2; NELMDL= -5     # of ELM steps 
   EDIFF  = 0.1E-05   stopping-criterion for ELM
   LREAL  =      T    real-space projection
   NLSPLINE    = F    spline interpolate recip. space projectors
   LCOMPAT=      F    compatible to vasp.4.4
   GGA_COMPAT  = T    GGA compatible to vasp.4.4-vasp.4.6
   LMAXPAW     = -100 max onsite density
   LMAXMIX     =    2 max onsite mixed and CHGCAR
   VOSKOWN=      0    Vosko Wilk Nusair interpolation
   ROPT   =    0.00000   0.00000
 Ionic relaxation
   EDIFFG = 0.1E-04   stopping-criterion for IOM
   NSW    =     10    number of steps for IOM
   NBLOCK =      1;   KBLOCK =      1    inner block; outer block 
   IBRION =      0    ionic relax: 0-MD 1-quasi-New 2-CG
   NFREE  =      0    steps in history (QN), initial steepest desc. (CG)
   ISIF   =      2    stress and relaxation
   IWAVPR =     12    prediction:  0-non 1-charg 2-wave 3-comb
   ISYM   =      0    0-nonsym 1-usesym 2-fastsym
   LCORR  =      T    Harris-Foulkes like correction to forces

   POTIM  = 2.0000    time-step for ionic-motion
   TEIN   =   50.0    initial temperature
   TEBEG  =   50.0;   TEEND  =  50.0 temperature during run
   SMASS  =   0.00    Nose mass-parameter (am)
   estimated Nose-frequenzy (Omega)   =  0.79E+14 period in steps = 40.00 mass=   0.123E-29a.u.
   SCALEE = 1.0000    scale energy and forces
   NPACO  =    256;   APACO  = 16.0  distance and # of slots for P.C.
   PSTRESS=    0.0 pullay stress

  Mass of Ions in am
   POMASS =   1.00 12.01
  Ionic Valenz
   ZVAL   =   1.00  4.00
  Atomic Wigner-Seitz radii
   RWIGS  =  -1.00 -1.00
  virtual crystal weights 
   VCA    =   1.00  1.00
   NELECT =       8.0000    total number of electrons
   NUPDOWN=      -1.0000    fix difference up-down

 DOS related values:
   EMIN   =  10.00;   EMAX   =-10.00  energy-range for DOS
   EFERMI =   0.00
   ISMEAR =     1;   SIGMA  =   0.20  broadening in eV -4-tet -1-fermi 0-gaus

 Electronic relaxation 2 (details)
   IALGO  =     68    algorithm
   LDIAG  =      T    sub-space diagonalisation (order eigenvalues)
   LSUBROT=      F    optimize rotation matrix (better conditioning)
   TURBO    =      0    0=normal 1=particle mesh
   IRESTART =      0    0=no restart 2=restart with 2 vectors
   NREBOOT  =      0    no. of reboots
   NMIN     =      0    reboot dimension
   EREF     =   0.00    reference energy to select bands
   IMIX   =      4    mixing-type and parameters
     AMIX     =   0.40;   BMIX     =  1.00
     AMIX_MAG =   1.60;   BMIX_MAG =  1.00
     AMIN     =   0.10
     WC   =   100.;   INIMIX=   1;  MIXPRE=   1;  MAXMIX=  50

 Intra band minimization:
   WEIMIN = 0.0010     energy-eigenvalue tresh-hold
   EBREAK =  0.31E-07  absolut break condition
   DEPER  =   0.30     relativ break condition  

   TIME   =   0.40     timestep for ELM

  volume/ion in A,a.u.               =     206.70      1394.87
  Fermi-wavevector in a.u.,A,eV,Ry     =   0.323844  0.611977  1.426911  0.104875
  Thomas-Fermi vector in A             =   1.213450

 Write flags
   LWAVE        =      F    write WAVECAR
   LDOWNSAMPLE  =      F    k-point downsampling of WAVECAR
   LCHARG       =      F    write CHGCAR
   LVTOT        =      F    write LOCPOT, total local potential
   LVHAR        =      F    write LOCPOT, Hartree potential only
   LELF         =      F    write electronic localiz. function (ELF)
   LORBIT       =      0    0 simple, 1 ext, 2 COOP (PROOUT), +10 PAW based schemes


 Dipole corrections
   LMONO  =      F    monopole corrections only (constant potential shift)
   LDIPOL =      F    correct potential (dipole corrections)
   IDIPOL =      0    1-x, 2-y, 3-z, 4-all directions 
   EPSILON=  1.0000000 bulk dielectric constant

 Exchange correlation treatment:
   GGA     =    --    GGA type
   LEXCH   =     8    internal setting for exchange type
   VOSKOWN=      0    Vosko Wilk Nusair interpolation
   LHFCALC =     F    Hartree Fock is set to
   LHFONE  =     F    Hartree Fock one center treatment
   AEXX    =    0.0000 exact exchange contribution

 Linear response parameters
   LEPSILON=     F    determine dielectric tensor
   LRPA    =     F    only Hartree local field effects (RPA)
   LNABLA  =     F    use nabla operator in PAW spheres
   LVEL    =     F    velocity operator in full k-point grid
   LINTERFAST=   F  fast interpolation
   KINTER  =     0    interpolate to denser k-point grid
   CSHIFT  =0.1000    complex shift for real part using Kramers Kronig
   OMEGAMAX=  -1.0    maximum frequency
   DEG_THRESHOLD= 0.2000000E-02 threshold for treating states as degnerate
   RTIME   =   -0.100 relaxation time in fs
  (WPLASMAI=    0.000 imaginary part of plasma frequency in eV, 0.658/RTIME)
   DFIELD  = 0.0000000 0.0000000 0.0000000 field for delta impulse in time

 Orbital magnetization related:
   ORBITALMAG=     F  switch on orbital magnetization
   LCHIMAG   =     F  perturbation theory with respect to B field
   DQ        =  0.001000  dq finite difference perturbation B field
   LLRAUG    =     F  two centre corrections for induced B field



--------------------------------------------------------------------------------------------------------


 molecular dynamics for ions
   using nose mass (canonical ensemble)
 charge density and potential will be updated during run
 non-spin polarized calculation
 RMM-DIIS sequential band-by-band and
  variant of blocked Davidson during initial phase
 perform sub-space diagonalisation
    before iterative eigenvector-optimisation
 modified Broyden-mixing scheme, WC =      100.0
 initial mixing is a Kerker type mixing with AMIX =  0.4000 and BMIX =      1.0000
 Hartree-type preconditioning will be used
 using additional bands            4
 real space projection scheme for non local part
 use partial core corrections
 calculate Harris-corrections to forces   (improved forces if not selfconsistent)
 use gradient corrections 
 use of overlap-Matrix (Vanderbilt PP)
 Methfessel and Paxton  Order N= 1 SIGMA  =   0.20


--------------------------------------------------------------------------------------------------------


  energy-cutoff  :      400.00
  volume of cell :     1033.49
      direct lattice vectors                 reciprocal lattice vectors
    10.084706258  0.000000000  0.000000000     0.099160052  0.001745896 -0.000607890
    -0.180480839 10.250606587  0.000000000    -0.000000000  0.097555202  0.002688154
     0.066139308 -0.275484617  9.997552102     0.000000000 -0.000000000  0.100024485

  length of vectors
    10.084706258 10.252195313 10.001565588     0.099177284  0.097592232  0.100024485



 k-points in units of 2pi/SCALE and weight: read from INCAR                         
   0.02479001  0.02482527  0.02552619       0.250
  -0.02479001  0.02395233  0.02583013       0.250
   0.02479001 -0.02395233  0.02418211       0.250
  -0.02479001 -0.02482527  0.02448606       0.250

 k-points in reciprocal lattice and weights: read from INCAR                         
   0.25000000  0.25000000  0.25000000       0.250
  -0.25000000  0.25000000  0.25000000       0.250
   0.25000000 -0.25000000  0.25000000       0.250
  -0.25000000 -0.25000000  0.25000000       0.250

 position of ions in fractional coordinates (direct lattice) 
   0.53848731  0.40668926  0.36016628
   0.39455096  0.48033113  0.43846966
   0.55207578  0.56532578  0.44284580
   0.52813922  0.41638054  0.53916170
   0.50371767  0.46804278  0.44497419

 position of ions in cartesian coordinates  (Angst):
   5.38090790  4.06959134  3.60078113
   3.92124004  4.80289376  4.38362322
   5.49478109  5.67293500  4.42737400
   5.28663993  4.11962234  5.39029723
   5.02480228  4.67513883  4.44865265



--------------------------------------------------------------------------------------------------------


 k-point  1 :   0.2500 0.2500 0.2500  plane waves:   18781
 k-point  2 :  -0.2500 0.2500 0.2500  plane waves:   18786
 k-point  3 :   0.2500-0.2500 0.2500  plane waves:   18757
 k-point  4 :  -0.2500-0.2500 0.2500  plane waves:   18789

 maximum and minimum number of plane-waves per node :     18789    18757

 maximum number of plane-waves:     18789
 maximum index in each direction: 
   IXMAX=   16   IYMAX=   16   IZMAX=   16
   IXMIN=  -16   IYMIN=  -16   IZMIN=  -16


 serial   3D FFT for wavefunctions
 parallel 3D FFT for charge:
    minimum data exchange during FFTs selected (reduces bandwidth)


 total amount of memory used by VASP MPI-rank0   303541. kBytes
=======================================================================

   base      :      30000. kBytes
   nonlr-proj:        162. kBytes
   fftplans  :      94700. kBytes
   grid      :     169030. kBytes
   one-center:         15. kBytes
   wavefun   :       9634. kBytes

     INWAV:  cpu time    0.0000: real time    0.0000
 Broyden mixing: mesh for mixing (old mesh)
   NGX = 33   NGY = 33   NGZ = 33
  (NGX  =140   NGY  =140   NGZ  =140)
  gives a total of  35937 points

 initial charge density was supplied:
 charge density of overlapping atoms calculated
 number of electron       8.0000000 magnetization 
 keeping initial charge density in first step


--------------------------------------------------------------------------------------------------------


 Maximum index for non-local projection operator          714
 Maximum index for augmentation-charges         3796 (set IRDMAX)


--------------------------------------------------------------------------------------------------------


 First call to EWALD:  gamma=   0.175
 Maximum number of real-space cells 3x 3x 3
 Maximum number of reciprocal cells 3x 3x 3

    FEWALD:  cpu time    0.0007: real time    0.0007


--------------------------------------- Iteration      1(   1)  ---------------------------------------


    POTLOK:  cpu time    1.7556: real time    1.7600
    SETDIJ:  cpu time    0.0064: real time    0.0064
     EDDAV:  cpu time    2.8051: real time    2.8117
       DOS:  cpu time    0.0003: real time    0.0003
    --------------------------------------------
      LOOP:  cpu time    4.5673: real time    4.5783

 eigenvalue-minimisations  :    96
 total energy-change (2. order) : 0.1584534E+02  (-0.2026288E+03)
 number of electron       8.0000000 magnetization 
 augmentation part        8.0000000 magnetization 

 Free energy of the ion-electron system (eV)
  ---------------------------------------------------
  alpha Z        PSCENC =         0.23440060
  Ewald energy   TEWEN  =       127.03001498
  -Hartree energ DENC   =      -243.72411084
  -exchange      EXHF   =         0.00000000
  -V(xc)+E(xc)   XCENC  =        21.93549381
  PAW double counting   =       117.05815612     -117.66307307
  entropy T*S    EENTRO =         0.00605377
  eigenvalues    EBANDS =       -86.07334654
  atomic energy  EATOM  =       197.04175453
  Solvation  Ediel_sol  =         0.00000000
  ---------------------------------------------------
  free energy    TOTEN  =        15.84534336 eV

  energy without entropy =       15.83928958  energy(sigma->0) =       15.84332543


--------------------------------------------------------------------------------------------------------




--------------------------------------- Iteration      1(   2)  ---------------------------------------


     EDDAV:  cpu time    2.3826: real time    2.3883
       DOS:  cpu time    0.0002: real time    0.0002
    --------------------------------------------
      LOOP:  cpu time    2.3828: real time    2.3886

 eigenvalue-minimisations  :    80
 total energy-change (2. order) :-0.3839580E+02  (-0.3843938E+02)
 number of electron       8.0000000 magnetization 
 augmentation part        8.0000000 magnetization 

 Free energy of the ion-electron system (eV)
  ---------------------------------------------------
  alpha Z        PSCENC =         0.23440060
  Ewald energy   TEWEN  =       127.03001498
  -Hartree energ DENC   =      -243.72411084
  -exchange      EXHF   =         0.00000000
  -V(xc)+E(xc)   XCENC  =        21.93549381
  PAW double counting   =       117.05815612     -117.66307307
  entropy T*S    EENTRO =         0.00289895
  eigenvalues    EBANDS =      -124.46598872
  atomic energy  EATOM  =       197.04175453
  Solvation  Ediel_sol  =         0.00000000
  ---------------------------------------------------
  free energy    TOTEN  =       -22.55045364 eV

  energy without entropy =      -22.55335259  energy(sigma->0) =      -22.55141996


--------------------------------------------------------------------------------------------------------




--------------------------------------- Iteration      1(   3)  ---------------------------------------


     EDDAV:  cpu time    2.3083: real time    2.3138
       DOS:  cpu time    0.0002: real time    0.0002
    --------------------------------------------
      LOOP:  cpu time    2.3085: real time    2.3140

 eigenvalue-minimisations  :    80
 total energy-change (2. order) :-0.4624113E+01  (-0.4637606E+01)
 number of electron       8.0000000 magnetization 
 augmentation part        8.0000000 magnetization 

 Free energy of the ion-electron system (eV)
  ---------------------------------------------------
  alpha Z        PSCENC =         0.23440060
  Ewald energy   TEWEN  =       127.03001498
  -Hartree energ DENC   =      -243.72411084
  -exchange      EXHF   =         0.00000000
  -V(xc)+E(xc)   XCENC  =        21.93549381
  PAW double counting   =       117.05815612     -117.66307307
  entropy T*S    EENTRO =         0.02981221
  eigenvalues    EBANDS =      -129.11701538
  atomic energy  EATOM  =       197.04175453
  Solvation  Ediel_sol  =         0.00000000
  ---------------------------------------------------
  free energy    TOTEN  =       -27.17456704 eV

  energy without entropy =      -27.20437925  energy(sigma->0) =      -27.18450445


--------------------------------------------------------------------------------------------------------




--------------------------------------- Iteration      1(   4)  ---------------------------------------


     EDDAV:  cpu time    3.4787: real time    3.4870
       DOS:  cpu time    0.0002: real time    0.0002
    --------------------------------------------
      LOOP:  cpu time    3.4790: real time    3.4872

 eigenvalue-minimisations  :   128
 total energy-change (2. order) :-0.2054893E+00  (-0.2044716E+00)
 number of electron       8.0000000 magnetization 
 augmentation part        8.0000000 magnetization 

 Free energy of the ion-electron system (eV)
  ---------------------------------------------------
  alpha Z        PSCENC =         0.23440060
  Ewald energy   TEWEN  =       127.03001498
  -Hartree energ DENC   =      -243.72411084
  -exchange      EXHF   =         0.00000000
  -V(xc)+E(xc)   XCENC  =        21.93549381
  PAW double counting   =       117.05815612     -117.66307307
  entropy T*S    EENTRO =         0.02796861
  eigenvalues    EBANDS =      -129.32066106
  atomic energy  EATOM  =       197.04175453
  Solvation  Ediel_sol  =         0.00000000
  ---------------------------------------------------
  free energy    TOTEN  =       -27.38005632 eV

  energy without entropy =      -27.40802493  energy(sigma->0) =      -27.38937919


--------------------------------------------------------------------------------------------------------




--------------------------------------- Iteration      1(   5)  ---------------------------------------


     EDDAV:  cpu time    2.8763: real time    2.8830
       DOS:  cpu time    0.0002: real time    0.0002
    CHARGE:  cpu time    0.1826: real time    0.1830
    MIXING:  cpu time    0.0415: real time    0.0416
    --------------------------------------------
      LOOP:  cpu time    3.1006: real time    3.1079

 eigenvalue-minimisations  :   104
 total energy-change (2. order) :-0.9822616E-04  (-0.9822777E-04)
 number of electron       8.0000001 magnetization 
 augmentation part        0.2204806 magnetization 

 Broyden mixing:
  rms(total) = 0.84545E+00    rms(broyden)= 0.84524E+00
  rms(prec ) = 0.11968E+01
  weight for this iteration     100.00

 Free energy of the ion-electron system (eV)
  ---------------------------------------------------
  alpha Z        PSCENC =         0.23440060
  Ewald energy   TEWEN  =       127.03001498
  -Hartree energ DENC   =      -243.72411084
  -exchange      EXHF   =         0.00000000
  -V(xc)+E(xc)   XCENC  =        21.93549381
  PAW double counting   =       117.05815612     -117.66307307
  entropy T*S    EENTRO =         0.02796773
  eigenvalues    EBANDS =      -129.32075840
  atomic energy  EATOM  =       197.04175453
  Solvation  Ediel_sol  =         0.00000000
  ---------------------------------------------------
  free energy    TOTEN  =       -27.38015455 eV

  energy without entropy =      -27.40812228  energy(sigma->0) =      -27.38947712


--------------------------------------------------------------------------------------------------------




--------------------------------------- Iteration      1(   6)  ---------------------------------------


    POTLOK:  cpu time    1.7598: real time    1.7639
    SETDIJ:  cpu time    0.0065: real time    0.0066
    EDDIAG:  cpu time    0.4279: real time    0.4289
  RMM-DIIS:  cpu time    1.4194: real time    1.4227
    ORTHCH:  cpu time    0.0114: real time    0.0114
       DOS:  cpu time    0.0002: real time    0.0002
    CHARGE:  cpu time    0.1754: real time    0.1758
    MIXING:  cpu time    0.0418: real time    0.0419
    --------------------------------------------
      LOOP:  cpu time    3.8424: real time    3.8515

 eigenvalue-minimisations  :    64
 total energy-change (2. order) : 0.2747204E+01  (-0.5002176E+00)
 number of electron       8.0000000 magnetization 
 augmentation part        0.1943440 magnetization 

 Broyden mixing:
  rms(total) = 0.41308E+00    rms(broyden)= 0.41298E+00
  rms(prec ) = 0.53698E+00
  weight for this iteration     100.00

 eigenvalues of (default mixing * dielectric matrix)
  average eigenvalue GAMMA=   1.2898
  1.2898

 Free energy of the ion-electron system (eV)
  ---------------------------------------------------
  alpha Z        PSCENC =         0.23440060
  Ewald energy   TEWEN  =       127.03001498
  -Hartree energ DENC   =      -262.93797832
  -exchange      EXHF   =         0.00000000
  -V(xc)+E(xc)   XCENC  =        23.10231583
  PAW double counting   =       229.12262289     -229.89527917
  entropy T*S    EENTRO =         0.02918208
  eigenvalues    EBANDS =      -108.35998429
  atomic energy  EATOM  =       197.04175453
  Solvation  Ediel_sol  =         0.00000000
  ---------------------------------------------------
  free energy    TOTEN  =       -24.63295087 eV

  energy without entropy =      -24.66213295  energy(sigma->0) =      -24.64267823


--------------------------------------------------------------------------------------------------------




--------------------------------------- Iteration      1(   7)  ---------------------------------------


    POTLOK:  cpu time    1.7583: real time    1.7625
    SETDIJ:  cpu time    0.0064: real time    0.0064
    EDDIAG:  cpu time    0.4292: real time    0.4302
  RMM-DIIS:  cpu time    1.3661: real time    1.3693
    ORTHCH:  cpu time    0.0113: real time    0.0113
       DOS:  cpu time    0.0002: real time    0.0002
    CHARGE:  cpu time    0.1628: real time    0.1632
    MIXING:  cpu time    0.0410: real time    0.0411
    --------------------------------------------
      LOOP:  cpu time    3.7754: real time    3.7843

 eigenvalue-minimisations  :    64
 total energy-change (2. order) : 0.4644636E+00  (-0.1073259E+00)
 number of electron       8.0000000 magnetization 
 augmentation part        0.1844500 magnetization 

 Broyden mixing:
  rms(total) = 0.22112E+00    rms(broyden)= 0.22107E+00
  rms(prec ) = 0.26936E+00
  weight for this iteration     100.00

 eigenvalues of (default mixing * dielectric matrix)
  average eigenvalue GAMMA=   1.7589
  1.4407  2.0771

 Free energy of the ion-electron system (eV)
  ---------------------------------------------------
  alpha Z        PSCENC =         0.23440060
  Ewald energy   TEWEN  =       127.03001498
  -Hartree energ DENC   =      -274.06242464
  -exchange      EXHF   =         0.00000000
  -V(xc)+E(xc)   XCENC  =        23.92413150
  PAW double counting   =       340.82532668     -341.63314611
  entropy T*S    EENTRO =         0.03066325
  eigenvalues    EBANDS =       -97.55920803
  atomic energy  EATOM  =       197.04175453
  Solvation  Ediel_sol  =         0.00000000
  ---------------------------------------------------
  free energy    TOTEN  =       -24.16848724 eV

  energy without entropy =      -24.19915050  energy(sigma->0) =      -24.17870833


--------------------------------------------------------------------------------------------------------




--------------------------------------- Iteration      1(   8)  ---------------------------------------


    POTLOK:  cpu time    1.7665: real time    1.7707
    SETDIJ:  cpu time    0.0065: real time    0.0065
    EDDIAG:  cpu time    0.4329: real time    0.4339
  RMM-DIIS:  cpu time    1.3858: real time    1.3890
    ORTHCH:  cpu time    0.0115: real time    0.0115
       DOS:  cpu time    0.0002: real time    0.0002
    CHARGE:  cpu time    0.1710: real time    0.1714
    MIXING:  cpu time    0.0418: real time    0.0419
    --------------------------------------------
      LOOP:  cpu time    3.8162: real time    3.8252

 eigenvalue-minimisations  :    64
 total energy-change (2. order) : 0.1364465E+00  (-0.1422783E-01)
 number of electron       8.0000000 magnetization 
 augmentation part        0.1830930 magnetization 

 Broyden mixing:
  rms(total) = 0.66715E-01    rms(broyden)= 0.66627E-01
  rms(prec ) = 0.99246E-01
  weight for this iteration     100.00

 eigenvalues of (default mixing * dielectric matrix)
  average eigenvalue GAMMA=   1.4191
  2.2412  1.4293  0.5869

 Free energy of the ion-electron system (eV)
  ---------------------------------------------------
  alpha Z        PSCENC =         0.23440060
  Ewald energy   TEWEN  =       127.03001498
  -Hartree energ DENC   =      -279.09162488
  -exchange      EXHF   =         0.00000000
  -V(xc)+E(xc)   XCENC  =        24.41917305
  PAW double counting   =       429.27548885     -430.05519455
  entropy T*S    EENTRO =         0.03186074
  eigenvalues    EBANDS =       -92.91791406
  atomic energy  EATOM  =       197.04175453
  Solvation  Ediel_sol  =         0.00000000
  ---------------------------------------------------
  free energy    TOTEN  =       -24.03204076 eV

  energy without entropy =      -24.06390150  energy(sigma->0) =      -24.04266101


--------------------------------------------------------------------------------------------------------




--------------------------------------- Iteration      1(   9)  ---------------------------------------


    POTLOK:  cpu time    1.7609: real time    1.7650
    SETDIJ:  cpu time    0.0064: real time    0.0064
    EDDIAG:  cpu time    0.4292: real time    0.4303
  RMM-DIIS:  cpu time    1.4017: real time    1.4050
    ORTHCH:  cpu time    0.0116: real time    0.0117
       DOS:  cpu time    0.0002: real time    0.0002
    CHARGE:  cpu time    0.1661: real time    0.1665
    MIXING:  cpu time    0.0425: real time    0.0426
    --------------------------------------------
      LOOP:  cpu time    3.8187: real time    3.8277

 eigenvalue-minimisations  :    64
 total energy-change (2. order) : 0.1247603E-01  (-0.1539591E-02)
 number of electron       8.0000000 magnetization 
 augmentation part        0.1828019 magnetization 

 Broyden mixing:
  rms(total) = 0.22983E-01    rms(broyden)= 0.22866E-01
  rms(prec ) = 0.46521E-01
  weight for this iteration     100.00

 eigenvalues of (default mixing * dielectric matrix)
  average eigenvalue GAMMA=   1.2677
  2.1896  1.3982  0.9271  0.5560

 Free energy of the ion-electron system (eV)
  ---------------------------------------------------
  alpha Z        PSCENC =         0.23440060
  Ewald energy   TEWEN  =       127.03001498
  -Hartree energ DENC   =      -280.13236327
  -exchange      EXHF   =         0.00000000
  -V(xc)+E(xc)   XCENC  =        24.49740430
  PAW double counting   =       438.81967939     -439.59772625
  entropy T*S    EENTRO =         0.03132966
  eigenvalues    EBANDS =       -91.94405865
  atomic energy  EATOM  =       197.04175453
  Solvation  Ediel_sol  =         0.00000000
  ---------------------------------------------------
  free energy    TOTEN  =       -24.01956473 eV

  energy without entropy =      -24.05089439  energy(sigma->0) =      -24.03000795


--------------------------------------------------------------------------------------------------------




--------------------------------------- Iteration      1(  10)  ---------------------------------------


    POTLOK:  cpu time    1.7564: real time    1.7607
    SETDIJ:  cpu time    0.0064: real time    0.0064
    EDDIAG:  cpu time    0.4271: real time    0.4281
  RMM-DIIS:  cpu time    1.3830: real time    1.3863
    ORTHCH:  cpu time    0.0115: real time    0.0116
       DOS:  cpu time    0.0002: real time    0.0002
    CHARGE:  cpu time    0.1629: real time    0.1633
    MIXING:  cpu time    0.0431: real time    0.0432
    --------------------------------------------
      LOOP:  cpu time    3.7906: real time    3.7997

 eigenvalue-minimisations  :    64
 total energy-change (2. order) : 0.2256889E-02  (-0.6121876E-03)
 number of electron       8.0000000 magnetization 
 augmentation part        0.1821778 magnetization 

 Broyden mixing:
  rms(total) = 0.14499E-01    rms(broyden)= 0.14497E-01
  rms(prec ) = 0.32846E-01
  weight for this iteration     100.00

 eigenvalues of (default mixing * dielectric matrix)
  average eigenvalue GAMMA=   1.6344
  2.6740  2.6740  1.3004  0.9696  0.5541

 Free energy of the ion-electron system (eV)
  ---------------------------------------------------
  alpha Z        PSCENC =         0.23440060
  Ewald energy   TEWEN  =       127.03001498
  -Hartree energ DENC   =      -281.16313191
  -exchange      EXHF   =         0.00000000
  -V(xc)+E(xc)   XCENC  =        24.54105727
  PAW double counting   =       436.68282839     -437.46383030
  entropy T*S    EENTRO =         0.03135713
  eigenvalues    EBANDS =       -90.95175853
  atomic energy  EATOM  =       197.04175453
  Solvation  Ediel_sol  =         0.00000000
  ---------------------------------------------------
  free energy    TOTEN  =       -24.01730784 eV

  energy without entropy =      -24.04866497  energy(sigma->0) =      -24.02776021


--------------------------------------------------------------------------------------------------------




--------------------------------------- Iteration      1(  11)  ---------------------------------------


    POTLOK:  cpu time    1.6619: real time    1.6658
    SETDIJ:  cpu time    0.0064: real time    0.0064
    EDDIAG:  cpu time    0.4267: real time    0.4277
  RMM-DIIS:  cpu time    1.3924: real time    1.3957
    ORTHCH:  cpu time    0.0116: real time    0.0116
       DOS:  cpu time    0.0002: real time    0.0002
    CHARGE:  cpu time    0.1675: real time    0.1679
    MIXING:  cpu time    0.0437: real time    0.0438
    --------------------------------------------
      LOOP:  cpu time    3.7104: real time    3.7192

 eigenvalue-minimisations  :    64
 total energy-change (2. order) : 0.6247339E-02  (-0.7388801E-03)
 number of electron       8.0000000 magnetization 
 augmentation part        0.1817772 magnetization 

 Broyden mixing:
  rms(total) = 0.12959E-01    rms(broyden)= 0.12958E-01
  rms(prec ) = 0.19571E-01
  weight for this iteration     100.00

 eigenvalues of (default mixing * dielectric matrix)
  average eigenvalue GAMMA=   1.5922
  3.1623  2.3172  0.5545  1.2395  1.2395  1.0401

 Free energy of the ion-electron system (eV)
  ---------------------------------------------------
  alpha Z        PSCENC =         0.23440060
  Ewald energy   TEWEN  =       127.03001498
  -Hartree energ DENC   =      -282.73335570
  -exchange      EXHF   =         0.00000000
  -V(xc)+E(xc)   XCENC  =        24.59904675
  PAW double counting   =       428.59883111     -429.37869268
  entropy T*S    EENTRO =         0.03161122
  eigenvalues    EBANDS =       -89.43467130
  atomic energy  EATOM  =       197.04175453
  Solvation  Ediel_sol  =         0.00000000
  ---------------------------------------------------
  free energy    TOTEN  =       -24.01106050 eV

  energy without entropy =      -24.04267172  energy(sigma->0) =      -24.02159757


--------------------------------------------------------------------------------------------------------




--------------------------------------- Iteration      1(  12)  ---------------------------------------


    POTLOK:  cpu time    1.6410: real time    1.6449
    SETDIJ:  cpu time    0.0064: real time    0.0064
    EDDIAG:  cpu time    0.4362: real time    0.4373
  RMM-DIIS:  cpu time    1.3913: real time    1.3946
    ORTHCH:  cpu time    0.0112: real time    0.0113
       DOS:  cpu time    0.0002: real time    0.0002
    CHARGE:  cpu time    0.1665: real time    0.1669
    MIXING:  cpu time    0.0455: real time    0.0457
    --------------------------------------------
      LOOP:  cpu time    3.6985: real time    3.7072

 eigenvalue-minimisations  :    64
 total energy-change (2. order) :-0.2174081E-02  (-0.1355399E-03)
 number of electron       8.0000000 magnetization 
 augmentation part        0.1817961 magnetization 

 Broyden mixing:
  rms(total) = 0.52984E-02    rms(broyden)= 0.52967E-02
  rms(prec ) = 0.10937E-01
  weight for this iteration     100.00

 eigenvalues of (default mixing * dielectric matrix)
  average eigenvalue GAMMA=   1.8625
  3.9795  2.9985  2.1587  0.5544  1.2978  1.0243  1.0243

 Free energy of the ion-electron system (eV)
  ---------------------------------------------------
  alpha Z        PSCENC =         0.23440060
  Ewald energy   TEWEN  =       127.03001498
  -Hartree energ DENC   =      -282.94822784
  -exchange      EXHF   =         0.00000000
  -V(xc)+E(xc)   XCENC  =        24.61549030
  PAW double counting   =       432.19555965     -432.97232513
  entropy T*S    EENTRO =         0.03164597
  eigenvalues    EBANDS =       -89.24154763
  atomic energy  EATOM  =       197.04175453
  Solvation  Ediel_sol  =         0.00000000
  ---------------------------------------------------
  free energy    TOTEN  =       -24.01323458 eV

  energy without entropy =      -24.04488055  energy(sigma->0) =      -24.02378324


--------------------------------------------------------------------------------------------------------




--------------------------------------- Iteration      1(  13)  ---------------------------------------


    POTLOK:  cpu time    1.5365: real time    1.5401
    SETDIJ:  cpu time    0.0062: real time    0.0062
    EDDIAG:  cpu time    0.4182: real time    0.4192
  RMM-DIIS:  cpu time    1.3903: real time    1.3936
    ORTHCH:  cpu time    0.0117: real time    0.0117
       DOS:  cpu time    0.0002: real time    0.0002
    CHARGE:  cpu time    0.1595: real time    0.1599
    MIXING:  cpu time    0.0463: real time    0.0464
    --------------------------------------------
      LOOP:  cpu time    3.5689: real time    3.5774

 eigenvalue-minimisations  :    64
 total energy-change (2. order) :-0.7804032E-02  (-0.1583079E-03)
 number of electron       8.0000000 magnetization 
 augmentation part        0.1818744 magnetization 

 Broyden mixing:
  rms(total) = 0.35418E-02    rms(broyden)= 0.35412E-02
  rms(prec ) = 0.60554E-02
  weight for this iteration     100.00

 eigenvalues of (default mixing * dielectric matrix)
  average eigenvalue GAMMA=   1.8627
  4.7502  2.8824  2.2067  0.5545  1.2717  1.2717  0.9821  0.9821

 Free energy of the ion-electron system (eV)
  ---------------------------------------------------
  alpha Z        PSCENC =         0.23440060
  Ewald energy   TEWEN  =       127.03001498
  -Hartree energ DENC   =      -283.01912994
  -exchange      EXHF   =         0.00000000
  -V(xc)+E(xc)   XCENC  =        24.59935594
  PAW double counting   =       428.54709407     -429.32389489
  entropy T*S    EENTRO =         0.03154421
  eigenvalues    EBANDS =       -89.16217811
  atomic energy  EATOM  =       197.04175453
  Solvation  Ediel_sol  =         0.00000000
  ---------------------------------------------------
  free energy    TOTEN  =       -24.02103861 eV

  energy without entropy =      -24.05258282  energy(sigma->0) =      -24.03155335


--------------------------------------------------------------------------------------------------------




--------------------------------------- Iteration      1(  14)  ---------------------------------------


    POTLOK:  cpu time    1.5280: real time    1.5317
    SETDIJ:  cpu time    0.0064: real time    0.0064
    EDDIAG:  cpu time    0.4203: real time    0.4213
  RMM-DIIS:  cpu time    1.3689: real time    1.3721
    ORTHCH:  cpu time    0.0116: real time    0.0117
       DOS:  cpu time    0.0002: real time    0.0002
    CHARGE:  cpu time    0.1708: real time    0.1712
    MIXING:  cpu time    0.0473: real time    0.0474
    --------------------------------------------
      LOOP:  cpu time    3.5535: real time    3.5619

 eigenvalue-minimisations  :    64
 total energy-change (2. order) :-0.1343029E-02  (-0.4594817E-04)
 number of electron       8.0000000 magnetization 
 augmentation part        0.1817254 magnetization 

 Broyden mixing:
  rms(total) = 0.15383E-02    rms(broyden)= 0.15377E-02
  rms(prec ) = 0.33076E-02
  weight for this iteration     100.00

 eigenvalues of (default mixing * dielectric matrix)
  average eigenvalue GAMMA=   2.1475
  6.0460  3.6419  2.4696  2.0796  0.5545  1.2757  1.2757  0.9924  0.9924

 Free energy of the ion-electron system (eV)
  ---------------------------------------------------
  alpha Z        PSCENC =         0.23440060
  Ewald energy   TEWEN  =       127.03001498
  -Hartree energ DENC   =      -283.19229582
  -exchange      EXHF   =         0.00000000
  -V(xc)+E(xc)   XCENC  =        24.60620602
  PAW double counting   =       429.30504853     -430.08283341
  entropy T*S    EENTRO =         0.03155028
  eigenvalues    EBANDS =       -88.99622735
  atomic energy  EATOM  =       197.04175453
  Solvation  Ediel_sol  =         0.00000000
  ---------------------------------------------------
  free energy    TOTEN  =       -24.02238164 eV

  energy without entropy =      -24.05393192  energy(sigma->0) =      -24.03289840


--------------------------------------------------------------------------------------------------------




--------------------------------------- Iteration      1(  15)  ---------------------------------------


    POTLOK:  cpu time    1.4988: real time    1.5024
    SETDIJ:  cpu time    0.0064: real time    0.0064
    EDDIAG:  cpu time    0.4096: real time    0.4106
  RMM-DIIS:  cpu time    1.4873: real time    1.4917
    ORTHCH:  cpu time    0.0112: real time    0.0112
       DOS:  cpu time    0.0002: real time    0.0002
    CHARGE:  cpu time    0.1724: real time    0.1728
    MIXING:  cpu time    0.0482: real time    0.0483
    --------------------------------------------
      LOOP:  cpu time    3.6340: real time    3.6436

 eigenvalue-minimisations  :    64
 total energy-change (2. order) :-0.2178282E-02  (-0.4219855E-04)
 number of electron       8.0000000 magnetization 
 augmentation part        0.1817201 magnetization 

 Broyden mixing:
  rms(total) = 0.90050E-03    rms(broyden)= 0.90043E-03
  rms(prec ) = 0.14473E-02
  weight for this iteration     100.00

 eigenvalues of (default mixing * dielectric matrix)
  average eigenvalue GAMMA=   2.1512
  6.4614  4.0947  2.5984  2.2883  0.5545  1.2229  1.2229  1.0546  1.0546  0.9593

 Free energy of the ion-electron system (eV)
  ---------------------------------------------------
  alpha Z        PSCENC =         0.23440060
  Ewald energy   TEWEN  =       127.03001498
  -Hartree energ DENC   =      -283.17322896
  -exchange      EXHF   =         0.00000000
  -V(xc)+E(xc)   XCENC  =        24.60184314
  PAW double counting   =       430.32728988     -431.10461787
  entropy T*S    EENTRO =         0.03156175
  eigenvalues    EBANDS =       -89.01357796
  atomic energy  EATOM  =       197.04175453
  Solvation  Ediel_sol  =         0.00000000
  ---------------------------------------------------
  free energy    TOTEN  =       -24.02455992 eV

  energy without entropy =      -24.05612167  energy(sigma->0) =      -24.03508050


--------------------------------------------------------------------------------------------------------




--------------------------------------- Iteration      1(  16)  ---------------------------------------


    POTLOK:  cpu time    1.4922: real time    1.4957
    SETDIJ:  cpu time    0.0062: real time    0.0062
    EDDIAG:  cpu time    0.4189: real time    0.4199
  RMM-DIIS:  cpu time    1.4725: real time    1.4761
    ORTHCH:  cpu time    0.0125: real time    0.0125
       DOS:  cpu time    0.0002: real time    0.0002
    CHARGE:  cpu time    0.1644: real time    0.1648
    MIXING:  cpu time    0.0489: real time    0.0490
    --------------------------------------------
      LOOP:  cpu time    3.6158: real time    3.6245

 eigenvalue-minimisations  :    60
 total energy-change (2. order) :-0.3321037E-03  (-0.4344253E-05)
 number of electron       8.0000000 magnetization 
 augmentation part        0.1817001 magnetization 

 Broyden mixing:
  rms(total) = 0.45077E-03    rms(broyden)= 0.45064E-03
  rms(prec ) = 0.78854E-03
  weight for this iteration     100.00

 eigenvalues of (default mixing * dielectric matrix)
  average eigenvalue GAMMA=   2.2981
  7.2752  4.6111  2.8552  2.4585  2.1282  0.5545  1.2300  1.2300  1.0278  1.0278
  0.8807

 Free energy of the ion-electron system (eV)
  ---------------------------------------------------
  alpha Z        PSCENC =         0.23440060
  Ewald energy   TEWEN  =       127.03001498
  -Hartree energ DENC   =      -283.17206640
  -exchange      EXHF   =         0.00000000
  -V(xc)+E(xc)   XCENC  =        24.60074064
  PAW double counting   =       430.05548483     -430.83292867
  entropy T*S    EENTRO =         0.03156295
  eigenvalues    EBANDS =       -89.01385549
  atomic energy  EATOM  =       197.04175453
  Solvation  Ediel_sol  =         0.00000000
  ---------------------------------------------------
  free energy    TOTEN  =       -24.02489202 eV

  energy without entropy =      -24.05645497  energy(sigma->0) =      -24.03541301


--------------------------------------------------------------------------------------------------------




--------------------------------------- Iteration      1(  17)  ---------------------------------------


    POTLOK:  cpu time    1.6217: real time    1.6255
    SETDIJ:  cpu time    0.0058: real time    0.0058
    EDDIAG:  cpu time    0.3897: real time    0.3906
  RMM-DIIS:  cpu time    1.2747: real time    1.2778
    ORTHCH:  cpu time    0.0232: real time    0.0233
       DOS:  cpu time    0.0004: real time    0.0004
    CHARGE:  cpu time    0.1906: real time    0.1910
    MIXING:  cpu time    0.0532: real time    0.0533
    --------------------------------------------
      LOOP:  cpu time    3.5593: real time    3.5677

 eigenvalue-minimisations  :    60
 total energy-change (2. order) :-0.1913999E-03  (-0.1081907E-05)
 number of electron       8.0000000 magnetization 
 augmentation part        0.1816996 magnetization 

 Broyden mixing:
  rms(total) = 0.19585E-03    rms(broyden)= 0.19579E-03
  rms(prec ) = 0.29341E-03
  weight for this iteration     100.00

 eigenvalues of (default mixing * dielectric matrix)
  average eigenvalue GAMMA=   2.4056
  8.2228  4.9613  3.4486  2.5193  2.2212  0.5545  1.5037  1.1945  1.1945  1.1372
  0.9888  0.9210

 Free energy of the ion-electron system (eV)
  ---------------------------------------------------
  alpha Z        PSCENC =         0.23440060
  Ewald energy   TEWEN  =       127.03001498
  -Hartree energ DENC   =      -283.16875512
  -exchange      EXHF   =         0.00000000
  -V(xc)+E(xc)   XCENC  =        24.60040186
  PAW double counting   =       429.76972125     -430.54713364
  entropy T*S    EENTRO =         0.03155837
  eigenvalues    EBANDS =       -89.01704625
  atomic energy  EATOM  =       197.04175453
  Solvation  Ediel_sol  =         0.00000000
  ---------------------------------------------------
  free energy    TOTEN  =       -24.02508342 eV

  energy without entropy =      -24.05664179  energy(sigma->0) =      -24.03560288


--------------------------------------------------------------------------------------------------------




--------------------------------------- Iteration      1(  18)  ---------------------------------------


    POTLOK:  cpu time    1.6373: real time    1.6412
    SETDIJ:  cpu time    0.0065: real time    0.0065
    EDDIAG:  cpu time    0.3798: real time    0.3807
  RMM-DIIS:  cpu time    1.0417: real time    1.0442
    ORTHCH:  cpu time    0.0118: real time    0.0118
       DOS:  cpu time    0.0002: real time    0.0002
    CHARGE:  cpu time    0.1847: real time    0.1851
    MIXING:  cpu time    0.0525: real time    0.0526
    --------------------------------------------
      LOOP:  cpu time    3.3143: real time    3.3222

 eigenvalue-minimisations  :    48
 total energy-change (2. order) :-0.3619746E-04  (-0.1324207E-06)
 number of electron       8.0000000 magnetization 
 augmentation part        0.1817003 magnetization 

 Broyden mixing:
  rms(total) = 0.10660E-03    rms(broyden)= 0.10653E-03
  rms(prec ) = 0.14871E-03
  weight for this iteration     100.00

 eigenvalues of (default mixing * dielectric matrix)
  average eigenvalue GAMMA=   2.4252
  8.4309  5.3207  3.3833  2.7924  2.2218  2.1145  0.5545  1.2164  1.2164  1.2710
  1.0812  1.0054  0.9194

 Free energy of the ion-electron system (eV)
  ---------------------------------------------------
  alpha Z        PSCENC =         0.23440060
  Ewald energy   TEWEN  =       127.03001498
  -Hartree energ DENC   =      -283.17224466
  -exchange      EXHF   =         0.00000000
  -V(xc)+E(xc)   XCENC  =        24.60052568
  PAW double counting   =       429.76919078     -430.54659857
  entropy T*S    EENTRO =         0.03156363
  eigenvalues    EBANDS =       -89.01372660
  atomic energy  EATOM  =       197.04175453
  Solvation  Ediel_sol  =         0.00000000
  ---------------------------------------------------
  free energy    TOTEN  =       -24.02511962 eV

  energy without entropy =      -24.05668326  energy(sigma->0) =      -24.03564083


--------------------------------------------------------------------------------------------------------




--------------------------------------- Iteration      1(  19)  ---------------------------------------


    POTLOK:  cpu time    1.7410: real time    1.7459
    SETDIJ:  cpu time    0.0057: real time    0.0058
    EDDIAG:  cpu time    0.4337: real time    0.4348
  RMM-DIIS:  cpu time    1.1089: real time    1.1115
    ORTHCH:  cpu time    0.0113: real time    0.0114
       DOS:  cpu time    0.0002: real time    0.0002
    CHARGE:  cpu time    0.1791: real time    0.1795
    MIXING:  cpu time    0.0516: real time    0.0517
    --------------------------------------------
      LOOP:  cpu time    3.5316: real time    3.5406

 eigenvalue-minimisations  :    48
 total energy-change (2. order) :-0.1081920E-04  (-0.6088142E-07)
 number of electron       8.0000000 magnetization 
 augmentation part        0.1817022 magnetization 

 Broyden mixing:
  rms(total) = 0.63748E-04    rms(broyden)= 0.63627E-04
  rms(prec ) = 0.92613E-04
  weight for this iteration     100.00

 eigenvalues of (default mixing * dielectric matrix)
  average eigenvalue GAMMA=   2.4396
  8.6006  5.4663  3.9072  2.6238  2.6238  2.2230  1.7183  0.5545  1.2132  1.2132
  1.0977  0.9089  1.0017  1.0017

 Free energy of the ion-electron system (eV)
  ---------------------------------------------------
  alpha Z        PSCENC =         0.23440060
  Ewald energy   TEWEN  =       127.03001498
  -Hartree energ DENC   =      -283.16935370
  -exchange      EXHF   =         0.00000000
  -V(xc)+E(xc)   XCENC  =        24.60034582
  PAW double counting   =       429.81472242     -430.59212240
  entropy T*S    EENTRO =         0.03156202
  eigenvalues    EBANDS =       -89.01645470
  atomic energy  EATOM  =       197.04175453
  Solvation  Ediel_sol  =         0.00000000
  ---------------------------------------------------
  free energy    TOTEN  =       -24.02513044 eV

  energy without entropy =      -24.05669246  energy(sigma->0) =      -24.03565111


--------------------------------------------------------------------------------------------------------




--------------------------------------- Iteration      1(  20)  ---------------------------------------


    POTLOK:  cpu time    1.7221: real time    1.7262
    SETDIJ:  cpu time    0.0065: real time    0.0065
    EDDIAG:  cpu time    0.4238: real time    0.4248
  RMM-DIIS:  cpu time    1.0474: real time    1.0499
    ORTHCH:  cpu time    0.0112: real time    0.0112
       DOS:  cpu time    0.0002: real time    0.0002
    CHARGE:  cpu time    0.1661: real time    0.1665
    MIXING:  cpu time    0.0534: real time    0.0535
    --------------------------------------------
      LOOP:  cpu time    3.4307: real time    3.4388

 eigenvalue-minimisations  :    44
 total energy-change (2. order) :-0.2909370E-05  (-0.1400337E-07)
 number of electron       8.0000000 magnetization 
 augmentation part        0.1817026 magnetization 

 Broyden mixing:
  rms(total) = 0.25504E-04    rms(broyden)= 0.25390E-04
  rms(prec ) = 0.38831E-04
  weight for this iteration     100.00

 eigenvalues of (default mixing * dielectric matrix)
  average eigenvalue GAMMA=   2.4069
  8.6129  5.4929  4.1691  2.7946  2.7002  2.0868  0.5545  1.7622  1.5710  1.2195
  1.2195  1.0858  1.0020  0.9321  0.9008

 Free energy of the ion-electron system (eV)
  ---------------------------------------------------
  alpha Z        PSCENC =         0.23440060
  Ewald energy   TEWEN  =       127.03001498
  -Hartree energ DENC   =      -283.17170213
  -exchange      EXHF   =         0.00000000
  -V(xc)+E(xc)   XCENC  =        24.60044792
  PAW double counting   =       429.82380809     -430.60121166
  entropy T*S    EENTRO =         0.03156192
  eigenvalues    EBANDS =       -89.01420759
  atomic energy  EATOM  =       197.04175453
  Solvation  Ediel_sol  =         0.00000000
  ---------------------------------------------------
  free energy    TOTEN  =       -24.02513335 eV

  energy without entropy =      -24.05669527  energy(sigma->0) =      -24.03565399


--------------------------------------------------------------------------------------------------------




--------------------------------------- Iteration      1(  21)  ---------------------------------------


    POTLOK:  cpu time    1.7766: real time    1.7808
    SETDIJ:  cpu time    0.0064: real time    0.0064
    EDDIAG:  cpu time    0.4212: real time    0.4222
  RMM-DIIS:  cpu time    1.0182: real time    1.0206
    ORTHCH:  cpu time    0.0114: real time    0.0114
       DOS:  cpu time    0.0002: real time    0.0002
    --------------------------------------------
      LOOP:  cpu time    3.2340: real time    3.2416

 eigenvalue-minimisations  :    32
 total energy-change (2. order) :-0.8302733E-06  ( 0.0000000E+00)
 number of electron       8.0000000 magnetization 
 augmentation part        0.1817026 magnetization 

 Free energy of the ion-electron system (eV)
  ---------------------------------------------------
  alpha Z        PSCENC =         0.23440060
  Ewald energy   TEWEN  =       127.03001498
  -Hartree energ DENC   =      -283.17264174
  -exchange      EXHF   =         0.00000000
  -V(xc)+E(xc)   XCENC  =        24.60050009
  PAW double counting   =       429.82820346     -430.60561334
  entropy T*S    EENTRO =         0.03156147
  eigenvalues    EBANDS =       -89.01331422
  atomic energy  EATOM  =       197.04175453
  Solvation  Ediel_sol  =         0.00000000
  ---------------------------------------------------
  free energy    TOTEN  =       -24.02513418 eV

  energy without entropy =      -24.05669565  energy(sigma->0) =      -24.03565467


--------------------------------------------------------------------------------------------------------




 average (electrostatic) potential at core
  the test charge radii are     0.5201  0.6991
  (the norm of the test charge is              1.0000)
       1 -41.4764       2 -41.3726       3 -41.3859       4 -41.4135       5 -58.0407



 E-fermi :  -9.0080     XC(G=0):  -0.6873     alpha+bet : -0.2038


 k-point     1 :       0.2500    0.2500    0.2500
  band No.  band energies     occupation 
      1     -16.7942      2.00000
      2      -9.3638      2.03050
      3      -9.1900      2.02615
      4      -9.1551      1.94349
      5      -0.3345      0.00000
      6       0.5292      0.00000
      7       0.6414      0.00000
      8       0.6734      0.00000

 k-point     2 :      -0.2500    0.2500    0.2500
  band No.  band energies     occupation 
      1     -16.7943      2.00000
      2      -9.3638      2.03050
      3      -9.1900      2.02618
      4      -9.1551      1.94330
      5      -0.3366      0.00000
      6       0.5303      0.00000
      7       0.6473      0.00000
      8       0.6774      0.00000

 k-point     3 :       0.2500   -0.2500    0.2500
  band No.  band energies     occupation 
      1     -16.7942      2.00000
      2      -9.3636      2.03056
      3      -9.1898      2.02596
      4      -9.1550      1.94323
      5      -0.3421      0.00000
      6       0.5393      0.00000
      7       0.6675      0.00000
      8       0.6904      0.00000

 k-point     4 :      -0.2500   -0.2500    0.2500
  band No.  band energies     occupation 
      1     -16.7943      2.00000
      2      -9.3638      2.03051
      3      -9.1900      2.02624
      4      -9.1551      1.94337
      5      -0.3382      0.00000
      6       0.5373      0.00000
      7       0.6471      0.00000
      8       0.6854      0.00000


--------------------------------------------------------------------------------------------------------


 soft charge-density along one line, spin component           1
         0         1         2         3         4         5         6         7         8         9
 total charge-density along one line

 pseudopotential strength for first ion, spin component:           1
 -2.341  -4.033  -0.001  -0.002   0.001
 -4.033  -6.864  -0.003  -0.004   0.002
 -0.001  -0.003  -0.337   0.002  -0.001
 -0.002  -0.004   0.002  -0.336  -0.001
  0.001   0.002  -0.001  -0.001  -0.338
 total augmentation occupancy for first ion, spin component:           1
  3.351  -0.568   0.233   0.375  -0.182
 -0.568   0.110  -0.041  -0.065   0.031
  0.233  -0.041   0.022   0.022  -0.011
  0.375  -0.065   0.022   0.046  -0.019
 -0.182   0.031  -0.011  -0.019   0.018


------------------------ aborting loop because EDIFF is reached ----------------------------------------


    CHARGE:  cpu time    0.1701: real time    0.1705
    FORLOC:  cpu time    0.1174: real time    0.1177
    FORNL :  cpu time    0.5991: real time    0.6005
    STRESS:  cpu time    2.2052: real time    2.2105
    FORCOR:  cpu time    1.8117: real time    1.8160
    FORHAR:  cpu time    0.6022: real time    0.6036
    MIXING:  cpu time    0.0925: real time    0.0928
    OFIELD:  cpu time    0.0000: real time    0.0000

  FORCE on cell =-STRESS in cart. coord.  units (eV):
  Direction    XX          YY          ZZ          XY          YZ          ZX
  --------------------------------------------------------------------------------------
  Alpha Z     0.23440     0.23440     0.23440
  Ewald      42.08325    43.43349    41.51325    -1.41859    -0.86771    -0.38973
  Hartree    94.64932    93.58372    94.93948    -0.65011    -0.79767    -0.12365
  E(xc)     -27.06023   -27.04408   -27.06984    -0.00749    -0.00636    -0.00104
  Local    -195.84113  -195.67625  -195.47589     1.92693     1.79586     0.66101
  n-local   -15.36889   -14.43912   -14.63987    -0.17561    -0.12420     0.37325
  augment     0.12820     0.12350     0.12520     0.00000    -0.00203    -0.00127
  Kinetic   100.43980   100.04135   100.13820     0.22127     0.13514    -0.60591
  Fock        0.00000     0.00000     0.00000     0.00000     0.00000     0.00000
  -------------------------------------------------------------------------------------
  Total      -0.73529     0.25701    -0.23506    -0.10360     0.13302    -0.08734
  in kB      -1.13989     0.39844    -0.36441    -0.16061     0.20622    -0.13539
  external pressure =       -0.37 kB  Pullay stress =        0.00 kB

  kinetic pressure (ideal gas correction) =      0.03 kB
  total pressure  =     -0.34 kB
  Total+kin.    -1.108       0.424      -0.341      -0.170       0.218      -0.153

 VOLUME and BASIS-vectors are now :
 -----------------------------------------------------------------------------
  energy-cutoff  :      400.00
  volume of cell :     1033.49
      direct lattice vectors                 reciprocal lattice vectors
    10.084706258  0.000000000  0.000000000     0.099160052  0.001745896 -0.000607890
    -0.180480839 10.250606587  0.000000000    -0.000000000  0.097555202  0.002688154
     0.066139308 -0.275484617  9.997552102     0.000000000 -0.000000000  0.100024485

  length of vectors
    10.084706258 10.252195313 10.001565588     0.099177284  0.097592232  0.100024485


 FORCES acting on ions
    electron-ion (+dipol)            ewald-force                    non-local-force                 convergence-correction
 -----------------------------------------------------------------------------------------------
   -.169E+02 0.288E+02 0.405E+02   0.187E+02 -.317E+02 -.446E+02   -.196E+01 0.274E+01 0.393E+01   -.499E-06 -.206E-04 -.268E-05
   0.515E+02 -.599E+01 0.312E+01   -.562E+02 0.651E+01 -.327E+01   0.544E+01 0.286E-01 0.112E+01   -.179E-04 0.111E-04 -.366E-05
   -.224E+02 -.474E+02 0.864E+00   0.246E+02 0.520E+02 -.100E+01   -.240E+01 -.496E+01 0.194E+00   0.308E-05 0.308E-04 0.173E-04
   -.121E+02 0.252E+02 -.431E+02   0.130E+02 -.274E+02 0.468E+02   -.119E+01 0.269E+01 -.395E+01   0.113E-04 -.168E-05 0.529E-05
   -.383E-02 -.328E+00 -.190E+01   -.443E-01 0.499E+00 0.205E+01   -.168E+01 0.520E+00 -.286E+00   -.978E-04 0.153E-03 0.702E-04
 -----------------------------------------------------------------------------------------------
   0.880E-01 0.308E+00 -.557E+00   0.178E-14 0.000E+00 0.000E+00   -.179E+01 0.101E+01 0.101E+01   -.102E-03 0.173E-03 0.865E-04


 POSITION                                       TOTAL-FORCE (eV/Angst)
 -----------------------------------------------------------------------------------
      5.38091      4.06959      3.60078        -0.170021     -0.146729     -0.115826
      3.92124      4.80289      4.38362         0.653503      0.548656      0.969714
      5.49478      5.67294      4.42737        -0.188161     -0.326010      0.058146
      5.28664      4.11962      5.39030        -0.269325      0.555447     -0.313446
      5.02480      4.67514      4.44865        -1.723926      0.690859     -0.143414
 -----------------------------------------------------------------------------------
    total drift:                               -1.697931      1.322223      0.455174


--------------------------------------------------------------------------------------------------------



  FREE ENERGIE OF THE ION-ELECTRON SYSTEM (eV)
  ---------------------------------------------------
  free  energy   TOTEN  =       -24.02513418 eV

  energy  without entropy=      -24.05669565  energy(sigma->0) =      -24.03565467



--------------------------------------------------------------------------------------------------------


    POTLOK:  cpu time    1.7785: real time    1.7827


--------------------------------------------------------------------------------------------------------


           RANDOM_SEED =         578496021                0                0
           RANDOM_SEED =         578496021               30                0
   IONSTEP:  cpu time    0.0017: real time    0.0019

  ENERGY OF THE ELECTRON-ION-THERMOSTAT SYSTEM (eV)
  ---------------------------------------------------
% ion-electron   TOTEN  =       -24.025134  see above
  kinetic energy EKIN   =         0.047386
  kin. lattice  EKIN_LAT=         0.000000  (temperature   91.65 K)
  nose potential ES     =         0.000000
  nose kinetic   EPS    =         0.000056
  ---------------------------------------------------
  total energy   ETOTAL =       -23.977692 eV

  maximum distance moved by ions :      0.59E-02


 mean value of Nose-termostat <S>:     1.010 mean value of <T> :    91.648
 mean temperature <T/S>/<1/S>  :    91.648

    WAVPRE:  cpu time    0.4665: real time    0.4731
    FEWALD:  cpu time    0.0003: real time    0.0003
    ORTHCH:  cpu time    0.2130: real time    0.2135
     LOOP+:  cpu time   81.8005: real time   82.0035


--------------------------------------- Iteration      2(   1)  ---------------------------------------


    POTLOK:  cpu time    1.8647: real time    1.8781
    SETDIJ:  cpu time    0.0062: real time    0.0063
     EDDAV:  cpu time    1.9476: real time    1.9522
       DOS:  cpu time    0.0003: real time    0.0003
    CHARGE:  cpu time    0.1885: real time    0.1889
    MIXING:  cpu time    0.0440: real time    0.0441
    --------------------------------------------
      LOOP:  cpu time    4.0514: real time    4.0699

 eigenvalue-minimisations  :    64
 total energy-change (2. order) : 0.2667489E-01  (-0.2551659E+00)
 number of electron       8.0000000 magnetization 
 augmentation part        0.1842597 magnetization 

 Broyden mixing:
  rms(total) = 0.58568E-01    rms(broyden)= 0.58496E-01
  rms(prec ) = 0.68878E-01
  weight for this iteration     100.00

 Free energy of the ion-electron system (eV)
  ---------------------------------------------------
  alpha Z        PSCENC =         0.23440060
  Ewald energy   TEWEN  =       129.11251527
  -Hartree energ DENC   =      -284.34500205
  -exchange      EXHF   =         0.00000000
  -V(xc)+E(xc)   XCENC  =        24.65977500
  PAW double counting   =       429.82210875     -430.59952572
  entropy T*S    EENTRO =         0.01678877
  eigenvalues    EBANDS =       -89.94127361
  atomic energy  EATOM  =       197.04175453
  Solvation  Ediel_sol  =         0.00000000
  ---------------------------------------------------
  free energy    TOTEN  =       -23.99845846 eV

  energy without entropy =      -24.01524723  energy(sigma->0) =      -24.00405472


--------------------------------------------------------------------------------------------------------




--------------------------------------- Iteration      2(   2)  ---------------------------------------


    POTLOK:  cpu time    1.6217: real time    1.6256
    SETDIJ:  cpu time    0.0066: real time    0.0067
    EDDIAG:  cpu time    0.4246: real time    0.4256
  RMM-DIIS:  cpu time    1.4070: real time    1.4104
    ORTHCH:  cpu time    0.0117: real time    0.0117
       DOS:  cpu time    0.0002: real time    0.0002
    CHARGE:  cpu time    0.1672: real time    0.1676
    MIXING:  cpu time    0.0578: real time    0.0579
    --------------------------------------------
      LOOP:  cpu time    3.6969: real time    3.7056

 eigenvalue-minimisations  :    64
 total energy-change (2. order) :-0.7550274E-03  (-0.7481420E-02)
 number of electron       8.0000000 magnetization 
 augmentation part        0.1848520 magnetization 

 Broyden mixing:
  rms(total) = 0.51286E-01    rms(broyden)= 0.51277E-01
  rms(prec ) = 0.62116E-01
  weight for this iteration     100.00

 eigenvalues of (default mixing * dielectric matrix)
  average eigenvalue GAMMA=   2.4052
  8.6762  5.5708  4.4331  3.3628  2.5903  2.5903  2.2137  0.5545  1.8382  1.6555
  1.2092  1.2092  1.1086  1.0195  1.0195  0.9493  0.8882

 Free energy of the ion-electron system (eV)
  ---------------------------------------------------
  alpha Z        PSCENC =         0.23440060
  Ewald energy   TEWEN  =       129.11251527
  -Hartree energ DENC   =      -284.53204159
  -exchange      EXHF   =         0.00000000
  -V(xc)+E(xc)   XCENC  =        24.68481049
  PAW double counting   =       443.21396968     -443.98819901
  entropy T*S    EENTRO =         0.01634336
  eigenvalues    EBANDS =       -89.78276682
  atomic energy  EATOM  =       197.04175453
  Solvation  Ediel_sol  =         0.00000000
  ---------------------------------------------------
  free energy    TOTEN  =       -23.99921349 eV

  energy without entropy =      -24.01555685  energy(sigma->0) =      -24.00466127


--------------------------------------------------------------------------------------------------------




--------------------------------------- Iteration      2(   3)  ---------------------------------------


    POTLOK:  cpu time    1.6265: real time    1.6303
    SETDIJ:  cpu time    0.0065: real time    0.0066
    EDDIAG:  cpu time    0.4263: real time    0.4273
  RMM-DIIS:  cpu time    1.3680: real time    1.3712
    ORTHCH:  cpu time    0.0115: real time    0.0116
       DOS:  cpu time    0.0002: real time    0.0002
    CHARGE:  cpu time    0.1685: real time    0.1689
    MIXING:  cpu time    0.0580: real time    0.0582
    --------------------------------------------
      LOOP:  cpu time    3.6657: real time    3.6743

 eigenvalue-minimisations  :    64
 total energy-change (2. order) : 0.2143922E-02  (-0.3196588E-02)
 number of electron       8.0000000 magnetization 
 augmentation part        0.1837346 magnetization 

 Broyden mixing:
  rms(total) = 0.16577E-01    rms(broyden)= 0.16570E-01
  rms(prec ) = 0.21036E-01
  weight for this iteration     100.00

 eigenvalues of (default mixing * dielectric matrix)
  average eigenvalue GAMMA=   2.3609
  8.6779  5.5694  4.4394  3.3754  2.5997  2.5997  2.3852  2.2254  0.5545  1.6535
  1.2093  1.2093  1.1062  0.8879  0.9502  1.0182  1.0182  1.0161

 Free energy of the ion-electron system (eV)
  ---------------------------------------------------
  alpha Z        PSCENC =         0.23440060
  Ewald energy   TEWEN  =       129.11251527
  -Hartree energ DENC   =      -285.33131537
  -exchange      EXHF   =         0.00000000
  -V(xc)+E(xc)   XCENC  =        24.71494229
  PAW double counting   =       440.87519510     -441.66214219
  entropy T*S    EENTRO =         0.01579807
  eigenvalues    EBANDS =       -88.99821787
  atomic energy  EATOM  =       197.04175453
  Solvation  Ediel_sol  =         0.00000000
  ---------------------------------------------------
  free energy    TOTEN  =       -23.99706956 eV

  energy without entropy =      -24.01286764  energy(sigma->0) =      -24.00233559


--------------------------------------------------------------------------------------------------------




--------------------------------------- Iteration      2(   4)  ---------------------------------------


    POTLOK:  cpu time    1.5857: real time    1.5894
    SETDIJ:  cpu time    0.0121: real time    0.0121
    EDDIAG:  cpu time    0.4415: real time    0.4426
  RMM-DIIS:  cpu time    1.4006: real time    1.4040
    ORTHCH:  cpu time    0.0116: real time    0.0117
       DOS:  cpu time    0.0002: real time    0.0002
    CHARGE:  cpu time    0.1749: real time    0.1753
    MIXING:  cpu time    0.0598: real time    0.0599
    --------------------------------------------
      LOOP:  cpu time    3.6865: real time    3.6952

 eigenvalue-minimisations  :    64
 total energy-change (2. order) :-0.2164211E-02  (-0.2083114E-03)
 number of electron       8.0000000 magnetization 
 augmentation part        0.1836296 magnetization 

 Broyden mixing:
  rms(total) = 0.14117E-01    rms(broyden)= 0.14115E-01
  rms(prec ) = 0.18231E-01
  weight for this iteration     100.00

 eigenvalues of (default mixing * dielectric matrix)
  average eigenvalue GAMMA=   2.3394
  8.6788  5.5665  4.4545  3.3749  2.6136  2.6136  2.4723  2.2178  0.5545  1.7504
  1.7504  1.2092  1.2092  1.1052  0.8870  0.9461  1.0213  1.0213  1.0027

 Free energy of the ion-electron system (eV)
  ---------------------------------------------------
  alpha Z        PSCENC =         0.23440060
  Ewald energy   TEWEN  =       129.11251527
  -Hartree energ DENC   =      -285.14186480
  -exchange      EXHF   =         0.00000000
  -V(xc)+E(xc)   XCENC  =        24.69875024
  PAW double counting   =       436.82886581     -437.61603626
  entropy T*S    EENTRO =         0.01595925
  eigenvalues    EBANDS =       -89.17357842
  atomic energy  EATOM  =       197.04175453
  Solvation  Ediel_sol  =         0.00000000
  ---------------------------------------------------
  free energy    TOTEN  =       -23.99923378 eV

  energy without entropy =      -24.01519302  energy(sigma->0) =      -24.00455352


--------------------------------------------------------------------------------------------------------




--------------------------------------- Iteration      2(   5)  ---------------------------------------


    POTLOK:  cpu time    1.5356: real time    1.5392
    SETDIJ:  cpu time    0.0064: real time    0.0064
    EDDIAG:  cpu time    0.5179: real time    0.5191
  RMM-DIIS:  cpu time    1.3871: real time    1.3904
    ORTHCH:  cpu time    0.0112: real time    0.0112
       DOS:  cpu time    0.0002: real time    0.0002
    CHARGE:  cpu time    0.1638: real time    0.1642
    MIXING:  cpu time    0.0598: real time    0.0599
    --------------------------------------------
      LOOP:  cpu time    3.6820: real time    3.6907

 eigenvalue-minimisations  :    64
 total energy-change (2. order) : 0.9479505E-04  (-0.6503048E-03)
 number of electron       8.0000000 magnetization 
 augmentation part        0.1841888 magnetization 

 Broyden mixing:
  rms(total) = 0.88669E-02    rms(broyden)= 0.88635E-02
  rms(prec ) = 0.11784E-01
  weight for this iteration     100.00

 eigenvalues of (default mixing * dielectric matrix)
  average eigenvalue GAMMA=   2.2914
  8.6801  5.5739  4.4462  3.4094  2.5805  2.5805  2.3332  2.0928  2.0928  0.5545
  1.5361  1.5361  1.2078  1.2078  1.1267  0.8870  0.9456  1.0160  1.0160  1.0057

 Free energy of the ion-electron system (eV)
  ---------------------------------------------------
  alpha Z        PSCENC =         0.23440060
[...]
  rms(prec ) = 0.70298E-03
  weight for this iteration     100.00

 eigenvalues of (default mixing * dielectric matrix)
  average eigenvalue GAMMA=   2.6414
  7.0494  5.7186  5.7186  5.3897  0.4640  1.0615  1.0615  3.9754  0.9903  1.0391
  1.1007  3.7388  3.7388  3.6954  1.6001  1.6001  1.5449  1.5831  3.1563  3.1563
  2.2613  2.2613  1.8959  2.0452  2.0452  3.0466  2.8722  2.8722  2.6319  2.6319
  2.0603  2.8610  2.1353  2.7656  2.7146  2.7146  2.3149  2.3149  2.4697  2.4697
  2.6080  2.6080  2.3890  2.3890  2.4860  2.4860  2.4115

 Free energy of the ion-electron system (eV)
  ---------------------------------------------------
  alpha Z        PSCENC =         0.23440060
  Ewald energy   TEWEN  =       134.50442271
  -Hartree energ DENC   =      -289.60344781
  -exchange      EXHF   =         0.00000000
  -V(xc)+E(xc)   XCENC  =        24.93989968
  PAW double counting   =       444.27092804     -445.07407148
  entropy T*S    EENTRO =         0.01160382
  eigenvalues    EBANDS =       -90.25302430
  atomic energy  EATOM  =       197.04175453
  Solvation  Ediel_sol  =         0.00000000
  ---------------------------------------------------
  free energy    TOTEN  =       -23.92753422 eV

  energy without entropy =      -23.93913804  energy(sigma->0) =      -23.93140216


--------------------------------------------------------------------------------------------------------




--------------------------------------- Iteration     10(  11)  ---------------------------------------


    POTLOK:  cpu time    1.5388: real time    1.5424
    SETDIJ:  cpu time    0.0065: real time    0.0065
    EDDIAG:  cpu time    0.3893: real time    0.3902
  RMM-DIIS:  cpu time    1.2941: real time    1.2972
    ORTHCH:  cpu time    0.0113: real time    0.0113
       DOS:  cpu time    0.0002: real time    0.0002
    CHARGE:  cpu time    0.1603: real time    0.1607
    MIXING:  cpu time    0.1265: real time    0.1268
    --------------------------------------------
      LOOP:  cpu time    3.5271: real time    3.5354

 eigenvalue-minimisations  :    64
 total energy-change (2. order) :-0.8768509E-05  (-0.5694581E-06)
 number of electron       8.0000002 magnetization 
 augmentation part        0.1894694 magnetization 

 Broyden mixing:
  rms(total) = 0.13214E-03    rms(broyden)= 0.13167E-03
  rms(prec ) = 0.18554E-03
  weight for this iteration     100.00

 eigenvalues of (default mixing * dielectric matrix)
  average eigenvalue GAMMA=   2.6401
  7.0578  5.8811  5.8811  5.3781  0.4792  4.0826  1.0631  1.0631  0.9640  1.0358
  1.0358  1.1011  3.8173  3.8173  3.7431  1.7516  1.7516  1.6250  1.6250  3.4031
  1.7331  2.1602  2.1602  2.9254  2.9254  3.0361  3.0361  2.0314  2.0314  2.6855
  2.6855  2.1421  2.8166  2.7261  2.7261  2.7595  2.7143  2.3091  2.3091  2.4434
  2.4434  2.6001  2.6001  2.3926  2.3926  2.4756  2.4756  2.4314

 Free energy of the ion-electron system (eV)
  ---------------------------------------------------
  alpha Z        PSCENC =         0.23440060
  Ewald energy   TEWEN  =       134.50442271
  -Hartree energ DENC   =      -289.60645788
  -exchange      EXHF   =         0.00000000
  -V(xc)+E(xc)   XCENC  =        24.94000213
  PAW double counting   =       444.32744349     -445.13063746
  entropy T*S    EENTRO =         0.01160346
  eigenvalues    EBANDS =       -90.25007456
  atomic energy  EATOM  =       197.04175453
  Solvation  Ediel_sol  =         0.00000000
  ---------------------------------------------------
  free energy    TOTEN  =       -23.92754299 eV

  energy without entropy =      -23.93914644  energy(sigma->0) =      -23.93141081


--------------------------------------------------------------------------------------------------------




--------------------------------------- Iteration     10(  12)  ---------------------------------------


    POTLOK:  cpu time    1.5462: real time    1.5498
    SETDIJ:  cpu time    0.0058: real time    0.0058
    EDDIAG:  cpu time    0.4026: real time    0.4036
  RMM-DIIS:  cpu time    1.0380: real time    1.0405
    ORTHCH:  cpu time    0.0112: real time    0.0112
       DOS:  cpu time    0.0002: real time    0.0002
    CHARGE:  cpu time    0.1574: real time    0.1577
    MIXING:  cpu time    0.1355: real time    0.1358
    --------------------------------------------
      LOOP:  cpu time    3.2968: real time    3.3046

 eigenvalue-minimisations  :    48
 total energy-change (2. order) :-0.6667001E-05  (-0.5624291E-07)
 number of electron       8.0000002 magnetization 
 augmentation part        0.1894681 magnetization 

 Broyden mixing:
  rms(total) = 0.13191E-03    rms(broyden)= 0.13186E-03
  rms(prec ) = 0.17784E-03
  weight for this iteration     100.00

 eigenvalues of (default mixing * dielectric matrix)
  average eigenvalue GAMMA=   2.6433
  7.0962  5.9115  5.9115  5.4146  0.4783  4.2625  1.0616  1.0616  3.9667  3.7529
  3.7529  0.9452  0.9452  0.9657  1.0996  1.4747  1.6129  1.6129  3.3556  1.7947
  1.7947  2.1347  2.1347  3.1103  3.1103  2.8678  2.8678  3.0009  2.9560  2.5902
  2.5902  2.0483  2.0483  2.1427  2.7785  2.7513  2.7271  2.4145  2.4145  2.2597
  2.3434  2.3434  2.6405  2.5753  2.5753  2.4178  2.4178  2.4941  2.4941

 Free energy of the ion-electron system (eV)
  ---------------------------------------------------
  alpha Z        PSCENC =         0.23440060
  Ewald energy   TEWEN  =       134.50442271
  -Hartree energ DENC   =      -289.60631772
  -exchange      EXHF   =         0.00000000
  -V(xc)+E(xc)   XCENC  =        24.93997928
  PAW double counting   =       444.31265978     -445.11587625
  entropy T*S    EENTRO =         0.01160344
  eigenvalues    EBANDS =       -90.25017602
  atomic energy  EATOM  =       197.04175453
  Solvation  Ediel_sol  =         0.00000000
  ---------------------------------------------------
  free energy    TOTEN  =       -23.92754965 eV

  energy without entropy =      -23.93915310  energy(sigma->0) =      -23.93141747


--------------------------------------------------------------------------------------------------------




--------------------------------------- Iteration     10(  13)  ---------------------------------------


    POTLOK:  cpu time    1.6414: real time    1.6478
    SETDIJ:  cpu time    0.0066: real time    0.0066
    EDDIAG:  cpu time    0.3530: real time    0.3538
  RMM-DIIS:  cpu time    1.1079: real time    1.1106
    ORTHCH:  cpu time    0.0114: real time    0.0114
       DOS:  cpu time    0.0002: real time    0.0002
    CHARGE:  cpu time    0.1623: real time    0.1627
    MIXING:  cpu time    0.1344: real time    0.1347
    --------------------------------------------
      LOOP:  cpu time    3.4171: real time    3.4277

 eigenvalue-minimisations  :    48
 total energy-change (2. order) :-0.1855850E-05  (-0.3016533E-07)
 number of electron       8.0000002 magnetization 
 augmentation part        0.1894698 magnetization 

 Broyden mixing:
  rms(total) = 0.59982E-04    rms(broyden)= 0.59970E-04
  rms(prec ) = 0.75124E-04
  weight for this iteration     100.00

 eigenvalues of (default mixing * dielectric matrix)
  average eigenvalue GAMMA=   2.6518
  6.7376  5.5880  5.3312  4.8503  4.1572  0.7007  1.0187  1.0187  1.0254  1.0254
  3.9347  3.4399  1.4981  3.2932  3.1676  3.1676  1.7941  1.7941  1.7831  1.9144
  1.9144  2.0194  2.0194  2.9689  2.9253  2.9253  2.7843  2.7843  2.3212  2.3212
  2.1657  2.6162  2.6162  2.7646  2.2553  2.2553  2.7007  2.4578  2.4578  2.6004
  2.6004  2.3385  2.4108  2.4108  2.4585

 Free energy of the ion-electron system (eV)
  ---------------------------------------------------
  alpha Z        PSCENC =         0.23440060
  Ewald energy   TEWEN  =       134.50442271
  -Hartree energ DENC   =      -289.60315324
  -exchange      EXHF   =         0.00000000
  -V(xc)+E(xc)   XCENC  =        24.93984936
  PAW double counting   =       444.29350170     -445.09667580
  entropy T*S    EENTRO =         0.01160345
  eigenvalues    EBANDS =       -90.25325481
  atomic energy  EATOM  =       197.04175453
  Solvation  Ediel_sol  =         0.00000000
  ---------------------------------------------------
  free energy    TOTEN  =       -23.92755151 eV

  energy without entropy =      -23.93915496  energy(sigma->0) =      -23.93141933


--------------------------------------------------------------------------------------------------------




--------------------------------------- Iteration     10(  14)  ---------------------------------------


    POTLOK:  cpu time    1.6268: real time    1.6307
    SETDIJ:  cpu time    0.0064: real time    0.0064
    EDDIAG:  cpu time    0.3867: real time    0.3876
  RMM-DIIS:  cpu time    1.0534: real time    1.0559
    ORTHCH:  cpu time    0.0115: real time    0.0115
       DOS:  cpu time    0.0002: real time    0.0002
    --------------------------------------------
      LOOP:  cpu time    3.0850: real time    3.0923

 eigenvalue-minimisations  :    48
 total energy-change (2. order) :-0.2002256E-06  (-0.1600596E-07)
 number of electron       8.0000002 magnetization 
 augmentation part        0.1894698 magnetization 

 Free energy of the ion-electron system (eV)
  ---------------------------------------------------
  alpha Z        PSCENC =         0.23440060
  Ewald energy   TEWEN  =       134.50442271
  -Hartree energ DENC   =      -289.60207555
  -exchange      EXHF   =         0.00000000
  -V(xc)+E(xc)   XCENC  =        24.93982311
  PAW double counting   =       444.30504354     -445.10819829
  entropy T*S    EENTRO =         0.01160343
  eigenvalues    EBANDS =       -90.25432579
  atomic energy  EATOM  =       197.04175453
  Solvation  Ediel_sol  =         0.00000000
  ---------------------------------------------------
  free energy    TOTEN  =       -23.92755171 eV

  energy without entropy =      -23.93915514  energy(sigma->0) =      -23.93141952


--------------------------------------------------------------------------------------------------------




 average (electrostatic) potential at core
  the test charge radii are     0.5201  0.6991
  (the norm of the test charge is              1.0000)
       1 -41.9332       2 -41.8485       3 -41.4876       4 -41.2943       5 -57.8641



 E-fermi :  -8.7598     XC(G=0):  -0.6673     alpha+bet : -0.2038


 k-point     1 :       0.2500    0.2500    0.2500
  band No.  band energies     occupation 
      1     -17.0597      2.00000
      2      -9.6937      2.00000
      3      -9.4456      2.00001
      4      -8.9282      1.99998
      5      -0.2943      0.00000
      6       0.5483      0.00000
      7       0.6602      0.00000
      8       0.6918      0.00000

 k-point     2 :      -0.2500    0.2500    0.2500
  band No.  band energies     occupation 
      1     -17.0598      2.00000
      2      -9.6937      2.00000
      3      -9.4456      2.00001
      4      -8.9282      2.00007
      5      -0.2976      0.00000
      6       0.5669      0.00000
      7       0.6615      0.00000
      8       0.6835      0.00000

 k-point     3 :       0.2500   -0.2500    0.2500
  band No.  band energies     occupation 
      1     -17.0597      2.00000
      2      -9.6936      2.00000
      3      -9.4454      2.00001
      4      -8.9281      1.99982
      5      -0.3021      0.00000
      6       0.5644      0.00000
      7       0.6781      0.00000
      8       0.7062      0.00000

 k-point     4 :      -0.2500   -0.2500    0.2500
  band No.  band energies     occupation 
      1     -17.0598      2.00000
      2      -9.6937      2.00000
      3      -9.4456      2.00001
      4      -8.9282      2.00007
      5      -0.2981      0.00000
      6       0.5635      0.00000
      7       0.6626      0.00000
      8       0.6951      0.00000


--------------------------------------------------------------------------------------------------------


 soft charge-density along one line, spin component           1
         0         1         2         3         4         5         6         7         8         9
 total charge-density along one line

 pseudopotential strength for first ion, spin component:           1
 -2.345  -4.042  -0.001  -0.001   0.001
 -4.042  -6.880  -0.004  -0.005   0.002
 -0.001  -0.004  -0.333   0.003  -0.001
 -0.001  -0.005   0.003  -0.332  -0.002
  0.001   0.002  -0.001  -0.002  -0.335
 total augmentation occupancy for first ion, spin component:           1
  4.250  -0.859   0.348   0.330  -0.182
 -0.859   0.189  -0.069  -0.069   0.037
  0.348  -0.069   0.036   0.022  -0.013
  0.330  -0.069   0.022   0.031  -0.012
 -0.182   0.037  -0.013  -0.012   0.017


------------------------ aborting loop because EDIFF is reached ----------------------------------------


    CHARGE:  cpu time    0.1621: real time    0.1624
    FORLOC:  cpu time    0.1152: real time    0.1155
    FORNL :  cpu time    0.5857: real time    0.5871
    STRESS:  cpu time    1.8648: real time    1.8692
    FORCOR:  cpu time    1.7067: real time    1.7108
    FORHAR:  cpu time    0.5474: real time    0.5487
    MIXING:  cpu time    0.1212: real time    0.1215
    OFIELD:  cpu time    0.0000: real time    0.0000

  FORCE on cell =-STRESS in cart. coord.  units (eV):
  Direction    XX          YY          ZZ          XY          YZ          ZX
  --------------------------------------------------------------------------------------
  Alpha Z     0.23440     0.23440     0.23440
  Ewald      49.75042    42.75611    41.99786     0.40769     4.69369     4.84498
  Hartree    97.58831    94.99587    97.01882     0.16252     0.18515     1.86056
  E(xc)     -27.41126   -27.42247   -27.44147     0.00806     0.01167     0.03501
  Local    -204.62025  -196.46591  -198.44599    -0.64598    -3.33447    -6.20001
  n-local   -16.00080   -15.95497   -16.34553     0.04537    -0.26348     0.17728
  augment     0.09666     0.10955     0.11481     0.00153    -0.01497    -0.00146
  Kinetic   101.70371   102.35003   103.41538    -0.45632    -0.56690    -1.71457
  Fock        0.00000     0.00000     0.00000     0.00000     0.00000     0.00000
  -------------------------------------------------------------------------------------
  Total       1.34119     0.60260     0.54828    -0.47712     0.71069    -0.99822
  in kB       2.07920     0.93419     0.84997    -0.73966     1.10175    -1.54749
  external pressure =        1.29 kB  Pullay stress =        0.00 kB

  kinetic pressure (ideal gas correction) =      0.10 kB
  total pressure  =      1.38 kB
  Total+kin.     2.147       1.034       0.970      -0.666       1.182      -1.494

 VOLUME and BASIS-vectors are now :
 -----------------------------------------------------------------------------
  energy-cutoff  :      400.00
  volume of cell :     1033.49
      direct lattice vectors                 reciprocal lattice vectors
    10.084706258  0.000000000  0.000000000     0.099160052  0.001745896 -0.000607890
    -0.180480839 10.250606587  0.000000000    -0.000000000  0.097555202  0.002688154
     0.066139308 -0.275484617  9.997552102     0.000000000 -0.000000000  0.100024485

  length of vectors
    10.084706258 10.252195313 10.001565588     0.099177284  0.097592232  0.100024485


 FORCES acting on ions
    electron-ion (+dipol)            ewald-force                    non-local-force                 convergence-correction
 -----------------------------------------------------------------------------------------------
   -.180E+02 0.326E+02 0.412E+02   0.209E+02 -.373E+02 -.475E+02   -.199E+01 0.398E+01 0.560E+01   0.181E-04 -.633E-04 -.106E-03
   0.546E+02 -.237E+01 0.333E+01   -.620E+02 0.279E+01 -.353E+01   0.658E+01 -.237E+00 -.186E+00   -.116E-03 -.208E-04 -.865E-05
   -.227E+02 -.481E+02 0.108E+01   0.249E+02 0.531E+02 -.142E+01   -.218E+01 -.438E+01 0.932E-01   0.390E-04 0.874E-04 -.201E-04
   -.172E+02 0.217E+02 -.444E+02   0.184E+02 -.237E+02 0.483E+02   -.197E+01 0.190E+01 -.407E+01   0.891E-05 -.593E-04 0.959E-04
   0.249E+01 -.439E+01 -.311E+01   -.226E+01 0.507E+01 0.415E+01   -.318E+00 0.966E+00 0.423E+00   -.296E-03 -.186E-03 -.212E-03
 -----------------------------------------------------------------------------------------------
   -.868E+00 -.595E+00 -.185E+01   -.355E-14 0.000E+00 0.000E+00   0.117E+00 0.223E+01 0.186E+01   -.347E-03 -.242E-03 -.251E-03


 POSITION                                       TOTAL-FORCE (eV/Angst)
 -----------------------------------------------------------------------------------
      5.35839      4.06200      3.67250         0.869101     -0.733775     -0.711009
      3.95922      4.71756      4.37889        -0.790164      0.181145     -0.393591
      5.49032      5.66385      4.42336         0.037973      0.640492     -0.247044
      5.38828      4.21080      5.38966        -0.778088     -0.099017     -0.101519
      5.01542      4.67604      4.44346        -0.090069      1.647975      1.466347
 -----------------------------------------------------------------------------------
    total drift:                               -0.751248      1.636820      0.013184


--------------------------------------------------------------------------------------------------------



  FREE ENERGIE OF THE ION-ELECTRON SYSTEM (eV)
  ---------------------------------------------------
  free  energy   TOTEN  =       -23.92755171 eV

  energy  without entropy=      -23.93915514  energy(sigma->0) =      -23.93141952

 d Force =-0.2944250E-01[-0.966E-01, 0.377E-01]  d Energy =-0.4723382E-01 0.178E-01
 d Force =-0.5429979E+01[-0.556E+01,-0.530E+01]  d Ewald  =-0.5430434E+01 0.455E-03


--------------------------------------------------------------------------------------------------------


    POTLOK:  cpu time    1.6037: real time    1.6075


--------------------------------------------------------------------------------------------------------


           RANDOM_SEED =         578496021               30                0
   IONSTEP:  cpu time    0.0001: real time    0.0001

  ENERGY OF THE ELECTRON-ION-THERMOSTAT SYSTEM (eV)
  ---------------------------------------------------
% ion-electron   TOTEN  =       -23.927552  see above
  kinetic energy EKIN   =         0.052817
  kin. lattice  EKIN_LAT=         0.000000  (temperature  102.15 K)
  nose potential ES     =         0.034554
  nose kinetic   EPS    =         0.071418
  ---------------------------------------------------
  total energy   ETOTAL =       -23.768763 eV

  maximum distance moved by ions :      0.52E-02


 mean value of Nose-termostat <S>:     2.357 mean value of <T> :   102.152
 mean temperature <T/S>/<1/S>  :   102.152

    WAVPRE:  cpu time    0.4755: real time    0.4834
    FEWALD:  cpu time    0.0003: real time    0.0003
    ORTHCH:  cpu time    0.2060: real time    0.2065
 Prediction of Wavefunctions ALPHA= 0.681 BETA=-0.336
    POTLOK:  cpu time    1.5948: real time    1.5986
    EDDIAG:  cpu time    0.3686: real time    0.3695
     LOOP+:  cpu time   60.5686: real time   60.7281
    4ORBIT:  cpu time    0.0000: real time    0.0000

 total amount of memory used by VASP MPI-rank0   322809. kBytes
=======================================================================

   base      :      30000. kBytes
   nonlr-proj:        162. kBytes
   fftplans  :      94700. kBytes
   grid      :     169030. kBytes
   one-center:         15. kBytes
   wavefun   :      28902. kBytes

  
  
 General timing and accounting informations for this job:
 ========================================================
  
                  Total CPU time used (sec):      642.511
                            User time (sec):      628.907
                          System time (sec):       13.605
                         Elapsed time (sec):      644.185
  
                   Maximum memory used (kb):      503344.
                   Average memory used (kb):           0.
  
                          Minor page faults:      2361689
                          Major page faults:            0
                 Voluntary context switches:          412
