<?xml version="1.0" encoding="ISO-8859-1"?>
<modeling>
 <generator>
  <i name="program" type="string">vasp </i>
  <i name="version" type="string">5.4.4.18Apr17-6-g9f103f2a35  </i>
  <i name="subversion" type="string">(build Jul 12 2018 13:43:46) complex            parallel </i>
  <i name="platform" type="string">LinuxGNU </i>
  <i name="date" type="string">2019 06 22 </i>
  <i name="time" type="string">02:17:35 </i>
 </generator>
 <incar>
  <i type="int" name="ISTART">     0</i>
  <i type="string" name="PREC">a</i>
  <i type="string" name="ALGO">fast</i>
  <i type="int" name="MAXMIX">    50</i>
  <i type="int" name="ICHARG">     2</i>
  <i type="int" name="IBRION">     0</i>
  <i name="EDIFF">      0.00000100</i>
  <i type="int" name="NSW">    10</i>
  <i type="int" name="ISIF">     2</i>
  <i type="int" name="ISYM">     0</i>
  <i type="int" name="NBLOCK">     1</i>
  <i type="int" name="KBLOCK">   100</i>
  <i name="ENCUT">    400.00000000</i>
  <i name="POTIM">      2.00000000</i>
  <i name="TEBEG">     50.00000000</i>
  <i name="TEEND">     50.00000000</i>
  <i name="SMASS">      0.00000000</i>
  <i type="logical" name="LREAL"> T  </i>
  <i type="int" name="ISMEAR">     1</i>
  <i name="SIGMA">      0.20000000</i>
  <i name="KSPACING">      0.50000000</i>
  <i type="logical" name="KGAMMA"> F  </i>
  <i name="PSTRESS">      0.00000000</i>
  <i type="logical" name="LWAVE"> F  </i>
  <i type="logical" name="LCHARG"> F  </i>
  <v type="int" name="KPOINT_BSE">    -1     0     0     0</v>
 </incar>
 <structure name="primitive_cell" >
  <crystal>
   <varray name="basis" >
    <v>      10.08470626       0.00000000       0.00000000 </v>
    <v>      -0.18048084      10.25060659       0.00000000 </v>
    <v>       0.06613931      -0.27548462       9.99755210 </v>
   </varray>
   <i name="volume">   1033.49051404 </i>
   <varray name="rec_basis" >
    <v>       0.09916005       0.00174590      -0.00060789 </v>
    <v>      -0.00000000       0.09755520       0.00268815 </v>
    <v>       0.00000000      -0.00000000       0.10002448 </v>
   </varray>
  </crystal>
  <varray name="positions" >
   <v>      -0.46151269       0.40668926       0.36016628 </v>
   <v>      -0.49628233       0.46804278       0.44497419 </v>
   <v>      -0.47186078       0.41638054      -0.46083830 </v>
   <v>      -0.44792422      -0.43467422       0.44284580 </v>
   <v>       0.39455096       0.48033113       0.43846966 </v>
  </varray>
 </structure>
 <varray name="primitive_index" >
  <v type="int" >        1 </v>
  <v type="int" >        5 </v>
  <v type="int" >        4 </v>
  <v type="int" >        3 </v>
  <v type="int" >        2 </v>
 </varray>
 <kpoints>
  <generation param="Monkhorst-Pack">
   <v type="int" name="divisions">       2        2        2 </v>
   <v name="usershift">      0.00000000       0.00000000       0.00000000 </v>
   <v name="genvec1">      0.50000000       0.00000000      -0.00000000 </v>
   <v name="genvec2">      0.00000000       0.50000000       0.00000000 </v>
   <v name="genvec3">      0.00000000       0.00000000       0.50000000 </v>
   <v name="shift">      0.50000000       0.50000000       0.50000000 </v>
  </generation>
  <varray name="kpointlist" >
   <v>       0.25000000       0.25000000       0.25000000 </v>
   <v>      -0.25000000       0.25000000       0.25000000 </v>
   <v>       0.25000000      -0.25000000       0.25000000 </v>
   <v>      -0.25000000      -0.25000000       0.25000000 </v>
  </varray>
  <varray name="weights" >
   <v>       0.25000000 </v>
   <v>       0.25000000 </v>
   <v>       0.25000000 </v>
   <v>       0.25000000 </v>
  </varray>
 </kpoints>
 <parameters>
  <separator name="general" >
   <i type="string" name="SYSTEM">unknown system</i>
   <i type="logical" name="LCOMPAT"> F  </i>
  </separator>
  <separator name="electronic" >
   <i type="string" name="PREC">a</i>
   <i name="ENMAX">    400.00000000</i>
   <i name="ENAUG">    644.87300000</i>
   <i name="EDIFF">      0.00000100</i>
   <i type="int" name="IALGO">    68</i>
   <i type="int" name="IWAVPR">    12</i>
   <i type="int" name="NBANDS">     8</i>
   <i name="NELECT">      8.00000000</i>
   <i type="int" name="TURBO">     0</i>
   <i type="int" name="IRESTART">     0</i>
   <i type="int" name="NREBOOT">     0</i>
   <i type="int" name="NMIN">     0</i>
   <i name="EREF">      0.00000000</i>
   <separator name="electronic smearing" >
    <i type="int" name="ISMEAR">     1</i>
    <i name="SIGMA">      0.20000000</i>
    <i name="KSPACING">      0.50000000</i>
    <i type="logical" name="KGAMMA"> F  </i>
   </separator>
   <separator name="electronic projectors" >
    <i type="logical" name="LREAL"> T  </i>
    <v name="ROPT">      0.00000000      0.00000000</v>
    <i type="int" name="LMAXPAW">  -100</i>
    <i type="int" name="LMAXMIX">     2</i>
    <i type="logical" name="NLSPLINE"> F  </i>
   </separator>
   <separator name="electronic startup" >
    <i type="int" name="ISTART">     0</i>
    <i type="int" name="ICHARG">     2</i>
    <i type="int" name="INIWAV">     1</i>
   </separator>
   <separator name="electronic spin" >
    <i type="int" name="ISPIN">     1</i>
    <i type="logical" name="LNONCOLLINEAR"> F  </i>
    <v name="MAGMOM">      1.00000000      1.00000000      1.00000000      1.00000000      1.00000000</v>
    <i name="NUPDOWN">     -1.00000000</i>
    <i type="logical" name="LSORBIT"> F  </i>
    <v name="SAXIS">      0.00000000      0.00000000      1.00000000</v>
    <i type="logical" name="LSPIRAL"> F  </i>
    <v name="QSPIRAL">      0.00000000      0.00000000      0.00000000</v>
    <i type="logical" name="LZEROZ"> F  </i>
   </separator>
   <separator name="electronic exchange-correlation" >
    <i type="logical" name="LASPH"> F  </i>
    <i type="logical" name="LMETAGGA"> F  </i>
   </separator>
   <separator name="electronic convergence" >
    <i type="int" name="NELM">    60</i>
    <i type="int" name="NELMDL">    -5</i>
    <i type="int" name="NELMIN">     2</i>
    <i name="ENINI">    400.00000000</i>
    <separator name="electronic convergence detail" >
     <i type="logical" name="LDIAG"> T  </i>
     <i type="logical" name="LSUBROT"> F  </i>
     <i name="WEIMIN">      0.00100000</i>
     <i name="EBREAK">      0.00000003</i>
     <i name="DEPER">      0.30000000</i>
     <i type="int" name="NRMM">     4</i>
     <i name="TIME">      0.40000000</i>
    </separator>
   </separator>
   <separator name="electronic mixer" >
    <i name="AMIX">      0.40000000</i>
    <i name="BMIX">      1.00000000</i>
    <i name="AMIN">      0.10000000</i>
    <i name="AMIX_MAG">      1.60000000</i>
    <i name="BMIX_MAG">      1.00000000</i>
    <separator name="electronic mixer details" >
     <i type="int" name="IMIX">     4</i>
     <i type="logical" name="MIXFIRST"> F  </i>
     <i type="int" name="MAXMIX">    50</i>
     <i name="WC">    100.00000000</i>
     <i type="int" name="INIMIX">     1</i>
     <i type="int" name="MIXPRE">     1</i>
     <i type="int" name="MREMOVE">     5</i>
    </separator>
   </separator>
   <separator name="electronic dipolcorrection" >
    <i type="logical" name="LDIPOL"> F  </i>
    <i type="logical" name="LMONO"> F  </i>
    <i type="int" name="IDIPOL">     0</i>
    <i name="EPSILON">      1.00000000</i>
    <v name="DIPOL">   -100.00000000   -100.00000000   -100.00000000</v>
    <i name="EFIELD">      0.00000000</i>
   </separator>
  </separator>
  <separator name="grids" >
   <i type="int" name="NGX">    70</i>
   <i type="int" name="NGY">    70</i>
   <i type="int" name="NGZ">    70</i>
   <i type="int" name="NGXF">   140</i>
   <i type="int" name="NGYF">   140</i>
   <i type="int" name="NGZF">   140</i>
   <i type="logical" name="ADDGRID"> F  </i>
  </separator>
  <separator name="ionic" >
   <i type="int" name="NSW">    10</i>
   <i type="int" name="IBRION">     0</i>
   <i type="int" name="MDALGO">     0</i>
   <i type="int" name="ISIF">     2</i>
   <i name="PSTRESS">      0.00000000</i>
   <i name="EDIFFG">      0.00001000</i>
   <i type="int" name="NFREE">     0</i>
   <i name="POTIM">      2.00000000</i>
   <i name="SMASS">      0.00159042</i>
   <i name="SCALEE">      1.00000000</i>
  </separator>
  <separator name="ionic md" >
   <i name="TEBEG">     50.00000000</i>
   <i name="TEEND">     50.00000000</i>
   <i type="int" name="NBLOCK">     1</i>
   <i type="int" name="KBLOCK">     1</i>
   <i type="int" name="NPACO">   256</i>
   <i name="APACO">     16.00000000</i>
  </separator>
  <separator name="symmetry" >
   <i type="int" name="ISYM">     0</i>
   <i name="SYMPREC">      0.00001000</i>
  </separator>
  <separator name="dos" >
   <i type="int" name="LORBIT">     0</i>
   <v name="RWIGS">     -1.00000000     -1.00000000</v>
   <i type="int" name="NEDOS">   301</i>
   <i name="EMIN">     10.00000000</i>
   <i name="EMAX">    -10.00000000</i>
   <i name="EFERMI">      0.00000000</i>
  </separator>
  <separator name="writing" >
   <i type="int" name="NWRITE">     2</i>
   <i type="logical" name="LWAVE"> F  </i>
   <i type="logical" name="LDOWNSAMPLE"> F  </i>
   <i type="logical" name="LCHARG"> F  </i>
   <i type="logical" name="LPARD"> F  </i>
   <i type="logical" name="LVTOT"> F  </i>
   <i type="logical" name="LVHAR"> F  </i>
   <i type="logical" name="LELF"> F  </i>
   <i type="logical" name="LOPTICS"> F  </i>
   <v name="STM">      0.00000000      0.00000000      0.00000000      0.00000000      0.00000000      0.00000000      0.00000000</v>
  </separator>
  <separator name="performance" >
   <i type="int" name="NPAR">     1</i>
   <i type="int" name="NSIM">     4</i>
   <i type="int" name="NBLK">    -1</i>
   <i type="logical" name="LPLANE"> T  </i>
   <i type="logical" name="LSCALAPACK"> T  </i>
   <i type="logical" name="LSCAAWARE"> F  </i>
   <i type="logical" name="LSCALU"> F  </i>
   <i type="logical" name="LASYNC"> F  </i>
   <i type="logical" name="LORBITALREAL"> F  </i>
  </separator>
  <separator name="miscellaneous" >
   <i type="int" name="IDIOT">     3</i>
   <i type="int" name="ISPECIAL">     0</i>
   <i type="logical" name="LMUSIC"> F  </i>
   <v name="POMASS">      1.00000000     12.01100000</v>
   <v name="DARWINR">      0.00000000      0.00000000</v>
   <v name="DARWINV">      1.00000000      1.00000000</v>
   <i type="logical" name="LCORR"> T  </i>
  </separator>
  <i type="logical" name="GGA_COMPAT"> T  </i>
  <i type="logical" name="LBERRY"> F  </i>
  <i type="int" name="ICORELEVEL">     0</i>
  <i type="logical" name="LDAU"> F  </i>
  <i type="int" name="I_CONSTRAINED_M">     0</i>
  <separator name="electronic exchange-correlation" >
   <i type="string" name="GGA">--</i>
   <i type="int" name="VOSKOWN">     0</i>
   <i type="logical" name="LHFCALC"> F  </i>
   <i type="string" name="PRECFOCK"></i>
   <i type="logical" name="LSYMGRAD"> F  </i>
   <i type="logical" name="LHFONE"> F  </i>
   <i type="logical" name="LRHFCALC"> F  </i>
   <i type="logical" name="LTHOMAS"> F  </i>
   <i type="logical" name="LMODELHF"> F  </i>
   <i name="ENCUT4O">     -1.00000000</i>
   <i type="int" name="EXXOEP">     0</i>
   <i type="int" name="FOURORBIT">     0</i>
   <i name="AEXX">      0.00000000</i>
   <i name="HFALPHA">      0.00000000</i>
   <i name="MCALPHA">      0.00000000</i>
   <i name="ALDAX">      1.00000000</i>
   <i name="AGGAX">      1.00000000</i>
   <i name="ALDAC">      1.00000000</i>
   <i name="AGGAC">      1.00000000</i>
   <i type="int" name="NKREDX">     1</i>
   <i type="int" name="NKREDY">     1</i>
   <i type="int" name="NKREDZ">     1</i>
   <i type="logical" name="SHIFTRED"> F  </i>
   <i type="logical" name="ODDONLY"> F  </i>
   <i type="logical" name="EVENONLY"> F  </i>
   <i type="int" name="LMAXFOCK">     0</i>
   <i type="int" name="NMAXFOCKAE">     0</i>
   <i type="logical" name="LFOCKAEDFT"> F  </i>
   <i name="HFSCREEN">      0.00000000</i>
   <i name="HFSCREENC">      0.00000000</i>
   <i type="int" name="NBANDSGWLOW">     0</i>
  </separator>
  <separator name="vdW DFT" >
   <i type="logical" name="LUSE_VDW"> F  </i>
   <i name="Zab_VDW">     -0.84910000</i>
   <i name="PARAM1">      0.12340000</i>
   <i name="PARAM2">      1.00000000</i>
   <i name="PARAM3">      0.00000000</i>
  </separator>
  <separator name="model GW" >
   <i type="int" name="MODEL_GW">     0</i>
   <i name="MODEL_EPS0">    124.01886169</i>
   <i name="MODEL_ALPHA">      1.00000000</i>
  </separator>
  <separator name="linear response parameters" >
   <i type="logical" name="LEPSILON"> F  </i>
   <i type="logical" name="LRPA"> F  </i>
   <i type="logical" name="LNABLA"> F  </i>
   <i type="logical" name="LVEL"> F  </i>
   <i type="int" name="KINTER">     0</i>
   <i name="CSHIFT">      0.10000000</i>
   <i name="OMEGAMAX">     -1.00000000</i>
   <i name="DEG_THRESHOLD">      0.00200000</i>
   <i name="RTIME">     -0.10000000</i>
   <i name="WPLASMAI">      0.00000000</i>
   <v name="DFIELD">      0.00000000      0.00000000      0.00000000</v>
   <v name="WPLASMA">      0.00000000      0.00000000      0.00000000      0.00000000      0.00000000      0.00000000      0.00000000      0.00000000      0.00000000</v>
  </separator>
  <separator name="orbital magnetization" >
   <i type="logical" name="NUCIND"> F  </i>
   <v name="MAGPOS">      0.00000000      0.00000000      0.00000000</v>
   <i type="logical" name="LNICSALL"> T  </i>
   <i type="logical" name="ORBITALMAG"> F  </i>
   <i type="logical" name="LMAGBLOCH"> F  </i>
   <i type="logical" name="LCHIMAG"> F  </i>
   <i type="logical" name="LGAUGE"> T  </i>
   <i type="int" name="MAGATOM">     0</i>
   <v name="MAGDIPOL">      0.00000000      0.00000000      0.00000000</v>
   <v name="AVECCONST">      0.00000000      0.00000000      0.00000000</v>
  </separator>
  <separator name="response functions" >
   <i type="logical" name="LADDER"> F  </i>
   <i type="logical" name="LRPAFORCE"> F  </i>
   <i type="logical" name="LFXC"> F  </i>
   <i type="logical" name="LHARTREE"> T  </i>
   <i type="int" name="IBSE">     0</i>
   <v type="int" name="KPOINT">    -1     0     0     0</v>
   <i type="logical" name="LTCTE"> F  </i>
   <i type="logical" name="LTETE"> F  </i>
   <i type="logical" name="LTRIPLET"> F  </i>
   <i type="logical" name="LFXCEPS"> F  </i>
   <i type="logical" name="LFXHEG"> F  </i>
   <i type="int" name="NATURALO">     2</i>
   <i type="logical" name="L2ORDER"> F  </i>
   <i type="logical" name="LMP2LT"> F  </i>
   <i type="logical" name="LUSEW"> F  </i>
   <i name="ENCUTGW">     -2.00000000</i>
   <i name="ENCUTGWSOFT">     -2.00000000</i>
   <i name="ENCUTLF">     -1.00000000</i>
   <i type="int" name="LMAXMP2">    -1</i>
   <i name="SCISSOR">      0.00000000</i>
   <i type="int" name="NOMEGA">     0</i>
   <i type="int" name="NOMEGAR">     0</i>
   <i type="int" name="NBANDSGW">    -1</i>
   <i type="int" name="NBANDSO">    -1</i>
   <i type="int" name="NBANDSV">    -1</i>
   <i type="int" name="NELM">     1</i>
   <i type="int" name="NELMHF">     1</i>
   <i type="int" name="DIM">     3</i>
   <i type="int" name="ANTIRES">     0</i>
   <i name="OMEGAMAX">    -30.00000000</i>
   <i name="OMEGAMIN">    -30.00000000</i>
   <i name="OMEGATL">   -200.00000000</i>
   <i type="int" name="OMEGAGRID">   140</i>
   <i name="CSHIFT">     -0.10000000</i>
   <i type="logical" name="SELFENERGY"> F  </i>
   <i type="logical" name="LSPECTRAL"> F  </i>
   <i type="logical" name="LSPECTRALGW"> F  </i>
   <i type="logical" name="LSINGLES"> F  </i>
   <i type="logical" name="LFERMIGW"> F  </i>
   <i type="logical" name="ODDONLYGW"> F  </i>
   <i type="logical" name="EVENONLYGW"> F  </i>
   <i type="int" name="NKREDLFX">     1</i>
   <i type="int" name="NKREDLFY">     1</i>
   <i type="int" name="NKREDLFZ">     1</i>
   <i type="int" name="MAXMEM">  2800</i>
   <i type="int" name="TELESCOPE">     0</i>
   <i type="int" name="TAUPAR">     1</i>
   <i type="int" name="OMEGAPAR">    -1</i>
   <i name="LAMBDA">      1.00000000</i>
  </separator>
  <separator name="External order field" >
   <i name="OFIELD_KAPPA">      0.00000000</i>
   <v name="OFIELD_K">      0.00000000      0.00000000      0.00000000</v>
   <i name="OFIELD_Q6_NEAR">      0.00000000</i>
   <i name="OFIELD_Q6_FAR">      0.00000000</i>
   <i name="OFIELD_A">      0.00000000</i>
  </separator>
 </parameters>
 <atominfo>
  <atoms>       5 </atoms>
  <types>       2 </types>
  <array name="atoms" >
   <dimension dim="1">ion</dimension>
   <field type="string">element</field>
   <field type="int">atomtype</field>
   <set>
    <rc><c>H </c><c>   1</c></rc>
    <rc><c>H </c><c>   1</c></rc>
    <rc><c>H </c><c>   1</c></rc>
    <rc><c>H </c><c>   1</c></rc>
    <rc><c>C </c><c>   2</c></rc>
   </set>
  </array>
  <array name="atomtypes" >
   <dimension dim="1">type</dimension>
   <field type="int">atomspertype</field>
   <field type="string">element</field>
   <field>mass</field>
   <field>valence</field>
   <field type="string">pseudopotential</field>
   <set>
    <rc><c>   4</c><c>H </c><c>      1.00000000</c><c>      1.00000000</c><c>  PAW_PBE H 15Jun2001                   </c></rc>
    <rc><c>   1</c><c>C </c><c>     12.01100000</c><c>      4.00000000</c><c>  PAW_PBE C 08Apr2002                   </c></rc>
   </set>
  </array>
 </atominfo>
 <structure name="initialpos" >
  <crystal>
   <varray name="basis" >
    <v>      10.08470626       0.00000000       0.00000000 </v>
    <v>      -0.18048084      10.25060659       0.00000000 </v>
    <v>       0.06613931      -0.27548462       9.99755210 </v>
   </varray>
   <i name="volume">   1033.49051404 </i>
   <varray name="rec_basis" >
    <v>       0.09916005       0.00174590      -0.00060789 </v>
    <v>      -0.00000000       0.09755520       0.00268815 </v>
    <v>       0.00000000      -0.00000000       0.10002448 </v>
   </varray>
  </crystal>
  <varray name="positions" >
   <v>       0.53848731       0.40668926       0.36016628 </v>
   <v>       0.39455096       0.48033113       0.43846966 </v>
   <v>       0.55207578       0.56532578       0.44284580 </v>
   <v>       0.52813922       0.41638054       0.53916170 </v>
   <v>       0.50371767       0.46804278       0.44497419 </v>
  </varray>
  <varray name="velocities" >
   <v>       0.00136546      -0.00219260      -0.00157659 </v>
   <v>       0.00022242       0.00098364       0.00047438 </v>
   <v>      -0.00040606      -0.00043125       0.00159674 </v>
   <v>      -0.00234142      -0.00002383       0.00064577 </v>
   <v>       0.00009655       0.00013854      -0.00009494 </v>
  </varray>
 </structure>
 <calculation>
  <scstep>
   <time name="dav">    2.81    2.81</time>
   <time name="total">    4.57    4.58</time>
   <energy>
    <i name="alphaZ">      0.23440060 </i>
    <i name="ewald">    127.03001498 </i>
    <i name="hartreedc">   -243.72411084 </i>
    <i name="XCdc">     21.93549381 </i>
    <i name="pawpsdc">    117.05815612 </i>
    <i name="pawaedc">   -117.66307307 </i>
    <i name="eentropy">      0.00605377 </i>
    <i name="bandstr">    -86.07334654 </i>
    <i name="atom">    197.04175453 </i>
    <i name="e_fr_energy">     15.84534336 </i>
    <i name="e_wo_entrp">     15.83928958 </i>
    <i name="e_0_energy">     15.84332543 </i>
   </energy>
  </scstep>
  <scstep>
   <time name="dav">    2.38    2.39</time>
   <time name="total">    2.38    2.39</time>
   <energy>
    <i name="e_fr_energy">    -22.55045364 </i>
    <i name="e_wo_entrp">    -22.55335259 </i>
    <i name="e_0_energy">    -22.55141996 </i>
   </energy>
  </scstep>
  <scstep>
   <time name="dav">    2.31    2.31</time>
   <time name="total">    2.31    2.31</time>
   <energy>
    <i name="e_fr_energy">    -27.17456704 </i>
    <i name="e_wo_entrp">    -27.20437925 </i>
    <i name="e_0_energy">    -27.18450445 </i>
   </energy>
  </scstep>
  <scstep>
   <time name="dav">    3.48    3.49</time>
   <time name="total">    3.48    3.49</time>
   <energy>
    <i name="e_fr_energy">    -27.38005632 </i>
    <i name="e_wo_entrp">    -27.40802493 </i>
    <i name="e_0_energy">    -27.38937919 </i>
   </energy>
  </scstep>
  <scstep>
   <time name="dav">    2.88    2.88</time>
   <time name="total">    3.10    3.11</time>
   <energy>
    <i name="e_fr_energy">    -27.38015455 </i>
    <i name="e_wo_entrp">    -27.40812228 </i>
    <i name="e_0_energy">    -27.38947712 </i>
   </energy>
  </scstep>
  <scstep>
   <time name="diag">    0.43    0.43</time>
   <time name="diis">    1.42    1.42</time>
   <time name="orth">    0.01    0.01</time>
   <time name="total">    3.84    3.85</time>
   <energy>
    <i name="e_fr_energy">    -24.63295087 </i>
    <i name="e_wo_entrp">    -24.66213295 </i>
    <i name="e_0_energy">    -24.64267823 </i>
   </energy>
  </scstep>
  <scstep>
   <time name="diag">    0.43    0.43</time>
   <time name="diis">    1.37    1.37</time>
   <time name="orth">    0.01    0.01</time>
   <time name="total">    3.78    3.78</time>
   <energy>
    <i name="e_fr_energy">    -24.16848724 </i>
    <i name="e_wo_entrp">    -24.19915050 </i>
    <i name="e_0_energy">    -24.17870833 </i>
   </energy>
  </scstep>
  <scstep>
   <time name="diag">    0.43    0.43</time>
   <time name="diis">    1.39    1.39</time>
   <time name="orth">    0.01    0.01</time>
   <time name="total">    3.82    3.83</time>
   <energy>
    <i name="e_fr_energy">    -24.03204076 </i>
    <i name="e_wo_entrp">    -24.06390150 </i>
    <i name="e_0_energy">    -24.04266101 </i>
   </energy>
  </scstep>
  <scstep>
   <time name="diag">    0.43    0.43</time>
   <time name="diis">    1.40    1.40</time>
   <time name="orth">    0.01    0.01</time>
   <time name="total">    3.82    3.83</time>
   <energy>
    <i name="e_fr_energy">    -24.01956473 </i>
    <i name="e_wo_entrp">    -24.05089439 </i>
    <i name="e_0_energy">    -24.03000795 </i>
   </energy>
  </scstep>
  <scstep>
   <time name="diag">    0.43    0.43</time>
   <time name="diis">    1.38    1.39</time>
   <time name="orth">    0.01    0.01</time>
   <time name="total">    3.79    3.80</time>
   <energy>
    <i name="e_fr_energy">    -24.01730784 </i>
    <i name="e_wo_entrp">    -24.04866497 </i>
    <i name="e_0_energy">    -24.02776021 </i>
   </energy>
  </scstep>
  <scstep>
   <time name="diag">    0.43    0.43</time>
   <time name="diis">    1.39    1.40</time>
   <time name="orth">    0.01    0.01</time>
   <time name="total">    3.71    3.72</time>
   <energy>
    <i name="e_fr_energy">    -24.01106050 </i>
    <i name="e_wo_entrp">    -24.04267172 </i>
    <i name="e_0_energy">    -24.02159757 </i>
   </energy>
  </scstep>
  <scstep>
   <time name="diag">    0.44    0.44</time>
   <time name="diis">    1.39    1.39</time>
   <time name="orth">    0.01    0.01</time>
   <time name="total">    3.70    3.71</time>
   <energy>
    <i name="e_fr_energy">    -24.01323458 </i>
    <i name="e_wo_entrp">    -24.04488055 </i>
    <i name="e_0_energy">    -24.02378324 </i>
   </energy>
  </scstep>
  <scstep>
   <time name="diag">    0.42    0.42</time>
   <time name="diis">    1.39    1.39</time>
   <time name="orth">    0.01    0.01</time>
   <time name="total">    3.57    3.58</time>
   <energy>
    <i name="e_fr_energy">    -24.02103861 </i>
    <i name="e_wo_entrp">    -24.05258282 </i>
    <i name="e_0_energy">    -24.03155335 </i>
   </energy>
  </scstep>
  <scstep>
   <time name="diag">    0.42    0.42</time>
   <time name="diis">    1.37    1.37</time>
   <time name="orth">    0.01    0.01</time>
   <time name="total">    3.55    3.56</time>
   <energy>
    <i name="e_fr_energy">    -24.02238164 </i>
    <i name="e_wo_entrp">    -24.05393192 </i>
    <i name="e_0_energy">    -24.03289840 </i>
   </energy>
  </scstep>
  <scstep>
   <time name="diag">    0.41    0.41</time>
   <time name="diis">    1.49    1.49</time>
   <time name="orth">    0.01    0.01</time>
   <time name="total">    3.63    3.64</time>
   <energy>
    <i name="e_fr_energy">    -24.02455992 </i>
    <i name="e_wo_entrp">    -24.05612167 </i>
    <i name="e_0_energy">    -24.03508050 </i>
   </energy>
  </scstep>
  <scstep>
   <time name="diag">    0.42    0.42</time>
   <time name="diis">    1.47    1.48</time>
   <time name="orth">    0.01    0.01</time>
   <time name="total">    3.62    3.62</time>
   <energy>
    <i name="e_fr_energy">    -24.02489202 </i>
    <i name="e_wo_entrp">    -24.05645497 </i>
    <i name="e_0_energy">    -24.03541301 </i>
   </energy>
  </scstep>
  <scstep>
   <time name="diag">    0.39    0.39</time>
   <time name="diis">    1.27    1.28</time>
   <time name="orth">    0.02    0.02</time>
   <time name="total">    3.56    3.57</time>
   <energy>
    <i name="e_fr_energy">    -24.02508342 </i>
    <i name="e_wo_entrp">    -24.05664179 </i>
    <i name="e_0_energy">    -24.03560288 </i>
   </energy>
  </scstep>
  <scstep>
   <time name="diag">    0.38    0.38</time>
   <time name="diis">    1.04    1.04</time>
   <time name="orth">    0.01    0.01</time>
   <time name="total">    3.31    3.32</time>
   <energy>
    <i name="e_fr_energy">    -24.02511962 </i>
    <i name="e_wo_entrp">    -24.05668326 </i>
    <i name="e_0_energy">    -24.03564083 </i>
   </energy>
  </scstep>
  <scstep>
   <time name="diag">    0.43    0.43</time>
   <time name="diis">    1.11    1.11</time>
   <time name="orth">    0.01    0.01</time>
   <time name="total">    3.53    3.54</time>
   <energy>
    <i name="e_fr_energy">    -24.02513044 </i>
    <i name="e_wo_entrp">    -24.05669246 </i>
    <i name="e_0_energy">    -24.03565111 </i>
   </energy>
  </scstep>
  <scstep>
   <time name="diag">    0.42    0.42</time>
   <time name="diis">    1.05    1.05</time>
   <time name="orth">    0.01    0.01</time>
   <time name="total">    3.43    3.44</time>
   <energy>
    <i name="e_fr_energy">    -24.02513335 </i>
    <i name="e_wo_entrp">    -24.05669527 </i>
    <i name="e_0_energy">    -24.03565399 </i>
   </energy>
  </scstep>
  <scstep>
   <time name="diag">    0.42    0.42</time>
   <time name="diis">    1.02    1.02</time>
   <time name="orth">    0.01    0.01</time>
   <time name="total">    3.23    3.24</time>
   <energy>
    <i name="alphaZ">      0.23440060 </i>
    <i name="ewald">    127.03001498 </i>
    <i name="hartreedc">   -283.17264174 </i>
    <i name="XCdc">     24.60050009 </i>
    <i name="pawpsdc">    429.82820346 </i>
    <i name="pawaedc">   -430.60561334 </i>
    <i name="eentropy">      0.03156147 </i>
    <i name="bandstr">    -89.01331422 </i>
    <i name="atom">    197.04175453 </i>
    <i name="e_fr_energy">    -24.02513418 </i>
    <i name="e_wo_entrp">    -24.05669565 </i>
    <i name="e_0_energy">    -24.03565467 </i>
   </energy>
  </scstep>
  <structure>
   <crystal>
    <varray name="basis" >
     <v>      10.08470626       0.00000000       0.00000000 </v>
     <v>      -0.18048084      10.25060659       0.00000000 </v>
     <v>       0.06613931      -0.27548462       9.99755210 </v>
    </varray>
    <i name="volume">   1033.49051404 </i>
    <varray name="rec_basis" >
     <v>       0.09916005       0.00174590      -0.00060789 </v>
     <v>      -0.00000000       0.09755520       0.00268815 </v>
     <v>       0.00000000      -0.00000000       0.10002448 </v>
    </varray>
   </crystal>
   <varray name="positions" >
    <v>       0.53848731       0.40668926       0.36016628 </v>
    <v>       0.39455096       0.48033113       0.43846966 </v>
    <v>       0.55207578       0.56532578       0.44284580 </v>
    <v>       0.52813922       0.41638054       0.53916170 </v>
    <v>       0.50371767       0.46804278       0.44497419 </v>
   </varray>
  </structure>
  <varray name="forces" >
   <v>      -0.17002073      -0.14672912      -0.11582586 </v>
   <v>       0.65350254       0.54865596       0.96971372 </v>
   <v>      -0.18816097      -0.32600962       0.05814593 </v>
   <v>      -0.26932535       0.55544720      -0.31344567 </v>
   <v>      -1.72392648       0.69085866      -0.14341391 </v>
  </varray>
  <varray name="stress" >
   <v>      -1.13988642      -0.16061244      -0.13539305 </v>
   <v>      -0.16061244       0.39843808       0.20621568 </v>
   <v>      -0.13539305       0.20621567      -0.36441021 </v>
  </varray>
  <energy>
   <i name="e_fr_energy">    -24.02513418 </i>
   <i name="e_wo_entrp">    -24.03565467 </i>
   <i name="e_0_energy">      0.03156147 </i>
   <i name="kinetic">      0.04738608 </i>
   <i name="lattice kinetic">      0.00000000 </i>
   <i name="nosepot">      0.00000000 </i>
   <i name="nosekinetic">      0.00005561 </i>
   <i name="total">    -23.97769249 </i>
  </energy>
  <dos>
   <i name="efermi">     -9.00797117 </i>
   <total>
    <array>
     <dimension dim="1">gridpoints</dimension>
     <dimension dim="2">spin</dimension>
     <field>energy</field>
     <field>total</field>
     <field>integrated</field>
     <set>
      <set comment="spin 1">
       <r>   -18.7943     0.0000     0.0000 </r>
       <r>   -18.7227     0.0000     0.0000 </r>
       <r>   -18.6510     0.0000     0.0000 </r>
       <r>   -18.5794     0.0000     0.0000 </r>
       <r>   -18.5078     0.0000     0.0000 </r>
       <r>   -18.4362    -0.0000    -0.0000 </r>
       <r>   -18.3646    -0.0000    -0.0000 </r>
       <r>   -18.2930    -0.0000    -0.0000 </r>
       <r>   -18.2214    -0.0000    -0.0000 </r>
       <r>   -18.1497    -0.0000    -0.0000 </r>
       <r>   -18.0781    -0.0000    -0.0000 </r>
       <r>   -18.0065    -0.0000    -0.0000 </r>
       <r>   -17.9349    -0.0000    -0.0000 </r>
       <r>   -17.8633    -0.0000    -0.0000 </r>
       <r>   -17.7917    -0.0000    -0.0000 </r>
       <r>   -17.7200    -0.0000    -0.0000 </r>
       <r>   -17.6484    -0.0000    -0.0000 </r>
       <r>   -17.5768    -0.0000    -0.0000 </r>
       <r>   -17.5052    -0.0001    -0.0000 </r>
       <r>   -17.4336    -0.0007    -0.0001 </r>
       <r>   -17.3620    -0.0054    -0.0004 </r>
       <r>   -17.2904    -0.0290    -0.0025 </r>
       <r>   -17.2187    -0.1121    -0.0106 </r>
       <r>   -17.1471    -0.2950    -0.0317 </r>
       <r>   -17.0755    -0.4385    -0.0631 </r>
       <r>   -17.0039     0.0590    -0.0589 </r>
       <r>   -16.9323     2.0405     0.0873 </r>
       <r>   -16.8607     5.3572     0.4709 </r>
       <r>   -16.7890     8.0036     1.0441 </r>
       <r>   -16.7174     7.7629     1.6001 </r>
       <r>   -16.6458     4.8518     1.9475 </r>
       <r>   -16.5742     1.6447     2.0653 </r>
       <r>   -16.5026    -0.0890     2.0589 </r>
       <r>   -16.4310    -0.4372     2.0276 </r>
       <r>   -16.3594    -0.2635     2.0087 </r>
       <r>   -16.2877    -0.0941     2.0020 </r>
       <r>   -16.2161    -0.0232     2.0003 </r>
       <r>   -16.1445    -0.0041     2.0000 </r>
       <r>   -16.0729    -0.0005     2.0000 </r>
       <r>   -16.0013    -0.0001     2.0000 </r>
       <r>   -15.9297    -0.0000     2.0000 </r>
       <r>   -15.8580    -0.0000     2.0000 </r>
       <r>   -15.7864    -0.0000     2.0000 </r>
       <r>   -15.7148    -0.0000     2.0000 </r>
       <r>   -15.6432    -0.0000     2.0000 </r>
       <r>   -15.5716    -0.0000     2.0000 </r>
       <r>   -15.5000     0.0000     2.0000 </r>
       <r>   -15.4284     0.0000     2.0000 </r>
       <r>   -15.3567     0.0000     2.0000 </r>
       <r>   -15.2851     0.0000     2.0000 </r>
       <r>   -15.2135     0.0000     2.0000 </r>
       <r>   -15.1419     0.0000     2.0000 </r>
       <r>   -15.0703     0.0000     2.0000 </r>
       <r>   -14.9987     0.0000     2.0000 </r>
       <r>   -14.9270     0.0000     2.0000 </r>
       <r>   -14.8554     0.0000     2.0000 </r>
       <r>   -14.7838     0.0000     2.0000 </r>
       <r>   -14.7122     0.0000     2.0000 </r>
       <r>   -14.6406     0.0000     2.0000 </r>
       <r>   -14.5690     0.0000     2.0000 </r>
       <r>   -14.4974     0.0000     2.0000 </r>
       <r>   -14.4257     0.0000     2.0000 </r>
       <r>   -14.3541     0.0000     2.0000 </r>
       <r>   -14.2825     0.0000     2.0000 </r>
       <r>   -14.2109     0.0000     2.0000 </r>
       <r>   -14.1393     0.0000     2.0000 </r>
       <r>   -14.0677     0.0000     2.0000 </r>
       <r>   -13.9960     0.0000     2.0000 </r>
       <r>   -13.9244     0.0000     2.0000 </r>
       <r>   -13.8528     0.0000     2.0000 </r>
       <r>   -13.7812     0.0000     2.0000 </r>
       <r>   -13.7096     0.0000     2.0000 </r>
       <r>   -13.6380     0.0000     2.0000 </r>
       <r>   -13.5664     0.0000     2.0000 </r>
       <r>   -13.4947     0.0000     2.0000 </r>
       <r>   -13.4231     0.0000     2.0000 </r>
       <r>   -13.3515     0.0000     2.0000 </r>
       <r>   -13.2799     0.0000     2.0000 </r>
       <r>   -13.2083     0.0000     2.0000 </r>
       <r>   -13.1367     0.0000     2.0000 </r>
       <r>   -13.0650     0.0000     2.0000 </r>
       <r>   -12.9934     0.0000     2.0000 </r>
       <r>   -12.9218     0.0000     2.0000 </r>
       <r>   -12.8502     0.0000     2.0000 </r>
       <r>   -12.7786     0.0000     2.0000 </r>
       <r>   -12.7070     0.0000     2.0000 </r>
       <r>   -12.6353     0.0000     2.0000 </r>
       <r>   -12.5637     0.0000     2.0000 </r>
       <r>   -12.4921     0.0000     2.0000 </r>
       <r>   -12.4205     0.0000     2.0000 </r>
       <r>   -12.3489     0.0000     2.0000 </r>
       <r>   -12.2773     0.0000     2.0000 </r>
       <r>   -12.2057     0.0000     2.0000 </r>
       <r>   -12.1340     0.0000     2.0000 </r>
       <r>   -12.0624     0.0000     2.0000 </r>
       <r>   -11.9908     0.0000     2.0000 </r>
       <r>   -11.9192     0.0000     2.0000 </r>
       <r>   -11.8476     0.0000     2.0000 </r>
       <r>   -11.7760     0.0000     2.0000 </r>
       <r>   -11.7043     0.0000     2.0000 </r>
       <r>   -11.6327     0.0000     2.0000 </r>
       <r>   -11.5611     0.0000     2.0000 </r>
       <r>   -11.4895     0.0000     2.0000 </r>
       <r>   -11.4179     0.0000     2.0000 </r>
       <r>   -11.3463     0.0000     2.0000 </r>
       <r>   -11.2747     0.0000     2.0000 </r>
       <r>   -11.2030     0.0000     2.0000 </r>
       <r>   -11.1314     0.0000     2.0000 </r>
       <r>   -11.0598     0.0000     2.0000 </r>
       <r>   -10.9882    -0.0000     2.0000 </r>
       <r>   -10.9166    -0.0000     2.0000 </r>
       <r>   -10.8450    -0.0000     2.0000 </r>
       <r>   -10.7733    -0.0000     2.0000 </r>
       <r>   -10.7017    -0.0000     2.0000 </r>
       <r>   -10.6301    -0.0000     2.0000 </r>
       <r>   -10.5585    -0.0000     2.0000 </r>
       <r>   -10.4869    -0.0000     2.0000 </r>
       <r>   -10.4153    -0.0000     2.0000 </r>
       <r>   -10.3437    -0.0000     2.0000 </r>
       <r>   -10.2720    -0.0000     2.0000 </r>
       <r>   -10.2004    -0.0000     2.0000 </r>
       <r>   -10.1288    -0.0000     2.0000 </r>
       <r>   -10.0572    -0.0001     2.0000 </r>
       <r>    -9.9856    -0.0013     1.9999 </r>
       <r>    -9.9140    -0.0085     1.9993 </r>
       <r>    -9.8423    -0.0423     1.9963 </r>
       <r>    -9.7707    -0.1530     1.9853 </r>
       <r>    -9.6991    -0.3789     1.9582 </r>
       <r>    -9.6275    -0.5475     1.9190 </r>
       <r>    -9.5559    -0.0348     1.9165 </r>
       <r>    -9.4843     1.9745     2.0579 </r>
       <r>    -9.4127     5.6588     2.4631 </r>
       <r>    -9.3410    10.3274     3.2027 </r>
       <r>    -9.2694    15.0002     4.2770 </r>
       <r>    -9.1978    18.1304     5.5754 </r>
       <r>    -9.1262    17.4134     6.8225 </r>
       <r>    -9.0546    12.2137     7.6971 </r>
       <r>    -8.9830     5.4330     8.0862 </r>
       <r>    -8.9113     0.7679     8.1412 </r>
       <r>    -8.8397    -0.8218     8.0824 </r>
       <r>    -8.7681    -0.7189     8.0309 </r>
       <r>    -8.6965    -0.3161     8.0083 </r>
       <r>    -8.6249    -0.0925     8.0016 </r>
       <r>    -8.5533    -0.0194     8.0002 </r>
       <r>    -8.4817    -0.0030     8.0000 </r>
       <r>    -8.4100    -0.0003     8.0000 </r>
       <r>    -8.3384    -0.0000     8.0000 </r>
       <r>    -8.2668    -0.0000     8.0000 </r>
       <r>    -8.1952    -0.0000     8.0000 </r>
       <r>    -8.1236    -0.0000     8.0000 </r>
       <r>    -8.0520    -0.0000     8.0000 </r>
       <r>    -7.9803    -0.0000     8.0000 </r>
       <r>    -7.9087    -0.0000     8.0000 </r>
       <r>    -7.8371     0.0000     8.0000 </r>
       <r>    -7.7655     0.0000     8.0000 </r>
       <r>    -7.6939     0.0000     8.0000 </r>
       <r>    -7.6223     0.0000     8.0000 </r>
       <r>    -7.5507     0.0000     8.0000 </r>
       <r>    -7.4790     0.0000     8.0000 </r>
       <r>    -7.4074     0.0000     8.0000 </r>
       <r>    -7.3358     0.0000     8.0000 </r>
       <r>    -7.2642     0.0000     8.0000 </r>
       <r>    -7.1926     0.0000     8.0000 </r>
       <r>    -7.1210     0.0000     8.0000 </r>
       <r>    -7.0493     0.0000     8.0000 </r>
       <r>    -6.9777     0.0000     8.0000 </r>
       <r>    -6.9061     0.0000     8.0000 </r>
       <r>    -6.8345     0.0000     8.0000 </r>
       <r>    -6.7629     0.0000     8.0000 </r>
       <r>    -6.6913     0.0000     8.0000 </r>
       <r>    -6.6197     0.0000     8.0000 </r>
       <r>    -6.5480     0.0000     8.0000 </r>
       <r>    -6.4764     0.0000     8.0000 </r>
       <r>    -6.4048     0.0000     8.0000 </r>
       <r>    -6.3332     0.0000     8.0000 </r>
       <r>    -6.2616     0.0000     8.0000 </r>
       <r>    -6.1900     0.0000     8.0000 </r>
       <r>    -6.1183     0.0000     8.0000 </r>
       <r>    -6.0467     0.0000     8.0000 </r>
       <r>    -5.9751     0.0000     8.0000 </r>
       <r>    -5.9035     0.0000     8.0000 </r>
       <r>    -5.8319     0.0000     8.0000 </r>
       <r>    -5.7603     0.0000     8.0000 </r>
       <r>    -5.6887     0.0000     8.0000 </r>
       <r>    -5.6170     0.0000     8.0000 </r>
       <r>    -5.5454     0.0000     8.0000 </r>
       <r>    -5.4738     0.0000     8.0000 </r>
       <r>    -5.4022     0.0000     8.0000 </r>
       <r>    -5.3306     0.0000     8.0000 </r>
       <r>    -5.2590     0.0000     8.0000 </r>
       <r>    -5.1873     0.0000     8.0000 </r>
       <r>    -5.1157     0.0000     8.0000 </r>
       <r>    -5.0441     0.0000     8.0000 </r>
       <r>    -4.9725     0.0000     8.0000 </r>
       <r>    -4.9009     0.0000     8.0000 </r>
       <r>    -4.8293     0.0000     8.0000 </r>
       <r>    -4.7576     0.0000     8.0000 </r>
       <r>    -4.6860     0.0000     8.0000 </r>
       <r>    -4.6144     0.0000     8.0000 </r>
       <r>    -4.5428     0.0000     8.0000 </r>
       <r>    -4.4712     0.0000     8.0000 </r>
       <r>    -4.3996     0.0000     8.0000 </r>
       <r>    -4.3280     0.0000     8.0000 </r>
       <r>    -4.2563     0.0000     8.0000 </r>
       <r>    -4.1847     0.0000     8.0000 </r>
       <r>    -4.1131     0.0000     8.0000 </r>
       <r>    -4.0415     0.0000     8.0000 </r>
       <r>    -3.9699     0.0000     8.0000 </r>
       <r>    -3.8983     0.0000     8.0000 </r>
       <r>    -3.8266     0.0000     8.0000 </r>
       <r>    -3.7550     0.0000     8.0000 </r>
       <r>    -3.6834     0.0000     8.0000 </r>
       <r>    -3.6118     0.0000     8.0000 </r>
       <r>    -3.5402     0.0000     8.0000 </r>
       <r>    -3.4686     0.0000     8.0000 </r>
       <r>    -3.3970     0.0000     8.0000 </r>
       <r>    -3.3253     0.0000     8.0000 </r>
       <r>    -3.2537     0.0000     8.0000 </r>
       <r>    -3.1821     0.0000     8.0000 </r>
       <r>    -3.1105     0.0000     8.0000 </r>
       <r>    -3.0389     0.0000     8.0000 </r>
       <r>    -2.9673     0.0000     8.0000 </r>
       <r>    -2.8956     0.0000     8.0000 </r>
       <r>    -2.8240     0.0000     8.0000 </r>
       <r>    -2.7524     0.0000     8.0000 </r>
       <r>    -2.6808     0.0000     8.0000 </r>
       <r>    -2.6092     0.0000     8.0000 </r>
       <r>    -2.5376     0.0000     8.0000 </r>
       <r>    -2.4660     0.0000     8.0000 </r>
       <r>    -2.3943     0.0000     8.0000 </r>
       <r>    -2.3227     0.0000     8.0000 </r>
       <r>    -2.2511     0.0000     8.0000 </r>
       <r>    -2.1795     0.0000     8.0000 </r>
       <r>    -2.1079     0.0000     8.0000 </r>
       <r>    -2.0363     0.0000     8.0000 </r>
       <r>    -1.9646    -0.0000     8.0000 </r>
       <r>    -1.8930    -0.0000     8.0000 </r>
       <r>    -1.8214    -0.0000     8.0000 </r>
       <r>    -1.7498    -0.0000     8.0000 </r>
       <r>    -1.6782    -0.0000     8.0000 </r>
       <r>    -1.6066    -0.0000     8.0000 </r>
       <r>    -1.5350    -0.0000     8.0000 </r>
       <r>    -1.4633    -0.0000     8.0000 </r>
       <r>    -1.3917    -0.0000     8.0000 </r>
       <r>    -1.3201    -0.0000     8.0000 </r>
       <r>    -1.2485    -0.0000     8.0000 </r>
       <r>    -1.1769    -0.0000     8.0000 </r>
       <r>    -1.1053    -0.0000     8.0000 </r>
       <r>    -1.0336    -0.0001     8.0000 </r>
       <r>    -0.9620    -0.0012     7.9999 </r>
       <r>    -0.8904    -0.0079     7.9993 </r>
       <r>    -0.8188    -0.0398     7.9965 </r>
       <r>    -0.7472    -0.1425     7.9863 </r>
       <r>    -0.6756    -0.3404     7.9619 </r>
       <r>    -0.6040    -0.4162     7.9321 </r>
       <r>    -0.5323     0.3346     7.9561 </r>
       <r>    -0.4607     2.6721     8.1474 </r>
       <r>    -0.3891     6.0632     8.5816 </r>
       <r>    -0.3175     8.2314     9.1711 </r>
       <r>    -0.2459     7.3048     9.6943 </r>
       <r>    -0.1743     4.1125     9.9888 </r>
       <r>    -0.1026     1.1339    10.0700 </r>
       <r>    -0.0310    -0.2553    10.0517 </r>
       <r>     0.0406    -0.4509    10.0194 </r>
       <r>     0.1122    -0.3537     9.9941 </r>
       <r>     0.1838    -0.4565     9.9614 </r>
       <r>     0.2554    -0.7376     9.9086 </r>
       <r>     0.3270    -0.5657     9.8681 </r>
       <r>     0.3987     1.3567     9.9652 </r>
       <r>     0.4703     6.1916    10.4086 </r>
       <r>     0.5419    13.3382    11.3639 </r>
       <r>     0.6135    19.6081    12.7681 </r>
       <r>     0.6851    20.9566    14.2689 </r>
       <r>     0.7567    16.1176    15.4232 </r>
       <r>     0.8284     8.2666    16.0152 </r>
       <r>     0.9000     2.0299    16.1606 </r>
       <r>     0.9716    -0.6546    16.1137 </r>
       <r>     1.0432    -0.9113    16.0484 </r>
       <r>     1.1148    -0.4743    16.0145 </r>
       <r>     1.1864    -0.1577    16.0032 </r>
       <r>     1.2580    -0.0371    16.0005 </r>
       <r>     1.3297    -0.0064    16.0001 </r>
       <r>     1.4013    -0.0008    16.0000 </r>
       <r>     1.4729    -0.0001    16.0000 </r>
       <r>     1.5445    -0.0000    16.0000 </r>
       <r>     1.6161    -0.0000    16.0000 </r>
       <r>     1.6877    -0.0000    16.0000 </r>
       <r>     1.7594    -0.0000    16.0000 </r>
       <r>     1.8310    -0.0000    16.0000 </r>
       <r>     1.9026    -0.0000    16.0000 </r>
       <r>     1.9742    -0.0000    16.0000 </r>
       <r>     2.0458     0.0000    16.0000 </r>
       <r>     2.1174     0.0000    16.0000 </r>
       <r>     2.1890     0.0000    16.0000 </r>
       <r>     2.2607     0.0000    16.0000 </r>
       <r>     2.3323     0.0000    16.0000 </r>
       <r>     2.4039     0.0000    16.0000 </r>
       <r>     2.4755     0.0000    16.0000 </r>
       <r>     2.5471     0.0000    16.0000 </r>
       <r>     2.6187     0.0000    16.0000 </r>
       <r>     2.6904     0.0000    16.0000 </r>
      </set>
     </set>
    </array>
   </total>
  </dos>
  <time name="totalsc">   81.80   82.00</time>
 </calculation>
 <calculation>
  <scstep>
   <time name="dav">    1.95    1.95</time>
   <time name="total">    4.05    4.07</time>
   <energy>
    <i name="alphaZ">      0.23440060 </i>
    <i name="ewald">    129.11251527 </i>
    <i name="hartreedc">   -284.34500205 </i>
    <i name="XCdc">     24.65977500 </i>
    <i name="pawpsdc">    429.82210875 </i>
    <i name="pawaedc">   -430.59952572 </i>
    <i name="eentropy">      0.01678877 </i>
    <i name="bandstr">    -89.94127361 </i>
    <i name="atom">    197.04175453 </i>
    <i name="e_fr_energy">    -23.99845846 </i>
    <i name="e_wo_entrp">    -24.01524723 </i>
    <i name="e_0_energy">    -24.00405472 </i>
   </energy>
  </scstep>
  <scstep>
   <time name="diag">    0.42    0.43</time>
   <time name="diis">    1.41    1.41</time>
   <time name="orth">    0.01    0.01</time>
   <time name="total">    3.70    3.71</time>
   <energy>
    <i name="e_fr_energy">    -23.99921349 </i>
    <i name="e_wo_entrp">    -24.01555685 </i>
    <i name="e_0_energy">    -24.00466127 </i>
   </energy>
  </scstep>
  <scstep>
   <time name="diag">    0.43    0.43</time>
   <time name="diis">    1.37    1.37</time>
   <time name="orth">    0.01    0.01</time>
   <time name="total">    3.67    3.67</time>
   <energy>
    <i name="e_fr_energy">    -23.99706956 </i>
    <i name="e_wo_entrp">    -24.01286764 </i>
    <i name="e_0_energy">    -24.00233559 </i>
   </energy>
  </scstep>
  <scstep>
   <time name="diag">    0.44    0.44</time>
   <time name="diis">    1.40    1.40</time>
   <time name="orth">    0.01    0.01</time>
   <time name="total">    3.69    3.70</time>
   <energy>
    <i name="e_fr_energy">    -23.99923378 </i>
    <i name="e_wo_entrp">    -24.01519302 </i>
    <i name="e_0_energy">    -24.00455352 </i>
   </energy>
  </scstep>
  <scstep>
   <time name="diag">    0.52    0.52</time>
   <time name="diis">    1.39    1.39</time>
   <time name="orth">    0.01    0.01</time>
   <time name="total">    3.68    3.69</time>
   <energy>
    <i name="e_fr_energy">    -23.99913898 </i>
    <i name="e_wo_entrp">    -24.01577268 </i>
    <i name="e_0_energy">    -24.00468355 </i>
   </energy>
  </scstep>
  <scstep>
   <time name="diag">    0.52    0.52</time>
   <time name="diis">    1.39    1.39</time>
   <time name="orth">    0.01    0.01</time>
   <time name="total">    3.69    3.70</time>
   <energy>
    <i name="e_fr_energy">    -23.99895291 </i>
    <i name="e_wo_entrp">    -24.01605090 </i>
    <i name="e_0_energy">    -24.00465224 </i>
   </energy>
  </scstep>
  <scstep>
   <time name="diag">    0.53    0.54</time>
   <time name="diis">    1.41    1.41</time>
   <time name="orth">    0.01    0.01</time>
   <time name="total">    3.74    3.75</time>
   <energy>
    <i name="e_fr_energy">    -23.99897061 </i>
    <i name="e_wo_entrp">    -24.01641759 </i>
    <i name="e_0_energy">    -24.00478627 </i>
   </energy>
  </scstep>
  <scstep>
   <time name="diag">    0.50    0.50</time>
   <time name="diis">    1.42    1.43</time>
   <time name="orth">    0.01    0.01</time>
   <time name="total">    3.72    3.73</time>
   <energy>
    <i name="e_fr_energy">    -23.99900588 </i>
    <i name="e_wo_entrp">    -24.01687014 </i>
    <i name="e_0_energy">    -24.00496064 </i>
   </energy>
  </scstep>
  <scstep>
   <time name="diag">    0.44    0.44</time>
   <time name="diis">    1.46    1.46</time>
   <time name="orth">    0.01    0.01</time>
   <time name="total">    3.71    3.72</time>
   <energy>
    <i name="e_fr_energy">    -23.99906654 </i>
    <i name="e_wo_entrp">    -24.01720105 </i>
    <i name="e_0_energy">    -24.00511137 </i>
   </energy>
  </scstep>
  <scstep>
   <time name="diag">    0.41    0.41</time>
   <time name="diis">    1.45    1.46</time>
   <time name="orth">    0.01    0.01</time>
   <time name="total">    3.71    3.73</time>
   <energy>
    <i name="e_fr_energy">    -23.99908831 </i>
    <i name="e_wo_entrp">    -24.01723825 </i>
    <i name="e_0_energy">    -24.00513829 </i>
   </energy>
  </scstep>
  <scstep>
   <time name="diag">    0.42    0.42</time>
   <time name="diis">    1.47    1.47</time>
   <time name="orth">    0.01    0.01</time>
   <time name="total">    3.76    3.77</time>
   <energy>
    <i name="e_fr_energy">    -23.99909708 </i>
    <i name="e_wo_entrp">    -24.01724173 </i>
    <i name="e_0_energy">    -24.00514530 </i>
   </energy>
  </scstep>
  <scstep>
   <time name="diag">    0.42    0.42</time>
   <time name="diis">    1.20    1.20</time>
   <time name="orth">    0.01    0.01</time>
   <time name="total">    3.51    3.52</time>
   <energy>
    <i name="e_fr_energy">    -23.99910506 </i>
    <i name="e_wo_entrp">    -24.01721783 </i>
    <i name="e_0_energy">    -24.00514265 </i>
   </energy>
  </scstep>
  <scstep>
   <time name="diag">    0.42    0.42</time>
   <time name="diis">    1.20    1.21</time>
   <time name="orth">    0.01    0.01</time>
   <time name="total">    3.52    3.53</time>
   <energy>
    <i name="e_fr_energy">    -23.99910724 </i>
    <i name="e_wo_entrp">    -24.01721047 </i>
    <i name="e_0_energy">    -24.00514165 </i>
   </energy>
  </scstep>
  <scstep>
   <time name="diag">    0.42    0.42</time>
   <time name="diis">    1.13    1.14</time>
   <time name="orth">    0.01    0.01</time>
   <time name="total">    3.50    3.51</time>
   <energy>
    <i name="e_fr_energy">    -23.99910858 </i>
    <i name="e_wo_entrp">    -24.01720288 </i>
    <i name="e_0_energy">    -24.00514001 </i>
   </energy>
  </scstep>
  <scstep>
   <time name="diag">    0.41    0.41</time>
   <time name="diis">    1.07    1.08</time>
   <time name="orth">    0.02    0.02</time>
   <time name="total">    3.21    3.22</time>
   <energy>
    <i name="alphaZ">      0.23440060 </i>
    <i name="ewald">    129.11251527 </i>
    <i name="hartreedc">   -284.95927603 </i>
    <i name="XCdc">     24.69473349 </i>
    <i name="pawpsdc">    437.88121240 </i>
    <i name="pawaedc">   -438.66571242 </i>
    <i name="eentropy">      0.01809357 </i>
    <i name="bandstr">    -89.35683037 </i>
    <i name="atom">    197.04175453 </i>
    <i name="e_fr_energy">    -23.99910896 </i>
    <i name="e_wo_entrp">    -24.01720254 </i>
    <i name="e_0_energy">    -24.00514015 </i>
   </energy>
  </scstep>
  <structure>
   <crystal>
    <varray name="basis" >
     <v>      10.08470626       0.00000000       0.00000000 </v>
     <v>      -0.18048084      10.25060659       0.00000000 </v>
     <v>       0.06613931      -0.27548462       9.99755210 </v>
    </varray>
    <i name="volume">   1033.49051404 </i>
    <varray name="rec_basis" >
     <v>       0.09916005       0.00174590      -0.00060789 </v>
     <v>      -0.00000000       0.09755520       0.00268815 </v>
     <v>       0.00000000      -0.00000000       0.10002448 </v>
    </varray>
   </crystal>
   <varray name="positions" >
    <v>       0.53958952       0.40363185       0.35804235 </v>
    <v>       0.39768086       0.48315741       0.44256595 </v>
    <v>       0.55133020       0.56336540       0.44454876 </v>
    <v>       0.52522635       0.41809724       0.53848779 </v>
    <v>       0.50366991       0.46808231       0.44472430 </v>
   </varray>
  </structure>
  <varray name="forces" >
   <v>      -0.51253046       0.80099619       0.60293976 </v>
   <v>      -0.15402026      -0.91798108      -0.21652271 </v>
   <v>       0.40244702       0.91892824      -0.33783189 </v>
   <v>       0.33824116      -0.07097052       0.01641001 </v>
   <v>      -1.13611440      -0.31499491      -0.83624999 </v>
  </varray>
  <varray name="stress" >
   <v>       0.84150266       1.24239361       0.87521731 </v>
   <v>       1.24239361       0.20641254      -1.12182604 </v>
   <v>       0.87521731      -1.12182605      -1.99146257 </v>
  </varray>
  <energy>
   <i name="e_fr_energy">    -23.99910896 </i>
   <i name="e_wo_entrp">    -24.00514015 </i>
   <i name="e_0_energy">      0.01809357 </i>
   <i name="kinetic">      0.04788620 </i>
   <i name="lattice kinetic">      0.00000000 </i>
   <i name="nosepot">      0.00052997 </i>
   <i name="nosekinetic">      0.00050843 </i>
   <i name="total">    -23.95018436 </i>
  </energy>
  <dos>
   <i name="efermi">     -8.91342505 </i>
   <total>
    <array>
     <dimension dim="1">gridpoints</dimension>
     <dimension dim="2">spin</dimension>
     <field>energy</field>
     <field>total</field>
     <field>integrated</field>
     <set>
      <set comment="spin 1">
       <r>   -18.8715     0.0000     0.0000 </r>
       <r>   -18.7996     0.0000     0.0000 </r>
       <r>   -18.7277     0.0000     0.0000 </r>
       <r>   -18.6559     0.0000     0.0000 </r>
       <r>   -18.5840     0.0000     0.0000 </r>
       <r>   -18.5121    -0.0000    -0.0000 </r>
       <r>   -18.4402    -0.0000    -0.0000 </r>
       <r>   -18.3683    -0.0000    -0.0000 </r>
       <r>   -18.2964    -0.0000    -0.0000 </r>
       <r>   -18.2245    -0.0000    -0.0000 </r>
       <r>   -18.1526    -0.0000    -0.0000 </r>
       <r>   -18.0807    -0.0000    -0.0000 </r>
       <r>   -18.0088    -0.0000    -0.0000 </r>
       <r>   -17.9370    -0.0000    -0.0000 </r>
       <r>   -17.8651    -0.0000    -0.0000 </r>
       <r>   -17.7932    -0.0000    -0.0000 </r>
       <r>   -17.7213    -0.0000    -0.0000 </r>
       <r>   -17.6494    -0.0000    -0.0000 </r>
       <r>   -17.5775    -0.0001    -0.0000 </r>
       <r>   -17.5056    -0.0009    -0.0001 </r>
       <r>   -17.4337    -0.0062    -0.0005 </r>
       <r>   -17.3618    -0.0327    -0.0029 </r>
       <r>   -17.2899    -0.1234    -0.0117 </r>
       <r>   -17.2180    -0.3137    -0.0343 </r>
       <r>   -17.1462    -0.4328    -0.0654 </r>
       <r>   -17.0743     0.1725    -0.0530 </r>
       <r>   -17.0024     2.3253     0.1142 </r>
       <r>   -16.9305     5.7023     0.5241 </r>
       <r>   -16.8586     8.1358     1.1090 </r>
       <r>   -16.7867     7.5407     1.6511 </r>
       <r>   -16.7148     4.4553     1.9714 </r>
       <r>   -16.6429     1.3526     2.0686 </r>
       <r>   -16.5710    -0.1881     2.0551 </r>
       <r>   -16.4991    -0.4277     2.0243 </r>
       <r>   -16.4273    -0.2365     2.0073 </r>
       <r>   -16.3554    -0.0798     2.0016 </r>
       <r>   -16.2835    -0.0187     2.0003 </r>
       <r>   -16.2116    -0.0032     2.0000 </r>
       <r>   -16.1397    -0.0004     2.0000 </r>
       <r>   -16.0678    -0.0000     2.0000 </r>
       <r>   -15.9959    -0.0000     2.0000 </r>
       <r>   -15.9240    -0.0000     2.0000 </r>
       <r>   -15.8521    -0.0000     2.0000 </r>
       <r>   -15.7802    -0.0000     2.0000 </r>
       <r>   -15.7084    -0.0000     2.0000 </r>
       <r>   -15.6365    -0.0000     2.0000 </r>
       <r>   -15.5646     0.0000     2.0000 </r>
       <r>   -15.4927     0.0000     2.0000 </r>
       <r>   -15.4208     0.0000     2.0000 </r>
       <r>   -15.3489     0.0000     2.0000 </r>
       <r>   -15.2770     0.0000     2.0000 </r>
       <r>   -15.2051     0.0000     2.0000 </r>
       <r>   -15.1332     0.0000     2.0000 </r>
       <r>   -15.0613     0.0000     2.0000 </r>
       <r>   -14.9895     0.0000     2.0000 </r>
       <r>   -14.9176     0.0000     2.0000 </r>
       <r>   -14.8457     0.0000     2.0000 </r>
       <r>   -14.7738     0.0000     2.0000 </r>
       <r>   -14.7019     0.0000     2.0000 </r>
       <r>   -14.6300     0.0000     2.0000 </r>
       <r>   -14.5581     0.0000     2.0000 </r>
       <r>   -14.4862     0.0000     2.0000 </r>
       <r>   -14.4143     0.0000     2.0000 </r>
       <r>   -14.3424     0.0000     2.0000 </r>
       <r>   -14.2706     0.0000     2.0000 </r>
       <r>   -14.1987     0.0000     2.0000 </r>
       <r>   -14.1268     0.0000     2.0000 </r>
       <r>   -14.0549     0.0000     2.0000 </r>
       <r>   -13.9830     0.0000     2.0000 </r>
       <r>   -13.9111     0.0000     2.0000 </r>
       <r>   -13.8392     0.0000     2.0000 </r>
       <r>   -13.7673     0.0000     2.0000 </r>
       <r>   -13.6954     0.0000     2.0000 </r>
       <r>   -13.6235     0.0000     2.0000 </r>
       <r>   -13.5516     0.0000     2.0000 </r>
       <r>   -13.4798     0.0000     2.0000 </r>
       <r>   -13.4079     0.0000     2.0000 </r>
       <r>   -13.3360     0.0000     2.0000 </r>
       <r>   -13.2641     0.0000     2.0000 </r>
       <r>   -13.1922     0.0000     2.0000 </r>
       <r>   -13.1203     0.0000     2.0000 </r>
       <r>   -13.0484     0.0000     2.0000 </r>
       <r>   -12.9765     0.0000     2.0000 </r>
       <r>   -12.9046     0.0000     2.0000 </r>
       <r>   -12.8327     0.0000     2.0000 </r>
       <r>   -12.7609     0.0000     2.0000 </r>
       <r>   -12.6890     0.0000     2.0000 </r>
       <r>   -12.6171     0.0000     2.0000 </r>
       <r>   -12.5452     0.0000     2.0000 </r>
       <r>   -12.4733     0.0000     2.0000 </r>
       <r>   -12.4014     0.0000     2.0000 </r>
       <r>   -12.3295     0.0000     2.0000 </r>
       <r>   -12.2576     0.0000     2.0000 </r>
       <r>   -12.1857     0.0000     2.0000 </r>
       <r>   -12.1138     0.0000     2.0000 </r>
       <r>   -12.0420     0.0000     2.0000 </r>
       <r>   -11.9701     0.0000     2.0000 </r>
       <r>   -11.8982     0.0000     2.0000 </r>
       <r>   -11.8263     0.0000     2.0000 </r>
       <r>   -11.7544     0.0000     2.0000 </r>
       <r>   -11.6825     0.0000     2.0000 </r>
       <r>   -11.6106     0.0000     2.0000 </r>
       <r>   -11.5387     0.0000     2.0000 </r>
       <r>   -11.4668     0.0000     2.0000 </r>
       <r>   -11.3949     0.0000     2.0000 </r>
       <r>   -11.3231     0.0000     2.0000 </r>
       <r>   -11.2512     0.0000     2.0000 </r>
       <r>   -11.1793     0.0000     2.0000 </r>
       <r>   -11.1074    -0.0000     2.0000 </r>
       <r>   -11.0355    -0.0000     2.0000 </r>
       <r>   -10.9636    -0.0000     2.0000 </r>
       <r>   -10.8917    -0.0000     2.0000 </r>
       <r>   -10.8198    -0.0000     2.0000 </r>
       <r>   -10.7479    -0.0000     2.0000 </r>
       <r>   -10.6760    -0.0000     2.0000 </r>
       <r>   -10.6042    -0.0000     2.0000 </r>
       <r>   -10.5323    -0.0000     2.0000 </r>
       <r>   -10.4604    -0.0000     2.0000 </r>
       <r>   -10.3885    -0.0000     2.0000 </r>
       <r>   -10.3166    -0.0000     2.0000 </r>
       <r>   -10.2447    -0.0000     2.0000 </r>
       <r>   -10.1728    -0.0000     2.0000 </r>
       <r>   -10.1009    -0.0004     2.0000 </r>
       <r>   -10.0290    -0.0031     1.9997 </r>
       <r>    -9.9571    -0.0184     1.9984 </r>
       <r>    -9.8852    -0.0805     1.9926 </r>
       <r>    -9.8134    -0.2491     1.9747 </r>
       <r>    -9.7415    -0.4993     1.9388 </r>
       <r>    -9.6696    -0.4291     1.9080 </r>
       <r>    -9.5977     0.8673     1.9703 </r>
       <r>    -9.5258     4.0823     2.2638 </r>
       <r>    -9.4539     8.4871     2.8740 </r>
       <r>    -9.3820    11.9773     3.7350 </r>
       <r>    -9.3101    12.8936     4.6619 </r>
       <r>    -9.2382    11.6377     5.4986 </r>
       <r>    -9.1663    10.1100     6.2254 </r>
       <r>    -9.0945     9.3201     6.8954 </r>
       <r>    -9.0226     8.1906     7.4842 </r>
       <r>    -8.9507     5.5834     7.8856 </r>
       <r>    -8.8788     2.3681     8.0559 </r>
       <r>    -8.8069     0.2164     8.0714 </r>
       <r>    -8.7350    -0.4514     8.0390 </r>
       <r>    -8.6631    -0.3489     8.0139 </r>
       <r>    -8.5912    -0.1440     8.0035 </r>
       <r>    -8.5193    -0.0398     8.0007 </r>
       <r>    -8.4474    -0.0079     8.0001 </r>
       <r>    -8.3756    -0.0011     8.0000 </r>
       <r>    -8.3037    -0.0001     8.0000 </r>
       <r>    -8.2318    -0.0000     8.0000 </r>
       <r>    -8.1599    -0.0000     8.0000 </r>
       <r>    -8.0880    -0.0000     8.0000 </r>
       <r>    -8.0161    -0.0000     8.0000 </r>
       <r>    -7.9442    -0.0000     8.0000 </r>
       <r>    -7.8723    -0.0000     8.0000 </r>
       <r>    -7.8004    -0.0000     8.0000 </r>
       <r>    -7.7285     0.0000     8.0000 </r>
       <r>    -7.6567     0.0000     8.0000 </r>
       <r>    -7.5848     0.0000     8.0000 </r>
       <r>    -7.5129     0.0000     8.0000 </r>
       <r>    -7.4410     0.0000     8.0000 </r>
       <r>    -7.3691     0.0000     8.0000 </r>
       <r>    -7.2972     0.0000     8.0000 </r>
       <r>    -7.2253     0.0000     8.0000 </r>
       <r>    -7.1534     0.0000     8.0000 </r>
       <r>    -7.0815     0.0000     8.0000 </r>
       <r>    -7.0096     0.0000     8.0000 </r>
       <r>    -6.9378     0.0000     8.0000 </r>
       <r>    -6.8659     0.0000     8.0000 </r>
       <r>    -6.7940     0.0000     8.0000 </r>
       <r>    -6.7221     0.0000     8.0000 </r>
       <r>    -6.6502     0.0000     8.0000 </r>
       <r>    -6.5783     0.0000     8.0000 </r>
       <r>    -6.5064     0.0000     8.0000 </r>
       <r>    -6.4345     0.0000     8.0000 </r>
       <r>    -6.3626     0.0000     8.0000 </r>
       <r>    -6.2907     0.0000     8.0000 </r>
       <r>    -6.2188     0.0000     8.0000 </r>
       <r>    -6.1470     0.0000     8.0000 </r>
       <r>    -6.0751     0.0000     8.0000 </r>
       <r>    -6.0032     0.0000     8.0000 </r>
       <r>    -5.9313     0.0000     8.0000 </r>
       <r>    -5.8594     0.0000     8.0000 </r>
       <r>    -5.7875     0.0000     8.0000 </r>
       <r>    -5.7156     0.0000     8.0000 </r>
       <r>    -5.6437     0.0000     8.0000 </r>
       <r>    -5.5718     0.0000     8.0000 </r>
       <r>    -5.4999     0.0000     8.0000 </r>
       <r>    -5.4281     0.0000     8.0000 </r>
       <r>    -5.3562     0.0000     8.0000 </r>
       <r>    -5.2843     0.0000     8.0000 </r>
       <r>    -5.2124     0.0000     8.0000 </r>
       <r>    -5.1405     0.0000     8.0000 </r>
       <r>    -5.0686     0.0000     8.0000 </r>
       <r>    -4.9967     0.0000     8.0000 </r>
       <r>    -4.9248     0.0000     8.0000 </r>
       <r>    -4.8529     0.0000     8.0000 </r>
       <r>    -4.7810     0.0000     8.0000 </r>
       <r>    -4.7092     0.0000     8.0000 </r>
       <r>    -4.6373     0.0000     8.0000 </r>
       <r>    -4.5654     0.0000     8.0000 </r>
       <r>    -4.4935     0.0000     8.0000 </r>
       <r>    -4.4216     0.0000     8.0000 </r>
       <r>    -4.3497     0.0000     8.0000 </r>
       <r>    -4.2778     0.0000     8.0000 </r>
       <r>    -4.2059     0.0000     8.0000 </r>
       <r>    -4.1340     0.0000     8.0000 </r>
       <r>    -4.0621     0.0000     8.0000 </r>
       <r>    -3.9903     0.0000     8.0000 </r>
       <r>    -3.9184     0.0000     8.0000 </r>
       <r>    -3.8465     0.0000     8.0000 </r>
       <r>    -3.7746     0.0000     8.0000 </r>
       <r>    -3.7027     0.0000     8.0000 </r>
       <r>    -3.6308     0.0000     8.0000 </r>
       <r>    -3.5589     0.0000     8.0000 </r>
       <r>    -3.4870     0.0000     8.0000 </r>
       <r>    -3.4151     0.0000     8.0000 </r>
       <r>    -3.3432     0.0000     8.0000 </r>
       <r>    -3.2714     0.0000     8.0000 </r>
       <r>    -3.1995     0.0000     8.0000 </r>
       <r>    -3.1276     0.0000     8.0000 </r>
       <r>    -3.0557     0.0000     8.0000 </r>
       <r>    -2.9838     0.0000     8.0000 </r>
       <r>    -2.9119     0.0000     8.0000 </r>
       <r>    -2.8400     0.0000     8.0000 </r>
       <r>    -2.7681     0.0000     8.0000 </r>
       <r>    -2.6962     0.0000     8.0000 </r>
       <r>    -2.6243     0.0000     8.0000 </r>
       <r>    -2.5524     0.0000     8.0000 </r>
       <r>    -2.4806     0.0000     8.0000 </r>
       <r>    -2.4087     0.0000     8.0000 </r>
       <r>    -2.3368     0.0000     8.0000 </r>
       <r>    -2.2649     0.0000     8.0000 </r>
       <r>    -2.1930     0.0000     8.0000 </r>
       <r>    -2.1211     0.0000     8.0000 </r>
       <r>    -2.0492     0.0000     8.0000 </r>
       <r>    -1.9773    -0.0000     8.0000 </r>
       <r>    -1.9054    -0.0000     8.0000 </r>
       <r>    -1.8335    -0.0000     8.0000 </r>
       <r>    -1.7617    -0.0000     8.0000 </r>
       <r>    -1.6898    -0.0000     8.0000 </r>
       <r>    -1.6179    -0.0000     8.0000 </r>
       <r>    -1.5460    -0.0000     8.0000 </r>
       <r>    -1.4741    -0.0000     8.0000 </r>
       <r>    -1.4022    -0.0000     8.0000 </r>
       <r>    -1.3303    -0.0000     8.0000 </r>
       <r>    -1.2584    -0.0000     8.0000 </r>
       <r>    -1.1865    -0.0000     8.0000 </r>
       <r>    -1.1146    -0.0000     8.0000 </r>
       <r>    -1.0428    -0.0001     8.0000 </r>
       <r>    -0.9709    -0.0006     7.9999 </r>
       <r>    -0.8990    -0.0048     7.9996 </r>
       <r>    -0.8271    -0.0262     7.9977 </r>
       <r>    -0.7552    -0.1040     7.9902 </r>
       <r>    -0.6833    -0.2818     7.9700 </r>
       <r>    -0.6114    -0.4386     7.9385 </r>
       <r>    -0.5395     0.0034     7.9387 </r>
       <r>    -0.4676     1.9051     8.0757 </r>
       <r>    -0.3957     5.2000     8.4495 </r>
       <r>    -0.3239     7.9373     9.0201 </r>
       <r>    -0.2520     7.8273     9.5828 </r>
       <r>    -0.1801     4.9696     9.9401 </r>
       <r>    -0.1082     1.7252    10.0641 </r>
       <r>    -0.0363    -0.0674    10.0592 </r>
       <r>     0.0356    -0.4637    10.0259 </r>
       <r>     0.1075    -0.3783     9.9987 </r>
       <r>     0.1794    -0.4313     9.9677 </r>
       <r>     0.2513    -0.7005     9.9174 </r>
       <r>     0.3232    -0.6574     9.8701 </r>
       <r>     0.3951     0.9296     9.9369 </r>
       <r>     0.4669     5.3519    10.3217 </r>
       <r>     0.5388    12.3560    11.2099 </r>
       <r>     0.6107    19.0308    12.5781 </r>
       <r>     0.6826    21.1714    14.1001 </r>
       <r>     0.7545    16.9542    15.3189 </r>
       <r>     0.8264     9.1486    15.9766 </r>
       <r>     0.8983     2.5344    16.1588 </r>
       <r>     0.9702    -0.5231    16.1212 </r>
       <r>     1.0421    -0.9405    16.0536 </r>
       <r>     1.1140    -0.5167    16.0165 </r>
       <r>     1.1858    -0.1775    16.0037 </r>
       <r>     1.2577    -0.0428    16.0006 </r>
       <r>     1.3296    -0.0075    16.0001 </r>
       <r>     1.4015    -0.0010    16.0000 </r>
       <r>     1.4734    -0.0001    16.0000 </r>
       <r>     1.5453    -0.0000    16.0000 </r>
       <r>     1.6172    -0.0000    16.0000 </r>
       <r>     1.6891    -0.0000    16.0000 </r>
       <r>     1.7610    -0.0000    16.0000 </r>
       <r>     1.8329    -0.0000    16.0000 </r>
       <r>     1.9047    -0.0000    16.0000 </r>
       <r>     1.9766    -0.0000    16.0000 </r>
       <r>     2.0485     0.0000    16.0000 </r>
       <r>     2.1204     0.0000    16.0000 </r>
       <r>     2.1923     0.0000    16.0000 </r>
       <r>     2.2642     0.0000    16.0000 </r>
       <r>     2.3361     0.0000    16.0000 </r>
       <r>     2.4080     0.0000    16.0000 </r>
       <r>     2.4799     0.0000    16.0000 </r>
       <r>     2.5518     0.0000    16.0000 </r>
       <r>     2.6236     0.0000    16.0000 </r>
       <r>     2.6955     0.0000    16.0000 </r>
      </set>
     </set>
    </array>
   </total>
  </dos>
  <time name="totalsc">   62.60   62.78</time>
 </calculation>
 <calculation>
  <scstep>
   <time name="dav">    2.07    2.07</time>
   <time name="total">    3.99    4.00</time>
   <energy>
    <i name="alphaZ">      0.23440060 </i>
    <i name="ewald">    130.85272234 </i>
    <i name="hartreedc">   -286.15218511 </i>
    <i name="XCdc">     24.75664126 </i>
    <i name="pawpsdc">    440.65606671 </i>
    <i name="pawaedc">   -441.44297422 </i>
    <i name="eentropy">      0.01740019 </i>
    <i name="bandstr">    -89.95442697 </i>
    <i name="atom">    197.04175453 </i>
    <i name="e_fr_energy">    -23.99060068 </i>
    <i name="e_wo_entrp">    -24.00800087 </i>
    <i name="e_0_energy">    -23.99640074 </i>
   </energy>
  </scstep>
  <scstep>
   <time name="diag">    0.43    0.43</time>
   <time name="diis">    1.36    1.36</time>
   <time name="orth">    0.01    0.01</time>
   <time name="total">    3.52    3.53</time>
   <energy>
    <i name="e_fr_energy">    -24.01733515 </i>
    <i name="e_wo_entrp">    -24.03177074 </i>
    <i name="e_0_energy">    -24.02214701 </i>
   </energy>
  </scstep>
  <scstep>
   <time name="diag">    0.47    0.47</time>
   <time name="diis">    1.57    1.58</time>
   <time name="orth">    0.01    0.01</time>
   <time name="total">    3.81    3.82</time>
   <energy>
    <i name="e_fr_energy">    -24.00637956 </i>
    <i name="e_wo_entrp">    -24.02046345 </i>
    <i name="e_0_energy">    -24.01107419 </i>
   </energy>
  </scstep>
  <scstep>
   <time name="diag">    0.41    0.41</time>
   <time name="diis">    1.37    1.38</time>
   <time name="orth">    0.01    0.01</time>
   <time name="total">    3.64    3.65</time>
   <energy>
    <i name="e_fr_energy">    -23.99155702 </i>
    <i name="e_wo_entrp">    -24.00750979 </i>
    <i name="e_0_energy">    -23.99687461 </i>
   </energy>
  </scstep>
  <scstep>
   <time name="diag">    0.42    0.42</time>
   <time name="diis">    1.38    1.38</time>
   <time name="orth">    0.01    0.01</time>
   <time name="total">    3.66    3.67</time>
   <energy>
    <i name="e_fr_energy">    -23.99205999 </i>
    <i name="e_wo_entrp">    -24.00807683 </i>
    <i name="e_0_energy">    -23.99739894 </i>
   </energy>
  </scstep>
  <scstep>
   <time name="diag">    0.41    0.41</time>
   <time name="diis">    1.37    1.37</time>
   <time name="orth">    0.01    0.01</time>
   <time name="total">    3.61    3.62</time>
   <energy>
    <i name="e_fr_energy">    -23.99203621 </i>
    <i name="e_wo_entrp">    -24.00762682 </i>
    <i name="e_0_energy">    -23.99723308 </i>
   </energy>
  </scstep>
  <scstep>
   <time name="diag">    0.40    0.40</time>
   <time name="diis">    1.34    1.34</time>
   <time name="orth">    0.01    0.01</time>
   <time name="total">    3.74    3.75</time>
   <energy>
    <i name="e_fr_energy">    -23.99203675 </i>
    <i name="e_wo_entrp">    -24.00750074 </i>
    <i name="e_0_energy">    -23.99719141 </i>
   </energy>
  </scstep>
  <scstep>
   <time name="diag">    0.42    0.43</time>
   <time name="diis">    1.39    1.39</time>
   <time name="orth">    0.01    0.01</time>
   <time name="total">    3.88    3.89</time>
   <energy>
    <i name="e_fr_energy">    -23.99203439 </i>
    <i name="e_wo_entrp">    -24.00740586 </i>
    <i name="e_0_energy">    -23.99715821 </i>
   </energy>
  </scstep>
  <scstep>
   <time name="diag">    0.42    0.42</time>
   <time name="diis">    1.37    1.37</time>
   <time name="orth">    0.01    0.01</time>
   <time name="total">    3.75    3.76</time>
   <energy>
    <i name="e_fr_energy">    -23.99205723 </i>
    <i name="e_wo_entrp">    -24.00734928 </i>
    <i name="e_0_energy">    -23.99715458 </i>
   </energy>
  </scstep>
  <scstep>
   <time name="diag">    0.42    0.42</time>
   <time name="diis">    1.40    1.40</time>
   <time name="orth">    0.01    0.01</time>
   <time name="total">    3.78    3.79</time>
   <energy>
    <i name="e_fr_energy">    -23.99207670 </i>
    <i name="e_wo_entrp">    -24.00729962 </i>
    <i name="e_0_energy">    -23.99715101 </i>
   </energy>
  </scstep>
  <scstep>
   <time name="diag">    0.43    0.43</time>
   <time name="diis">    1.07    1.07</time>
   <time name="orth">    0.01    0.01</time>
   <time name="total">    3.49    3.50</time>
   <energy>
    <i name="e_fr_energy">    -23.99208337 </i>
    <i name="e_wo_entrp">    -24.00729616 </i>
    <i name="e_0_energy">    -23.99715430 </i>
   </energy>
  </scstep>
  <scstep>
   <time name="diag">    0.44    0.44</time>
   <time name="diis">    1.07    1.07</time>
   <time name="orth">    0.01    0.01</time>
   <time name="total">    3.49    3.50</time>
   <energy>
    <i name="e_fr_energy">    -23.99208728 </i>
    <i name="e_wo_entrp">    -24.00730232 </i>
    <i name="e_0_energy">    -23.99715896 </i>
   </energy>
  </scstep>
  <scstep>
   <time name="diag">    0.43    0.43</time>
   <time name="diis">    1.10    1.10</time>
   <time name="orth">    0.01    0.01</time>
   <time name="total">    3.51    3.52</time>
   <energy>
    <i name="e_fr_energy">    -23.99208873 </i>
    <i name="e_wo_entrp">    -24.00730814 </i>
    <i name="e_0_energy">    -23.99716187 </i>
   </energy>
  </scstep>
  <scstep>
   <time name="diag">    0.44    0.44</time>
   <time name="diis">    1.10    1.10</time>
   <time name="orth">    0.01    0.01</time>
   <time name="total">    3.25    3.26</time>
   <energy>
    <i name="alphaZ">      0.23440060 </i>
    <i name="ewald">    130.85272234 </i>
    <i name="hartreedc">   -286.48842050 </i>
    <i name="XCdc">     24.77473200 </i>
    <i name="pawpsdc">    443.09208286 </i>
    <i name="pawaedc">   -443.88401888 </i>
    <i name="eentropy">      0.01522755 </i>
    <i name="bandstr">    -89.63057015 </i>
    <i name="atom">    197.04175453 </i>
    <i name="e_fr_energy">    -23.99208965 </i>
    <i name="e_wo_entrp">    -24.00731720 </i>
    <i name="e_0_energy">    -23.99716550 </i>
   </energy>
  </scstep>
  <structure>
   <crystal>
    <varray name="basis" >
     <v>      10.08470626       0.00000000       0.00000000 </v>
     <v>      -0.18048084      10.25060659       0.00000000 </v>
     <v>       0.06613931      -0.27548462       9.99755210 </v>
    </varray>
    <i name="volume">   1033.49051404 </i>
    <varray name="rec_basis" >
     <v>       0.09916005       0.00174590      -0.00060789 </v>
     <v>      -0.00000000       0.09755520       0.00268815 </v>
     <v>       0.00000000      -0.00000000       0.10002448 </v>
    </varray>
   </crystal>
   <varray name="positions" >
    <v>       0.53901694       0.40358415       0.35844533 </v>
    <v>       0.40037019       0.48239607       0.44595406 </v>
    <v>       0.55244274       0.56474152       0.44511584 </v>
    <v>       0.52388684       0.41943185       0.53807167 </v>
    <v>       0.50351257       0.46792398       0.44439610 </v>
   </varray>
  </structure>
  <varray name="forces" >
   <v>      -0.22420355       0.39449492       0.18256107 </v>
   <v>      -0.76341507      -0.40936561      -0.49707380 </v>
   <v>      -0.02183548      -0.06254740      -0.23645399 </v>
   <v>       0.46541484      -0.08345817       0.42236246 </v>
   <v>       0.16292926       0.43539431      -0.69547784 </v>
  </varray>
  <varray name="stress" >
   <v>       1.93762852       0.22138933       0.79653839 </v>
   <v>       0.22138933      -0.38460367      -1.17286579 </v>
   <v>       0.79653838      -1.17286578      -1.26812731 </v>
  </varray>
  <energy>
   <i name="e_fr_energy">    -23.99208965 </i>
   <i name="e_wo_entrp">    -23.99716550 </i>
   <i name="e_0_energy">      0.01522755 </i>
   <i name="kinetic">      0.02462988 </i>
   <i name="lattice kinetic">      0.00000000 </i>
   <i name="nosepot">      0.00160226 </i>
   <i name="nosekinetic">      0.00087570 </i>
   <i name="total">    -23.96498180 </i>
  </energy>
  <dos>
   <i name="efermi">     -8.89280598 </i>
   <total>
    <array>
     <dimension dim="1">gridpoints</dimension>
     <dimension dim="2">spin</dimension>
     <field>energy</field>
     <field>total</field>
     <field>integrated</field>
     <set>
      <set comment="spin 1">
       <r>   -18.9401     0.0000     0.0000 </r>
       <r>   -18.8680     0.0000     0.0000 </r>
       <r>   -18.7958     0.0000     0.0000 </r>
       <r>   -18.7237     0.0000     0.0000 </r>
       <r>   -18.6516     0.0000     0.0000 </r>
       <r>   -18.5795    -0.0000    -0.0000 </r>
       <r>   -18.5073    -0.0000    -0.0000 </r>
       <r>   -18.4352    -0.0000    -0.0000 </r>
       <r>   -18.3631    -0.0000    -0.0000 </r>
       <r>   -18.2909    -0.0000    -0.0000 </r>
       <r>   -18.2188    -0.0000    -0.0000 </r>
       <r>   -18.1467    -0.0000    -0.0000 </r>
       <r>   -18.0746    -0.0000    -0.0000 </r>
       <r>   -18.0024    -0.0000    -0.0000 </r>
       <r>   -17.9303    -0.0000    -0.0000 </r>
       <r>   -17.8582    -0.0000    -0.0000 </r>
       <r>   -17.7861    -0.0000    -0.0000 </r>
       <r>   -17.7139    -0.0000    -0.0000 </r>
       <r>   -17.6418    -0.0001    -0.0000 </r>
       <r>   -17.5697    -0.0010    -0.0001 </r>
       <r>   -17.4976    -0.0070    -0.0006 </r>
       <r>   -17.4254    -0.0362    -0.0032 </r>
       <r>   -17.3533    -0.1337    -0.0128 </r>
       <r>   -17.2812    -0.3297    -0.0366 </r>
       <r>   -17.2090    -0.4235    -0.0672 </r>
       <r>   -17.1369     0.2819    -0.0468 </r>
       <r>   -17.0648     2.5813     0.1394 </r>
       <r>   -16.9927     5.9918     0.5715 </r>
       <r>   -16.9205     8.2204     1.1644 </r>
       <r>   -16.8484     7.3239     1.6927 </r>
       <r>   -16.7763     4.1147     1.9895 </r>
       <r>   -16.7042     1.1199     2.0702 </r>
       <r>   -16.6320    -0.2577     2.0517 </r>
       <r>   -16.5599    -0.4149     2.0217 </r>
       <r>   -16.4878    -0.2142     2.0063 </r>
       <r>   -16.4156    -0.0689     2.0013 </r>
       <r>   -16.3435    -0.0154     2.0002 </r>
       <r>   -16.2714    -0.0025     2.0000 </r>
       <r>   -16.1993    -0.0003     2.0000 </r>
       <r>   -16.1271    -0.0000     2.0000 </r>
       <r>   -16.0550    -0.0000     2.0000 </r>
       <r>   -15.9829    -0.0000     2.0000 </r>
       <r>   -15.9108    -0.0000     2.0000 </r>
       <r>   -15.8386    -0.0000     2.0000 </r>
       <r>   -15.7665    -0.0000     2.0000 </r>
       <r>   -15.6944    -0.0000     2.0000 </r>
       <r>   -15.6223     0.0000     2.0000 </r>
       <r>   -15.5501     0.0000     2.0000 </r>
       <r>   -15.4780     0.0000     2.0000 </r>
       <r>   -15.4059     0.0000     2.0000 </r>
       <r>   -15.3337     0.0000     2.0000 </r>
       <r>   -15.2616     0.0000     2.0000 </r>
       <r>   -15.1895     0.0000     2.0000 </r>
       <r>   -15.1174     0.0000     2.0000 </r>
       <r>   -15.0452     0.0000     2.0000 </r>
       <r>   -14.9731     0.0000     2.0000 </r>
       <r>   -14.9010     0.0000     2.0000 </r>
       <r>   -14.8289     0.0000     2.0000 </r>
       <r>   -14.7567     0.0000     2.0000 </r>
       <r>   -14.6846     0.0000     2.0000 </r>
       <r>   -14.6125     0.0000     2.0000 </r>
       <r>   -14.5404     0.0000     2.0000 </r>
       <r>   -14.4682     0.0000     2.0000 </r>
       <r>   -14.3961     0.0000     2.0000 </r>
       <r>   -14.3240     0.0000     2.0000 </r>
       <r>   -14.2518     0.0000     2.0000 </r>
       <r>   -14.1797     0.0000     2.0000 </r>
       <r>   -14.1076     0.0000     2.0000 </r>
       <r>   -14.0355     0.0000     2.0000 </r>
       <r>   -13.9633     0.0000     2.0000 </r>
       <r>   -13.8912     0.0000     2.0000 </r>
       <r>   -13.8191     0.0000     2.0000 </r>
       <r>   -13.7470     0.0000     2.0000 </r>
       <r>   -13.6748     0.0000     2.0000 </r>
       <r>   -13.6027     0.0000     2.0000 </r>
       <r>   -13.5306     0.0000     2.0000 </r>
       <r>   -13.4584     0.0000     2.0000 </r>
       <r>   -13.3863     0.0000     2.0000 </r>
       <r>   -13.3142     0.0000     2.0000 </r>
       <r>   -13.2421     0.0000     2.0000 </r>
       <r>   -13.1699     0.0000     2.0000 </r>
       <r>   -13.0978     0.0000     2.0000 </r>
       <r>   -13.0257     0.0000     2.0000 </r>
       <r>   -12.9536     0.0000     2.0000 </r>
       <r>   -12.8814     0.0000     2.0000 </r>
       <r>   -12.8093     0.0000     2.0000 </r>
       <r>   -12.7372     0.0000     2.0000 </r>
       <r>   -12.6651     0.0000     2.0000 </r>
       <r>   -12.5929     0.0000     2.0000 </r>
       <r>   -12.5208     0.0000     2.0000 </r>
       <r>   -12.4487     0.0000     2.0000 </r>
       <r>   -12.3765     0.0000     2.0000 </r>
       <r>   -12.3044     0.0000     2.0000 </r>
       <r>   -12.2323     0.0000     2.0000 </r>
       <r>   -12.1602     0.0000     2.0000 </r>
       <r>   -12.0880     0.0000     2.0000 </r>
       <r>   -12.0159     0.0000     2.0000 </r>
       <r>   -11.9438     0.0000     2.0000 </r>
[...]
       <r>     0.2394    -0.6123     9.9391 </r>
       <r>     0.3119    -0.8545     9.8771 </r>
       <r>     0.3845    -0.0834     9.8711 </r>
       <r>     0.4570     3.3437    10.1137 </r>
       <r>     0.5296    10.0917    10.8459 </r>
       <r>     0.6021    17.8439    12.1405 </r>
       <r>     0.6747    21.8197    13.7236 </r>
       <r>     0.7472    18.8789    15.0933 </r>
       <r>     0.8198    11.0547    15.8954 </r>
       <r>     0.8923     3.5868    16.1556 </r>
       <r>     0.9649    -0.2571    16.1369 </r>
       <r>     1.0374    -1.0023    16.0642 </r>
       <r>     1.1100    -0.6030    16.0205 </r>
       <r>     1.1825    -0.2171    16.0047 </r>
       <r>     1.2551    -0.0540    16.0008 </r>
       <r>     1.3277    -0.0097    16.0001 </r>
       <r>     1.4002    -0.0013    16.0000 </r>
       <r>     1.4728    -0.0001    16.0000 </r>
       <r>     1.5453    -0.0000    16.0000 </r>
       <r>     1.6179    -0.0000    16.0000 </r>
       <r>     1.6904    -0.0000    16.0000 </r>
       <r>     1.7630    -0.0000    16.0000 </r>
       <r>     1.8355    -0.0000    16.0000 </r>
       <r>     1.9081    -0.0000    16.0000 </r>
       <r>     1.9806    -0.0000    16.0000 </r>
       <r>     2.0532     0.0000    16.0000 </r>
       <r>     2.1257     0.0000    16.0000 </r>
       <r>     2.1983     0.0000    16.0000 </r>
       <r>     2.2708     0.0000    16.0000 </r>
       <r>     2.3434     0.0000    16.0000 </r>
       <r>     2.4160     0.0000    16.0000 </r>
       <r>     2.4885     0.0000    16.0000 </r>
       <r>     2.5611     0.0000    16.0000 </r>
       <r>     2.6336     0.0000    16.0000 </r>
       <r>     2.7062     0.0000    16.0000 </r>
      </set>
     </set>
    </array>
   </total>
  </dos>
  <time name="totalsc">   60.57   60.73</time>
  <eigenvalues>
   <array>
    <dimension dim="1">band</dimension>
    <dimension dim="2">kpoint</dimension>
    <dimension dim="3">spin</dimension>
    <field>eigene</field>
    <field>occ</field>
    <set>
     <set comment="spin 1">
      <set comment="kpoint 1">
       <r>  -16.9236    1.0000 </r>
       <r>   -9.5639    1.0000 </r>
       <r>   -9.3436    1.0000 </r>
       <r>   -8.8378    1.0000 </r>
       <r>   -0.2942    0.0000 </r>
       <r>    0.5603    0.0000 </r>
       <r>    0.6478    0.0000 </r>
       <r>    0.6918    0.0000 </r>
      </set>
      <set comment="kpoint 2">
       <r>  -16.9237    1.0000 </r>
       <r>   -9.5638    1.0000 </r>
       <r>   -9.3437    1.0000 </r>
       <r>   -8.8379    1.0000 </r>
       <r>   -0.2970    0.0000 </r>
       <r>    0.5615    0.0000 </r>
       <r>    0.6621    0.0000 </r>
       <r>    0.6910    0.0000 </r>
      </set>
      <set comment="kpoint 3">
       <r>  -16.9236    1.0000 </r>
       <r>   -9.5637    1.0000 </r>
       <r>   -9.3436    1.0000 </r>
       <r>   -8.8378    0.9999 </r>
       <r>   -0.3018    0.0000 </r>
       <r>    0.5608    0.0000 </r>
       <r>    0.6842    0.0000 </r>
       <r>    0.7083    0.0000 </r>
      </set>
      <set comment="kpoint 4">
       <r>  -16.9237    1.0000 </r>
       <r>   -9.5638    1.0000 </r>
       <r>   -9.3437    1.0000 </r>
       <r>   -8.8379    1.0000 </r>
       <r>   -0.2978    0.0000 </r>
       <r>    0.5646    0.0000 </r>
       <r>    0.6525    0.0000 </r>
       <r>    0.7070    0.0000 </r>
      </set>
     </set>
    </set>
   </array>
  </eigenvalues>
  <separator name="orbital magnetization" >
   <v name="MAGDIPOLOUT">      0.00000000      0.00000000      0.00000000</v>
  </separator>
  <dos>
   <i name="efermi">     -8.66946595 </i>
   <total>
    <array>
     <dimension dim="1">gridpoints</dimension>
     <dimension dim="2">spin</dimension>
     <field>energy</field>
     <field>total</field>
     <field>integrated</field>
     <set>
      <set comment="spin 1">
       <r>   -18.9237     0.0000     0.0000 </r>
       <r>   -18.8516     0.0000     0.0000 </r>
       <r>   -18.7795     0.0000     0.0000 </r>
       <r>   -18.7074     0.0000     0.0000 </r>
       <r>   -18.6353     0.0000     0.0000 </r>
       <r>   -18.5632    -0.0000    -0.0000 </r>
       <r>   -18.4910    -0.0000    -0.0000 </r>
       <r>   -18.4189    -0.0000    -0.0000 </r>
       <r>   -18.3468    -0.0000    -0.0000 </r>
       <r>   -18.2747    -0.0000    -0.0000 </r>
       <r>   -18.2026    -0.0000    -0.0000 </r>
       <r>   -18.1305    -0.0000    -0.0000 </r>
       <r>   -18.0584    -0.0000    -0.0000 </r>
       <r>   -17.9863    -0.0000    -0.0000 </r>
       <r>   -17.9142    -0.0000    -0.0000 </r>
       <r>   -17.8421    -0.0000    -0.0000 </r>
       <r>   -17.7700    -0.0000    -0.0000 </r>
       <r>   -17.6979    -0.0000    -0.0000 </r>
       <r>   -17.6258    -0.0001    -0.0000 </r>
       <r>   -17.5537    -0.0010    -0.0001 </r>
       <r>   -17.4816    -0.0069    -0.0006 </r>
       <r>   -17.4094    -0.0358    -0.0032 </r>
       <r>   -17.3373    -0.1328    -0.0127 </r>
       <r>   -17.2652    -0.3283    -0.0364 </r>
       <r>   -17.1931    -0.4245    -0.0670 </r>
       <r>   -17.1210     0.2718    -0.0474 </r>
       <r>   -17.0489     2.5583     0.1371 </r>
       <r>   -16.9768     5.9666     0.5673 </r>
       <r>   -16.9047     8.2141     1.1596 </r>
       <r>   -16.8326     7.3439     1.6891 </r>
       <r>   -16.7605     4.1445     1.9880 </r>
       <r>   -16.6884     1.1396     2.0701 </r>
       <r>   -16.6163    -0.2522     2.0520 </r>
       <r>   -16.5442    -0.4161     2.0220 </r>
       <r>   -16.4721    -0.2161     2.0064 </r>
       <r>   -16.4000    -0.0698     2.0013 </r>
       <r>   -16.3278    -0.0157     2.0002 </r>
       <r>   -16.2557    -0.0026     2.0000 </r>
       <r>   -16.1836    -0.0003     2.0000 </r>
       <r>   -16.1115    -0.0000     2.0000 </r>
       <r>   -16.0394    -0.0000     2.0000 </r>
       <r>   -15.9673    -0.0000     2.0000 </r>
       <r>   -15.8952    -0.0000     2.0000 </r>
       <r>   -15.8231    -0.0000     2.0000 </r>
       <r>   -15.7510    -0.0000     2.0000 </r>
       <r>   -15.6789    -0.0000     2.0000 </r>
       <r>   -15.6068     0.0000     2.0000 </r>
       <r>   -15.5347     0.0000     2.0000 </r>
       <r>   -15.4626     0.0000     2.0000 </r>
       <r>   -15.3905     0.0000     2.0000 </r>
       <r>   -15.3184     0.0000     2.0000 </r>
       <r>   -15.2462     0.0000     2.0000 </r>
       <r>   -15.1741     0.0000     2.0000 </r>
       <r>   -15.1020     0.0000     2.0000 </r>
       <r>   -15.0299     0.0000     2.0000 </r>
       <r>   -14.9578     0.0000     2.0000 </r>
       <r>   -14.8857     0.0000     2.0000 </r>
       <r>   -14.8136     0.0000     2.0000 </r>
       <r>   -14.7415     0.0000     2.0000 </r>
       <r>   -14.6694     0.0000     2.0000 </r>
       <r>   -14.5973     0.0000     2.0000 </r>
       <r>   -14.5252     0.0000     2.0000 </r>
       <r>   -14.4531     0.0000     2.0000 </r>
       <r>   -14.3810     0.0000     2.0000 </r>
       <r>   -14.3089     0.0000     2.0000 </r>
       <r>   -14.2368     0.0000     2.0000 </r>
       <r>   -14.1646     0.0000     2.0000 </r>
       <r>   -14.0925     0.0000     2.0000 </r>
       <r>   -14.0204     0.0000     2.0000 </r>
       <r>   -13.9483     0.0000     2.0000 </r>
       <r>   -13.8762     0.0000     2.0000 </r>
       <r>   -13.8041     0.0000     2.0000 </r>
       <r>   -13.7320     0.0000     2.0000 </r>
       <r>   -13.6599     0.0000     2.0000 </r>
       <r>   -13.5878     0.0000     2.0000 </r>
       <r>   -13.5157     0.0000     2.0000 </r>
       <r>   -13.4436     0.0000     2.0000 </r>
       <r>   -13.3715     0.0000     2.0000 </r>
       <r>   -13.2994     0.0000     2.0000 </r>
       <r>   -13.2273     0.0000     2.0000 </r>
       <r>   -13.1552     0.0000     2.0000 </r>
       <r>   -13.0830     0.0000     2.0000 </r>
       <r>   -13.0109     0.0000     2.0000 </r>
       <r>   -12.9388     0.0000     2.0000 </r>
       <r>   -12.8667     0.0000     2.0000 </r>
       <r>   -12.7946     0.0000     2.0000 </r>
       <r>   -12.7225     0.0000     2.0000 </r>
       <r>   -12.6504     0.0000     2.0000 </r>
       <r>   -12.5783     0.0000     2.0000 </r>
       <r>   -12.5062     0.0000     2.0000 </r>
       <r>   -12.4341     0.0000     2.0000 </r>
       <r>   -12.3620     0.0000     2.0000 </r>
       <r>   -12.2899     0.0000     2.0000 </r>
       <r>   -12.2178     0.0000     2.0000 </r>
       <r>   -12.1457     0.0000     2.0000 </r>
       <r>   -12.0736     0.0000     2.0000 </r>
       <r>   -12.0014     0.0000     2.0000 </r>
       <r>   -11.9293     0.0000     2.0000 </r>
       <r>   -11.8572     0.0000     2.0000 </r>
       <r>   -11.7851     0.0000     2.0000 </r>
       <r>   -11.7130     0.0000     2.0000 </r>
       <r>   -11.6409     0.0000     2.0000 </r>
       <r>   -11.5688     0.0000     2.0000 </r>
       <r>   -11.4967     0.0000     2.0000 </r>
       <r>   -11.4246     0.0000     2.0000 </r>
       <r>   -11.3525     0.0000     2.0000 </r>
       <r>   -11.2804     0.0000     2.0000 </r>
       <r>   -11.2083    -0.0000     2.0000 </r>
       <r>   -11.1362    -0.0000     2.0000 </r>
       <r>   -11.0641    -0.0000     2.0000 </r>
       <r>   -10.9920    -0.0000     2.0000 </r>
       <r>   -10.9198    -0.0000     2.0000 </r>
       <r>   -10.8477    -0.0000     2.0000 </r>
       <r>   -10.7756    -0.0000     2.0000 </r>
       <r>   -10.7035    -0.0000     2.0000 </r>
       <r>   -10.6314    -0.0000     2.0000 </r>
       <r>   -10.5593    -0.0000     2.0000 </r>
       <r>   -10.4872    -0.0000     2.0000 </r>
       <r>   -10.4151    -0.0000     2.0000 </r>
       <r>   -10.3430    -0.0000     2.0000 </r>
       <r>   -10.2709    -0.0001     2.0000 </r>
       <r>   -10.1988    -0.0008     1.9999 </r>
       <r>   -10.1267    -0.0061     1.9995 </r>
       <r>   -10.0546    -0.0324     1.9972 </r>
       <r>    -9.9825    -0.1236     1.9882 </r>
       <r>    -9.9104    -0.3189     1.9652 </r>
       <r>    -9.8382    -0.4623     1.9319 </r>
       <r>    -9.7661     0.0636     1.9365 </r>
       <r>    -9.6940     2.0469     2.0841 </r>
       <r>    -9.6219     5.3015     2.4664 </r>
       <r>    -9.5498     8.2614     3.0621 </r>
       <r>    -9.4777     9.6919     3.7609 </r>
       <r>    -9.4056     9.9368     4.4774 </r>
       <r>    -9.3335     9.3579     5.1522 </r>
       <r>    -9.2614     7.2992     5.6785 </r>
       <r>    -9.1893     3.8520     5.9563 </r>
       <r>    -9.1172     0.7614     6.0112 </r>
       <r>    -9.0451    -0.1482     6.0005 </r>
       <r>    -8.9730     1.6992     6.1230 </r>
       <r>    -8.9009     5.2622     6.5024 </r>
       <r>    -8.8288     7.9879     7.0784 </r>
       <r>    -8.7566     7.6300     7.6286 </r>
       <r>    -8.6845     4.6233     7.9620 </r>
       <r>    -8.6124     1.4645     8.0676 </r>
       <r>    -8.5403    -0.1548     8.0564 </r>
       <r>    -8.4682    -0.4313     8.0253 </r>
       <r>    -8.3961    -0.2442     8.0077 </r>
       <r>    -8.3240    -0.0833     8.0017 </r>
       <r>    -8.2519    -0.0196     8.0003 </r>
       <r>    -8.1798    -0.0034     8.0000 </r>
       <r>    -8.1077    -0.0004     8.0000 </r>
       <r>    -8.0356    -0.0000     8.0000 </r>
       <r>    -7.9635    -0.0000     8.0000 </r>
       <r>    -7.8914    -0.0000     8.0000 </r>
       <r>    -7.8193    -0.0000     8.0000 </r>
       <r>    -7.7472    -0.0000     8.0000 </r>
       <r>    -7.6750    -0.0000     8.0000 </r>
       <r>    -7.6029    -0.0000     8.0000 </r>
       <r>    -7.5308     0.0000     8.0000 </r>
       <r>    -7.4587     0.0000     8.0000 </r>
       <r>    -7.3866     0.0000     8.0000 </r>
       <r>    -7.3145     0.0000     8.0000 </r>
       <r>    -7.2424     0.0000     8.0000 </r>
       <r>    -7.1703     0.0000     8.0000 </r>
       <r>    -7.0982     0.0000     8.0000 </r>
       <r>    -7.0261     0.0000     8.0000 </r>
       <r>    -6.9540     0.0000     8.0000 </r>
       <r>    -6.8819     0.0000     8.0000 </r>
       <r>    -6.8098     0.0000     8.0000 </r>
       <r>    -6.7377     0.0000     8.0000 </r>
       <r>    -6.6656     0.0000     8.0000 </r>
       <r>    -6.5934     0.0000     8.0000 </r>
       <r>    -6.5213     0.0000     8.0000 </r>
       <r>    -6.4492     0.0000     8.0000 </r>
       <r>    -6.3771     0.0000     8.0000 </r>
       <r>    -6.3050     0.0000     8.0000 </r>
       <r>    -6.2329     0.0000     8.0000 </r>
       <r>    -6.1608     0.0000     8.0000 </r>
       <r>    -6.0887     0.0000     8.0000 </r>
       <r>    -6.0166     0.0000     8.0000 </r>
       <r>    -5.9445     0.0000     8.0000 </r>
       <r>    -5.8724     0.0000     8.0000 </r>
       <r>    -5.8003     0.0000     8.0000 </r>
       <r>    -5.7282     0.0000     8.0000 </r>
       <r>    -5.6561     0.0000     8.0000 </r>
       <r>    -5.5840     0.0000     8.0000 </r>
       <r>    -5.5118     0.0000     8.0000 </r>
       <r>    -5.4397     0.0000     8.0000 </r>
       <r>    -5.3676     0.0000     8.0000 </r>
       <r>    -5.2955     0.0000     8.0000 </r>
       <r>    -5.2234     0.0000     8.0000 </r>
       <r>    -5.1513     0.0000     8.0000 </r>
       <r>    -5.0792     0.0000     8.0000 </r>
       <r>    -5.0071     0.0000     8.0000 </r>
       <r>    -4.9350     0.0000     8.0000 </r>
       <r>    -4.8629     0.0000     8.0000 </r>
       <r>    -4.7908     0.0000     8.0000 </r>
       <r>    -4.7187     0.0000     8.0000 </r>
       <r>    -4.6466     0.0000     8.0000 </r>
       <r>    -4.5745     0.0000     8.0000 </r>
       <r>    -4.5024     0.0000     8.0000 </r>
       <r>    -4.4302     0.0000     8.0000 </r>
       <r>    -4.3581     0.0000     8.0000 </r>
       <r>    -4.2860     0.0000     8.0000 </r>
       <r>    -4.2139     0.0000     8.0000 </r>
       <r>    -4.1418     0.0000     8.0000 </r>
       <r>    -4.0697     0.0000     8.0000 </r>
       <r>    -3.9976     0.0000     8.0000 </r>
       <r>    -3.9255     0.0000     8.0000 </r>
       <r>    -3.8534     0.0000     8.0000 </r>
       <r>    -3.7813     0.0000     8.0000 </r>
       <r>    -3.7092     0.0000     8.0000 </r>
       <r>    -3.6371     0.0000     8.0000 </r>
       <r>    -3.5650     0.0000     8.0000 </r>
       <r>    -3.4929     0.0000     8.0000 </r>
       <r>    -3.4208     0.0000     8.0000 </r>
       <r>    -3.3486     0.0000     8.0000 </r>
       <r>    -3.2765     0.0000     8.0000 </r>
       <r>    -3.2044     0.0000     8.0000 </r>
       <r>    -3.1323     0.0000     8.0000 </r>
       <r>    -3.0602     0.0000     8.0000 </r>
       <r>    -2.9881     0.0000     8.0000 </r>
       <r>    -2.9160     0.0000     8.0000 </r>
       <r>    -2.8439     0.0000     8.0000 </r>
       <r>    -2.7718     0.0000     8.0000 </r>
       <r>    -2.6997     0.0000     8.0000 </r>
       <r>    -2.6276     0.0000     8.0000 </r>
       <r>    -2.5555     0.0000     8.0000 </r>
       <r>    -2.4834     0.0000     8.0000 </r>
       <r>    -2.4113     0.0000     8.0000 </r>
       <r>    -2.3392     0.0000     8.0000 </r>
       <r>    -2.2670     0.0000     8.0000 </r>
       <r>    -2.1949     0.0000     8.0000 </r>
       <r>    -2.1228     0.0000     8.0000 </r>
       <r>    -2.0507     0.0000     8.0000 </r>
       <r>    -1.9786     0.0000     8.0000 </r>
       <r>    -1.9065    -0.0000     8.0000 </r>
       <r>    -1.8344    -0.0000     8.0000 </r>
       <r>    -1.7623    -0.0000     8.0000 </r>
       <r>    -1.6902    -0.0000     8.0000 </r>
       <r>    -1.6181    -0.0000     8.0000 </r>
       <r>    -1.5460    -0.0000     8.0000 </r>
       <r>    -1.4739    -0.0000     8.0000 </r>
       <r>    -1.4018    -0.0000     8.0000 </r>
       <r>    -1.3297    -0.0000     8.0000 </r>
       <r>    -1.2576    -0.0000     8.0000 </r>
       <r>    -1.1854    -0.0000     8.0000 </r>
       <r>    -1.1133    -0.0000     8.0000 </r>
       <r>    -1.0412    -0.0000     8.0000 </r>
       <r>    -0.9691    -0.0003     8.0000 </r>
       <r>    -0.8970    -0.0023     7.9998 </r>
       <r>    -0.8249    -0.0145     7.9988 </r>
       <r>    -0.7528    -0.0655     7.9940 </r>
       <r>    -0.6807    -0.2066     7.9791 </r>
       <r>    -0.6086    -0.4090     7.9497 </r>
       <r>    -0.5365    -0.2802     7.9295 </r>
       <r>    -0.4644     1.0332     8.0040 </r>
       <r>    -0.3923     3.9745     8.2905 </r>
       <r>    -0.3202     7.2220     8.8113 </r>
       <r>    -0.2481     8.2477     9.4060 </r>
       <r>    -0.1760     6.1245     9.8476 </r>
       <r>    -0.1038     2.7113    10.0431 </r>
       <r>    -0.0317     0.3408    10.0677 </r>
       <r>     0.0404    -0.4344    10.0364 </r>
       <r>     0.1125    -0.4237    10.0058 </r>
       <r>     0.1846    -0.4264     9.9751 </r>
       <r>     0.2567    -0.6949     9.9250 </r>
       <r>     0.3288    -0.8326     9.8649 </r>
       <r>     0.4009     0.3987     9.8937 </r>
       <r>     0.4730     4.5858    10.2244 </r>
       <r>     0.5451    11.8214    11.0768 </r>
       <r>     0.6172    19.0871    12.4531 </r>
       <r>     0.6893    21.6847    14.0167 </r>
       <r>     0.7614    17.5205    15.2800 </r>
       <r>     0.8335     9.5143    15.9661 </r>
       <r>     0.9056     2.6864    16.1598 </r>
       <r>     0.9778    -0.4946    16.1241 </r>
       <r>     1.0499    -0.9532    16.0554 </r>
       <r>     1.1220    -0.5304    16.0171 </r>
       <r>     1.1941    -0.1838    16.0039 </r>
       <r>     1.2662    -0.0446    16.0007 </r>
       <r>     1.3383    -0.0079    16.0001 </r>
       <r>     1.4104    -0.0010    16.0000 </r>
       <r>     1.4825    -0.0001    16.0000 </r>
       <r>     1.5546    -0.0000    16.0000 </r>
       <r>     1.6267    -0.0000    16.0000 </r>
       <r>     1.6988    -0.0000    16.0000 </r>
       <r>     1.7709    -0.0000    16.0000 </r>
       <r>     1.8430    -0.0000    16.0000 </r>
       <r>     1.9151    -0.0000    16.0000 </r>
       <r>     1.9872    -0.0000    16.0000 </r>
       <r>     2.0594     0.0000    16.0000 </r>
       <r>     2.1315     0.0000    16.0000 </r>
       <r>     2.2036     0.0000    16.0000 </r>
       <r>     2.2757     0.0000    16.0000 </r>
       <r>     2.3478     0.0000    16.0000 </r>
       <r>     2.4199     0.0000    16.0000 </r>
       <r>     2.4920     0.0000    16.0000 </r>
       <r>     2.5641     0.0000    16.0000 </r>
       <r>     2.6362     0.0000    16.0000 </r>
       <r>     2.7083     0.0000    16.0000 </r>
      </set>
     </set>
    </array>
   </total>
  </dos>
 </calculation>
 <structure name="finalpos" >
  <crystal>
   <varray name="basis" >
    <v>      10.08470626       0.00000000       0.00000000 </v>
    <v>      -0.18048084      10.25060659       0.00000000 </v>
    <v>       0.06613931      -0.27548462       9.99755210 </v>
   </varray>
   <i name="volume">   1033.49051404 </i>
   <varray name="rec_basis" >
    <v>       0.09916005       0.00174590      -0.00060789 </v>
    <v>      -0.00000000       0.09755520       0.00268815 </v>
    <v>       0.00000000      -0.00000000       0.10002448 </v>
   </varray>
  </crystal>
  <varray name="positions" >
   <v>       0.54117718       0.40595245       0.36882018 </v>
   <v>       0.39734356       0.47465361       0.43763418 </v>
   <v>       0.55018431       0.56467907       0.44236322 </v>
   <v>       0.53700896       0.42438965       0.53884164 </v>
   <v>       0.50268023       0.46796384       0.44439008 </v>
  </varray>
  <varray name="velocities" >
   <v>       0.00497972      -0.00018907       0.00148002 </v>
   <v>      -0.00082761       0.00265976      -0.00036235 </v>
   <v>      -0.00143543       0.00025003      -0.00008140 </v>
   <v>      -0.00136818      -0.00088362      -0.00025617 </v>
   <v>      -0.00011227      -0.00015295      -0.00006495 </v>
  </varray>
 </structure>
</modeling>
