unknown system                          
           1
    10.084706    0.000000    0.000000
    -0.180481   10.250607    0.000000
     0.066139   -0.275485    9.997552
   H    C 
   4   1
Direct configuration=     1
   0.53848731  0.40668926  0.36016628
   0.39455096  0.48033113  0.43846966
   0.55207578  0.56532578  0.44284580
   0.52813922  0.41638054  0.53916170
   0.50371767  0.46804278  0.44497419
Direct configuration=     2
   0.53958952  0.40363185  0.35804235
   0.39768086  0.48315741  0.44256595
   0.55133020  0.56336540  0.44454876
   0.52522635  0.41809724  0.53848779
   0.50366991  0.46808231  0.44472430
Direct configuration=     3
   0.53901694  0.40358415  0.35844533
   0.40037019  0.48239607  0.44595406
   0.55244274  0.56474152  0.44511584
   0.52388684  0.41943185  0.53807167
   0.50351257  0.46792398  0.44439610
Direct configuration=     4
   0.53771650  0.40496781  0.35973447
   0.40018515  0.48001478  0.44757082
   0.55353919  0.56577377  0.44496457
   0.52441002  0.42041318  0.53947463
   0.50350140  0.46783939  0.44404995
Direct configuration=     5
   0.53528024  0.40688236  0.36343095
   0.39468051  0.47738021  0.44788772
   0.55388148  0.56510032  0.44293603
   0.52599162  0.42112145  0.54226014
   0.50400236  0.46789644  0.44365279
Direct configuration=     6
   0.53445575  0.40502827  0.36193245
   0.39363461  0.47390785  0.44389067
   0.55305787  0.56366906  0.44083638
   0.52845158  0.42308755  0.54166618
   0.50402185  0.46829538  0.44433459
Direct configuration=     7
   0.53393038  0.39781176  0.35399130
   0.39326333  0.47043865  0.43892929
   0.55263279  0.56349518  0.44045466
   0.53209228  0.42479734  0.54018581
   0.50382878  0.46905716  0.44556385
Direct configuration=     8
   0.53338990  0.39759040  0.35494786
   0.39432705  0.46875117  0.43677664
   0.55358295  0.56581528  0.44098910
   0.53521723  0.42507523  0.54016928
   0.50344593  0.46899979  0.44562031
Direct configuration=     9
   0.53402338  0.40281997  0.36253176
   0.39604952  0.46907537  0.43675516
   0.55375141  0.56633251  0.44148840
   0.53692855  0.42549015  0.53897083
   0.50309328  0.46845979  0.44504890
Direct configuration=    10
   0.53619746  0.40614151  0.36734017
   0.39817118  0.47199384  0.43799653
   0.55161974  0.56442905  0.44244461
   0.53837713  0.42527327  0.53909781
   0.50279250  0.46811680  0.44445503
