   5   5   0   0
  0.1893149E+03  0.9719827E-09  0.1003690E-08  0.9708610E-09  0.2000000E-14
   50.000000000000000     
  CAR 
 unknown system                          
      2.73594527    -19.03014563  301     -9.18795284      1.00000000
    -19.030  0.0000E+00  0.0000E+00
    -18.958  0.0000E+00  0.0000E+00
    -18.885  0.0000E+00  0.0000E+00
    -18.812  0.0000E+00  0.0000E+00
    -18.740  0.0000E+00  0.0000E+00
    -18.667 -0.5007E-27 -0.3633E-28
    -18.595 -0.1588E-24 -0.1156E-25
    -18.522 -0.3871E-22 -0.2820E-23
    -18.450 -0.7232E-20 -0.5276E-21
    -18.377 -0.1036E-17 -0.7566E-19
    -18.305 -0.1136E-15 -0.8316E-17
    -18.232 -0.9537E-14 -0.7002E-15
    -18.160 -0.5928E-12 -0.4371E-13
    -18.087 -0.2903E-10 -0.2150E-11
    -18.014 -0.1083E-08 -0.8073E-10
    -17.942 -0.3078E-07 -0.2314E-08
    -17.869 -0.6649E-06 -0.5056E-07
    -17.797 -0.1089E-04 -0.8405E-06
    -17.724 -0.1346E-03 -0.1060E-04
    -17.652 -0.1247E-02 -0.1011E-03
    -17.579 -0.8591E-02 -0.7244E-03
    -17.507 -0.4322E-01 -0.3860E-02
    -17.434 -0.1538E+00 -0.1502E-01
    -17.361 -0.3576E+00 -0.4096E-01
    -17.289 -0.3945E+00 -0.6958E-01
    -17.216  0.5072E+00 -0.3279E-01
    -17.144  0.3065E+01  0.1896E+00
    -17.071  0.6489E+01  0.6604E+00
    -16.999  0.8303E+01  0.1263E+01
    -16.926  0.6880E+01  0.1762E+01
    -16.854  0.3511E+01  0.2017E+01
    -16.781  0.7460E+00  0.2071E+01
    -16.708 -0.3506E+00  0.2045E+01
    -16.636 -0.3835E+00  0.2018E+01
    -16.563 -0.1767E+00  0.2005E+01
    -16.491 -0.5220E-01  0.2001E+01
    -16.418 -0.1084E-01  0.2000E+01
    -16.346 -0.1638E-02  0.2000E+01
    -16.273 -0.1837E-03  0.2000E+01
    -16.201 -0.1543E-04  0.2000E+01
    -16.128 -0.9780E-06  0.2000E+01
    -16.055 -0.4695E-07  0.2000E+01
    -15.983 -0.1713E-08  0.2000E+01
    -15.910 -0.4759E-10  0.2000E+01
    -15.838 -0.1005E-11  0.2000E+01
    -15.765 -0.1836E-13  0.2000E+01
    -15.693  0.0000E+00  0.2000E+01
    -15.620  0.0000E+00  0.2000E+01
    -15.548  0.0000E+00  0.2000E+01
    -15.475  0.0000E+00  0.2000E+01
    -15.402  0.0000E+00  0.2000E+01
    -15.330  0.0000E+00  0.2000E+01
    -15.257  0.0000E+00  0.2000E+01
    -15.185  0.0000E+00  0.2000E+01
    -15.112  0.0000E+00  0.2000E+01
    -15.040  0.0000E+00  0.2000E+01
    -14.967  0.0000E+00  0.2000E+01
    -14.895  0.0000E+00  0.2000E+01
    -14.822  0.0000E+00  0.2000E+01
    -14.749  0.0000E+00  0.2000E+01
    -14.677  0.0000E+00  0.2000E+01
    -14.604  0.0000E+00  0.2000E+01
    -14.532  0.0000E+00  0.2000E+01
    -14.459  0.0000E+00  0.2000E+01
    -14.387  0.0000E+00  0.2000E+01
    -14.314  0.0000E+00  0.2000E+01
    -14.242  0.0000E+00  0.2000E+01
    -14.169  0.0000E+00  0.2000E+01
    -14.096  0.0000E+00  0.2000E+01
    -14.024  0.0000E+00  0.2000E+01
    -13.951  0.0000E+00  0.2000E+01
    -13.879  0.0000E+00  0.2000E+01
    -13.806  0.0000E+00  0.2000E+01
    -13.734  0.0000E+00  0.2000E+01
    -13.661  0.0000E+00  0.2000E+01
    -13.589  0.0000E+00  0.2000E+01
    -13.516  0.0000E+00  0.2000E+01
    -13.444  0.0000E+00  0.2000E+01
    -13.371  0.0000E+00  0.2000E+01
    -13.298  0.0000E+00  0.2000E+01
    -13.226  0.0000E+00  0.2000E+01
    -13.153  0.0000E+00  0.2000E+01
    -13.081  0.0000E+00  0.2000E+01
    -13.008  0.0000E+00  0.2000E+01
    -12.936  0.0000E+00  0.2000E+01
    -12.863  0.0000E+00  0.2000E+01
    -12.791  0.0000E+00  0.2000E+01
    -12.718  0.0000E+00  0.2000E+01
    -12.645  0.0000E+00  0.2000E+01
    -12.573  0.0000E+00  0.2000E+01
    -12.500  0.0000E+00  0.2000E+01
    -12.428  0.0000E+00  0.2000E+01
    -12.355  0.0000E+00  0.2000E+01
    -12.283  0.0000E+00  0.2000E+01
    -12.210  0.0000E+00  0.2000E+01
    -12.138  0.0000E+00  0.2000E+01
    -12.065  0.0000E+00  0.2000E+01
    -11.992  0.0000E+00  0.2000E+01
    -11.920  0.0000E+00  0.2000E+01
    -11.847  0.0000E+00  0.2000E+01
    -11.775  0.0000E+00  0.2000E+01
    -11.702  0.0000E+00  0.2000E+01
    -11.630  0.0000E+00  0.2000E+01
    -11.557  0.0000E+00  0.2000E+01
    -11.485  0.0000E+00  0.2000E+01
    -11.412  0.0000E+00  0.2000E+01
    -11.339  0.0000E+00  0.2000E+01
    -11.267  0.0000E+00  0.2000E+01
    -11.194  0.0000E+00  0.2000E+01
    -11.122  0.0000E+00  0.2000E+01
    -11.049  0.0000E+00  0.2000E+01
    -10.977 -0.9357E-26  0.2000E+01
    -10.904 -0.2687E-23  0.2000E+01
    -10.832 -0.5941E-21  0.2000E+01
    -10.759 -0.1008E-18  0.2000E+01
    -10.686 -0.1312E-16  0.2000E+01
    -10.614 -0.1310E-14  0.2000E+01
    -10.541 -0.9875E-13  0.2000E+01
    -10.469 -0.5689E-11  0.2000E+01
    -10.396 -0.2542E-09  0.2000E+01
    -10.324 -0.8673E-08  0.2000E+01
    -10.251 -0.2257E-06  0.2000E+01
    -10.179 -0.4468E-05  0.2000E+01
    -10.106 -0.6709E-04  0.2000E+01
    -10.033 -0.7605E-03  0.2000E+01
     -9.961 -0.6463E-02  0.1999E+01
     -9.888 -0.4073E-01  0.1997E+01
     -9.816 -0.1866E+00  0.1983E+01
     -9.743 -0.5975E+00  0.1940E+01
     -9.671 -0.1201E+01  0.1852E+01
     -9.598 -0.8528E+00  0.1791E+01
     -9.526  0.2997E+01  0.2008E+01
     -9.453  0.1174E+02  0.2860E+01
     -9.381  0.2149E+02  0.4419E+01
     -9.308  0.2465E+02  0.6208E+01
     -9.235  0.1833E+02  0.7538E+01
     -9.163  0.8117E+01  0.8127E+01
     -9.090  0.1030E+01  0.8202E+01
     -9.018 -0.1233E+01  0.8112E+01
     -8.945 -0.9985E+00  0.8040E+01
     -8.873 -0.4102E+00  0.8010E+01
     -8.800 -0.1116E+00  0.8002E+01
     -8.728 -0.2160E-01  0.8000E+01
     -8.655 -0.3064E-02  0.8000E+01
     -8.582 -0.3236E-03  0.8000E+01
     -8.510 -0.2568E-04  0.8000E+01
     -8.437 -0.1541E-05  0.8000E+01
     -8.365 -0.7013E-07  0.8000E+01
     -8.292 -0.2430E-08  0.8000E+01
     -8.220 -0.6418E-10  0.8000E+01
     -8.147 -0.1299E-11  0.8000E+01
     -8.075 -0.1836E-13  0.8000E+01
     -8.002  0.0000E+00  0.8000E+01
     -7.929  0.0000E+00  0.8000E+01
     -7.857  0.0000E+00  0.8000E+01
     -7.784  0.0000E+00  0.8000E+01
     -7.712  0.0000E+00  0.8000E+01
     -7.639  0.0000E+00  0.8000E+01
     -7.567  0.0000E+00  0.8000E+01
     -7.494  0.0000E+00  0.8000E+01
     -7.422  0.0000E+00  0.8000E+01
     -7.349  0.0000E+00  0.8000E+01
     -7.276  0.0000E+00  0.8000E+01
     -7.204  0.0000E+00  0.8000E+01
     -7.131  0.0000E+00  0.8000E+01
     -7.059  0.0000E+00  0.8000E+01
     -6.986  0.0000E+00  0.8000E+01
     -6.914  0.0000E+00  0.8000E+01
     -6.841  0.0000E+00  0.8000E+01
     -6.769  0.0000E+00  0.8000E+01
     -6.696  0.0000E+00  0.8000E+01
     -6.623  0.0000E+00  0.8000E+01
     -6.551  0.0000E+00  0.8000E+01
     -6.478  0.0000E+00  0.8000E+01
     -6.406  0.0000E+00  0.8000E+01
     -6.333  0.0000E+00  0.8000E+01
     -6.261  0.0000E+00  0.8000E+01
     -6.188  0.0000E+00  0.8000E+01
     -6.116  0.0000E+00  0.8000E+01
     -6.043  0.0000E+00  0.8000E+01
     -5.970  0.0000E+00  0.8000E+01
     -5.898  0.0000E+00  0.8000E+01
     -5.825  0.0000E+00  0.8000E+01
     -5.753  0.0000E+00  0.8000E+01
     -5.680  0.0000E+00  0.8000E+01
     -5.608  0.0000E+00  0.8000E+01
     -5.535  0.0000E+00  0.8000E+01
     -5.463  0.0000E+00  0.8000E+01
     -5.390  0.0000E+00  0.8000E+01
     -5.318  0.0000E+00  0.8000E+01
     -5.245  0.0000E+00  0.8000E+01
     -5.172  0.0000E+00  0.8000E+01
     -5.100  0.0000E+00  0.8000E+01
     -5.027  0.0000E+00  0.8000E+01
     -4.955  0.0000E+00  0.8000E+01
     -4.882  0.0000E+00  0.8000E+01
     -4.810  0.0000E+00  0.8000E+01
     -4.737  0.0000E+00  0.8000E+01
     -4.665  0.0000E+00  0.8000E+01
     -4.592  0.0000E+00  0.8000E+01
     -4.519  0.0000E+00  0.8000E+01
     -4.447  0.0000E+00  0.8000E+01
     -4.374  0.0000E+00  0.8000E+01
     -4.302  0.0000E+00  0.8000E+01
     -4.229  0.0000E+00  0.8000E+01
     -4.157  0.0000E+00  0.8000E+01
     -4.084  0.0000E+00  0.8000E+01
     -4.012  0.0000E+00  0.8000E+01
     -3.939  0.0000E+00  0.8000E+01
     -3.866  0.0000E+00  0.8000E+01
     -3.794  0.0000E+00  0.8000E+01
     -3.721  0.0000E+00  0.8000E+01
     -3.649  0.0000E+00  0.8000E+01
     -3.576  0.0000E+00  0.8000E+01
     -3.504  0.0000E+00  0.8000E+01
     -3.431  0.0000E+00  0.8000E+01
     -3.359  0.0000E+00  0.8000E+01
     -3.286  0.0000E+00  0.8000E+01
     -3.213  0.0000E+00  0.8000E+01
     -3.141  0.0000E+00  0.8000E+01
     -3.068  0.0000E+00  0.8000E+01
     -2.996  0.0000E+00  0.8000E+01
     -2.923  0.0000E+00  0.8000E+01
     -2.851  0.0000E+00  0.8000E+01
     -2.778  0.0000E+00  0.8000E+01
     -2.706  0.0000E+00  0.8000E+01
     -2.633  0.0000E+00  0.8000E+01
     -2.560  0.0000E+00  0.8000E+01
     -2.488  0.0000E+00  0.8000E+01
     -2.415  0.0000E+00  0.8000E+01
     -2.343  0.0000E+00  0.8000E+01
     -2.270  0.0000E+00  0.8000E+01
     -2.198  0.0000E+00  0.8000E+01
     -2.125  0.0000E+00  0.8000E+01
     -2.053  0.0000E+00  0.8000E+01
     -1.980  0.0000E+00  0.8000E+01
     -1.907 -0.1556E-26  0.8000E+01
     -1.835 -0.4682E-24  0.8000E+01
     -1.762 -0.1083E-21  0.8000E+01
     -1.690 -0.1920E-19  0.8000E+01
     -1.617 -0.2608E-17  0.8000E+01
     -1.545 -0.2714E-15  0.8000E+01
     -1.472 -0.2163E-13  0.8000E+01
     -1.400 -0.1276E-11  0.8000E+01
     -1.327 -0.5921E-10  0.8000E+01
     -1.255 -0.2095E-08  0.8000E+01
     -1.182 -0.5647E-07  0.8000E+01
     -1.109 -0.1157E-05  0.8000E+01
     -1.037 -0.1794E-04  0.8000E+01
     -0.964 -0.2099E-03  0.8000E+01
     -0.892 -0.1840E-02  0.8000E+01
     -0.819 -0.1195E-01  0.7999E+01
     -0.747 -0.5647E-01  0.7995E+01
     -0.674 -0.1869E+00  0.7981E+01
     -0.602 -0.3931E+00  0.7953E+01
     -0.529 -0.3257E+00  0.7929E+01
     -0.456  0.8569E+00  0.7991E+01
     -0.384  0.3701E+01  0.8260E+01
     -0.311  0.7030E+01  0.8770E+01
     -0.239  0.8280E+01  0.9371E+01
     -0.166  0.6315E+01  0.9829E+01
     -0.094  0.2885E+01  0.1004E+02
     -0.021  0.4177E+00  0.1007E+02
      0.051 -0.4162E+00  0.1004E+02
      0.124 -0.3948E+00  0.1001E+02
      0.197 -0.3321E+00  0.9986E+01
      0.269 -0.5443E+00  0.9946E+01
      0.342 -0.8511E+00  0.9884E+01
      0.414 -0.3323E+00  0.9860E+01
      0.487  0.2651E+01  0.1005E+02
      0.559  0.9068E+01  0.1071E+02
      0.632  0.1704E+02  0.1195E+02
      0.704  0.2181E+02  0.1353E+02
      0.777  0.1970E+02  0.1496E+02
      0.850  0.1211E+02  0.1584E+02
      0.922  0.4286E+01  0.1615E+02
      0.995 -0.3010E-01  0.1615E+02
      1.067 -0.1022E+01  0.1607E+02
      1.140 -0.6621E+00  0.1602E+02
      1.212 -0.2486E+00  0.1601E+02
      1.285 -0.6393E-01  0.1600E+02
      1.357 -0.1186E-01  0.1600E+02
      1.430 -0.1627E-02  0.1600E+02
      1.503 -0.1669E-03  0.1600E+02
      1.575 -0.1292E-04  0.1600E+02
      1.648 -0.7576E-06  0.1600E+02
      1.720 -0.3379E-07  0.1600E+02
      1.793 -0.1149E-08  0.1600E+02
      1.865 -0.2983E-10  0.1600E+02
      1.938 -0.5937E-12  0.1600E+02
      2.010 -0.7651E-14  0.1600E+02
      2.083  0.0000E+00  0.1600E+02
      2.156  0.0000E+00  0.1600E+02
      2.228  0.0000E+00  0.1600E+02
      2.301  0.0000E+00  0.1600E+02
      2.373  0.0000E+00  0.1600E+02
      2.446  0.0000E+00  0.1600E+02
      2.518  0.0000E+00  0.1600E+02
      2.591  0.0000E+00  0.1600E+02
      2.663  0.0000E+00  0.1600E+02
      2.736  0.0000E+00  0.1600E+02
      2.72743111    -18.75789088  301     -9.04396410      1.00000000
    -18.758  0.0000E+00  0.0000E+00
    -18.686  0.0000E+00  0.0000E+00
    -18.615  0.0000E+00  0.0000E+00
    -18.543  0.0000E+00  0.0000E+00
    -18.471  0.0000E+00  0.0000E+00
    -18.400 -0.3465E-27 -0.2482E-28
    -18.328 -0.1039E-24 -0.7467E-26
    -18.257 -0.2412E-22 -0.1735E-23
    -18.185 -0.4321E-20 -0.3112E-21
    -18.113 -0.5973E-18 -0.4309E-19
    -18.042 -0.6367E-16 -0.4603E-17
    -17.970 -0.5233E-14 -0.3793E-15
    -17.898 -0.3204E-12 -0.2333E-13
    -17.827 -0.1559E-10 -0.1140E-11
    -17.755 -0.5815E-09 -0.4278E-10
    -17.684 -0.1664E-07 -0.1234E-08
    -17.612 -0.3647E-06 -0.2735E-07
    -17.540 -0.6104E-05 -0.4645E-06
    -17.469 -0.7775E-04 -0.6033E-05
    -17.397 -0.7496E-03 -0.5971E-04
    -17.326 -0.5423E-02 -0.4481E-03
    -17.254 -0.2904E-01 -0.2528E-02
    -17.182 -0.1122E+00 -0.1056E-01
    -17.111 -0.2951E+00 -0.3170E-01
    -17.039 -0.4385E+00 -0.6310E-01
    -16.967  0.5973E-01 -0.5882E-01
    -16.896  0.2043E+01  0.8746E-01
    -16.824  0.5360E+01  0.4713E+00
    -16.753  0.8005E+01  0.1045E+01
    -16.681  0.7761E+01  0.1600E+01
    -16.609  0.4849E+01  0.1948E+01
    -16.538  0.1642E+01  0.2065E+01
    -16.466 -0.8984E-01  0.2059E+01
    -16.395 -0.4371E+00  0.2028E+01
    -16.323 -0.2633E+00  0.2009E+01
    -16.251 -0.9402E-01  0.2002E+01
    -16.180 -0.2314E-01  0.2000E+01
    -16.108 -0.4128E-02  0.2000E+01
    -16.036 -0.5466E-03  0.2000E+01
    -15.965 -0.5440E-04  0.2000E+01
    -15.893 -0.4101E-05  0.2000E+01
    -15.822 -0.2354E-06  0.2000E+01
    -15.750 -0.1033E-07  0.2000E+01
    -15.678 -0.3471E-09  0.2000E+01
    -15.607 -0.8951E-11  0.2000E+01
    -15.535 -0.1798E-12  0.2000E+01
    -15.463  0.0000E+00  0.2000E+01
    -15.392  0.0000E+00  0.2000E+01
    -15.320  0.0000E+00  0.2000E+01
    -15.249  0.0000E+00  0.2000E+01
    -15.177  0.0000E+00  0.2000E+01
    -15.105  0.0000E+00  0.2000E+01
    -15.034  0.0000E+00  0.2000E+01
    -14.962  0.0000E+00  0.2000E+01
    -14.891  0.0000E+00  0.2000E+01
    -14.819  0.0000E+00  0.2000E+01
    -14.747  0.0000E+00  0.2000E+01
    -14.676  0.0000E+00  0.2000E+01
    -14.604  0.0000E+00  0.2000E+01
    -14.532  0.0000E+00  0.2000E+01
    -14.461  0.0000E+00  0.2000E+01
    -14.389  0.0000E+00  0.2000E+01
    -14.318  0.0000E+00  0.2000E+01
    -14.246  0.0000E+00  0.2000E+01
    -14.174  0.0000E+00  0.2000E+01
    -14.103  0.0000E+00  0.2000E+01
    -14.031  0.0000E+00  0.2000E+01
    -13.960  0.0000E+00  0.2000E+01
    -13.888  0.0000E+00  0.2000E+01
    -13.816  0.0000E+00  0.2000E+01
    -13.745  0.0000E+00  0.2000E+01
    -13.673  0.0000E+00  0.2000E+01
    -13.601  0.0000E+00  0.2000E+01
    -13.530  0.0000E+00  0.2000E+01
    -13.458  0.0000E+00  0.2000E+01
    -13.387  0.0000E+00  0.2000E+01
    -13.315  0.0000E+00  0.2000E+01
    -13.243  0.0000E+00  0.2000E+01
    -13.172  0.0000E+00  0.2000E+01
    -13.100  0.0000E+00  0.2000E+01
    -13.028  0.0000E+00  0.2000E+01
    -12.957  0.0000E+00  0.2000E+01
    -12.885  0.0000E+00  0.2000E+01
    -12.814  0.0000E+00  0.2000E+01
    -12.742  0.0000E+00  0.2000E+01
    -12.670  0.0000E+00  0.2000E+01
    -12.599  0.0000E+00  0.2000E+01
    -12.527  0.0000E+00  0.2000E+01
    -12.456  0.0000E+00  0.2000E+01
    -12.384  0.0000E+00  0.2000E+01
    -12.312  0.0000E+00  0.2000E+01
    -12.241  0.0000E+00  0.2000E+01
    -12.169  0.0000E+00  0.2000E+01
    -12.097  0.0000E+00  0.2000E+01
    -12.026  0.0000E+00  0.2000E+01
    -11.954  0.0000E+00  0.2000E+01
    -11.883  0.0000E+00  0.2000E+01
    -11.811  0.0000E+00  0.2000E+01
    -11.739  0.0000E+00  0.2000E+01
    -11.668  0.0000E+00  0.2000E+01
    -11.596  0.0000E+00  0.2000E+01
    -11.524  0.0000E+00  0.2000E+01
    -11.453  0.0000E+00  0.2000E+01
    -11.381  0.0000E+00  0.2000E+01
    -11.310  0.0000E+00  0.2000E+01
    -11.238  0.0000E+00  0.2000E+01
    -11.166  0.0000E+00  0.2000E+01
    -11.095  0.0000E+00  0.2000E+01
    -11.023  0.0000E+00  0.2000E+01
    -10.952  0.0000E+00  0.2000E+01
    -10.880 -0.5846E-27  0.2000E+01
    -10.808 -0.1768E-24  0.2000E+01
    -10.737 -0.4108E-22  0.2000E+01
    -10.665 -0.7374E-20  0.2000E+01
    -10.593 -0.1023E-17  0.2000E+01
    -10.522 -0.1095E-15  0.2000E+01
    -10.450 -0.9056E-14  0.2000E+01
    -10.379 -0.5608E-12  0.2000E+01
    -10.307 -0.2747E-10  0.2000E+01
    -10.235 -0.1037E-08  0.2000E+01
    -10.164 -0.3009E-07  0.2000E+01
    -10.092 -0.6708E-06  0.2000E+01
    -10.021 -0.1146E-04  0.2000E+01
     -9.949 -0.1494E-03  0.2000E+01
     -9.877 -0.1482E-02  0.2000E+01
     -9.806 -0.1109E-01  0.1999E+01
     -9.734 -0.6188E-01  0.1995E+01
     -9.662 -0.2519E+00  0.1977E+01
     -9.591 -0.7135E+00  0.1926E+01
     -9.519 -0.1226E+01  0.1838E+01
     -9.448 -0.4129E+00  0.1808E+01
     -9.376  0.4156E+01  0.2106E+01
     -9.304  0.1312E+02  0.3045E+01
     -9.233  0.2204E+02  0.4624E+01
     -9.161  0.2401E+02  0.6343E+01
     -9.089  0.1731E+02  0.7584E+01
     -9.018  0.7548E+01  0.8124E+01
     -8.946  0.9541E+00  0.8192E+01
     -8.875 -0.1163E+01  0.8109E+01
     -8.803 -0.9655E+00  0.8040E+01
     -8.731 -0.4120E+00  0.8010E+01
     -8.660 -0.1179E+00  0.8002E+01
     -8.588 -0.2429E-01  0.8000E+01
     -8.517 -0.3709E-02  0.8000E+01
     -8.445 -0.4266E-03  0.8000E+01
     -8.373 -0.3728E-04  0.8000E+01
     -8.302 -0.2488E-05  0.8000E+01
     -8.230 -0.1273E-06  0.8000E+01
     -8.158 -0.5006E-08  0.8000E+01
     -8.087 -0.1515E-09  0.8000E+01
     -8.015 -0.3533E-11  0.8000E+01
     -7.944 -0.6201E-13  0.8000E+01
     -7.872  0.0000E+00  0.8000E+01
     -7.800  0.0000E+00  0.8000E+01
     -7.729  0.0000E+00  0.8000E+01
     -7.657  0.0000E+00  0.8000E+01
     -7.586  0.0000E+00  0.8000E+01
     -7.514  0.0000E+00  0.8000E+01
     -7.442  0.0000E+00  0.8000E+01
     -7.371  0.0000E+00  0.8000E+01
     -7.299  0.0000E+00  0.8000E+01
     -7.227  0.0000E+00  0.8000E+01
     -7.156  0.0000E+00  0.8000E+01
     -7.084  0.0000E+00  0.8000E+01
     -7.013  0.0000E+00  0.8000E+01
     -6.941  0.0000E+00  0.8000E+01
     -6.869  0.0000E+00  0.8000E+01
     -6.798  0.0000E+00  0.8000E+01
     -6.726  0.0000E+00  0.8000E+01
     -6.654  0.0000E+00  0.8000E+01
     -6.583  0.0000E+00  0.8000E+01
     -6.511  0.0000E+00  0.8000E+01
     -6.440  0.0000E+00  0.8000E+01
     -6.368  0.0000E+00  0.8000E+01
     -6.296  0.0000E+00  0.8000E+01
     -6.225  0.0000E+00  0.8000E+01
     -6.153  0.0000E+00  0.8000E+01
     -6.082  0.0000E+00  0.8000E+01
     -6.010  0.0000E+00  0.8000E+01
     -5.938  0.0000E+00  0.8000E+01
     -5.867  0.0000E+00  0.8000E+01
     -5.795  0.0000E+00  0.8000E+01
     -5.723  0.0000E+00  0.8000E+01
     -5.652  0.0000E+00  0.8000E+01
     -5.580  0.0000E+00  0.8000E+01
     -5.509  0.0000E+00  0.8000E+01
     -5.437  0.0000E+00  0.8000E+01
     -5.365  0.0000E+00  0.8000E+01
     -5.294  0.0000E+00  0.8000E+01
     -5.222  0.0000E+00  0.8000E+01
     -5.151  0.0000E+00  0.8000E+01
     -5.079  0.0000E+00  0.8000E+01
     -5.007  0.0000E+00  0.8000E+01
     -4.936  0.0000E+00  0.8000E+01
     -4.864  0.0000E+00  0.8000E+01
     -4.792  0.0000E+00  0.8000E+01
     -4.721  0.0000E+00  0.8000E+01
     -4.649  0.0000E+00  0.8000E+01
     -4.578  0.0000E+00  0.8000E+01
     -4.506  0.0000E+00  0.8000E+01
     -4.434  0.0000E+00  0.8000E+01
     -4.363  0.0000E+00  0.8000E+01
     -4.291  0.0000E+00  0.8000E+01
     -4.219  0.0000E+00  0.8000E+01
     -4.148  0.0000E+00  0.8000E+01
     -4.076  0.0000E+00  0.8000E+01
     -4.005  0.0000E+00  0.8000E+01
     -3.933  0.0000E+00  0.8000E+01
     -3.861  0.0000E+00  0.8000E+01
     -3.790  0.0000E+00  0.8000E+01
     -3.718  0.0000E+00  0.8000E+01
     -3.647  0.0000E+00  0.8000E+01
     -3.575  0.0000E+00  0.8000E+01
     -3.503  0.0000E+00  0.8000E+01
     -3.432  0.0000E+00  0.8000E+01
     -3.360  0.0000E+00  0.8000E+01
     -3.288  0.0000E+00  0.8000E+01
     -3.217  0.0000E+00  0.8000E+01
     -3.145  0.0000E+00  0.8000E+01
     -3.074  0.0000E+00  0.8000E+01
     -3.002  0.0000E+00  0.8000E+01
     -2.930  0.0000E+00  0.8000E+01
     -2.859  0.0000E+00  0.8000E+01
     -2.787  0.0000E+00  0.8000E+01
     -2.716  0.0000E+00  0.8000E+01
     -2.644  0.0000E+00  0.8000E+01
     -2.572  0.0000E+00  0.8000E+01
     -2.501  0.0000E+00  0.8000E+01
     -2.429  0.0000E+00  0.8000E+01
     -2.357  0.0000E+00  0.8000E+01
     -2.286  0.0000E+00  0.8000E+01
     -2.214  0.0000E+00  0.8000E+01
     -2.143  0.0000E+00  0.8000E+01
     -2.071  0.0000E+00  0.8000E+01
     -1.999 -0.3359E-28  0.8000E+01
     -1.928 -0.1312E-25  0.8000E+01
     -1.856 -0.3344E-23  0.8000E+01
     -1.784 -0.6583E-21  0.8000E+01
     -1.713 -0.1000E-18  0.8000E+01
     -1.641 -0.1172E-16  0.8000E+01
     -1.570 -0.1059E-14  0.8000E+01
     -1.498 -0.7145E-13  0.8000E+01
     -1.426 -0.3828E-11  0.8000E+01
     -1.355 -0.1572E-09  0.8000E+01
     -1.283 -0.4960E-08  0.8000E+01
     -1.212 -0.1199E-06  0.8000E+01
     -1.140 -0.2217E-05  0.8000E+01
     -1.068 -0.3125E-04  0.8000E+01
     -0.997 -0.3341E-03  0.8000E+01
     -0.925 -0.2691E-02  0.8000E+01
     -0.853 -0.1614E-01  0.7999E+01
     -0.782 -0.7067E-01  0.7994E+01
     -0.710 -0.2166E+00  0.7978E+01
     -0.639 -0.4154E+00  0.7948E+01
     -0.567 -0.2585E+00  0.7930E+01
     -0.495  0.1100E+01  0.8009E+01
     -0.424  0.4058E+01  0.8299E+01
     -0.352  0.7266E+01  0.8820E+01
     -0.281  0.8242E+01  0.9410E+01
     -0.209  0.6113E+01  0.9848E+01
     -0.137  0.2721E+01  0.1004E+02
     -0.066  0.3574E+00  0.1007E+02
      0.006 -0.4179E+00  0.1004E+02
      0.078 -0.3711E+00  0.1001E+02
      0.149 -0.2613E+00  0.9993E+01
      0.221 -0.3950E+00  0.9965E+01
      0.292 -0.7298E+00  0.9912E+01
      0.364 -0.7095E+00  0.9862E+01
      0.436  0.9771E+00  0.9932E+01
      0.507  0.5714E+01  0.1034E+02
      0.579  0.1311E+02  0.1128E+02
      0.651  0.1982E+02  0.1270E+02
      0.722  0.2141E+02  0.1423E+02
      0.794  0.1648E+02  0.1541E+02
      0.865  0.8428E+01  0.1602E+02
      0.937  0.2058E+01  0.1616E+02
      1.009 -0.6680E+00  0.1612E+02
      1.080 -0.9254E+00  0.1605E+02
      1.152 -0.4816E+00  0.1601E+02
      1.223 -0.1604E+00  0.1600E+02
      1.295 -0.3782E-01  0.1600E+02
      1.367 -0.6554E-02  0.1600E+02
      1.438 -0.8502E-03  0.1600E+02
      1.510 -0.8343E-04  0.1600E+02
      1.582 -0.6231E-05  0.1600E+02
      1.653 -0.3558E-06  0.1600E+02
      1.725 -0.1557E-07  0.1600E+02
      1.796 -0.5237E-09  0.1600E+02
      1.868 -0.1355E-10  0.1600E+02
      1.940 -0.2697E-12  0.1600E+02
      2.011 -0.4651E-14  0.1600E+02
      2.083  0.0000E+00  0.1600E+02
      2.154  0.0000E+00  0.1600E+02
      2.226  0.0000E+00  0.1600E+02
      2.298  0.0000E+00  0.1600E+02
      2.369  0.0000E+00  0.1600E+02
      2.441  0.0000E+00  0.1600E+02
      2.513  0.0000E+00  0.1600E+02
      2.584  0.0000E+00  0.1600E+02
      2.656  0.0000E+00  0.1600E+02
      2.727  0.0000E+00  0.1600E+02
      2.72409537    -18.76192148  301     -8.87896120      1.00000000
    -18.762  0.0000E+00  0.0000E+00
    -18.690  0.0000E+00  0.0000E+00
    -18.619  0.0000E+00  0.0000E+00
    -18.547  0.0000E+00  0.0000E+00
    -18.475  0.0000E+00  0.0000E+00
    -18.404 -0.3469E-27 -0.2485E-28
    -18.332 -0.1041E-24 -0.7477E-26
    -18.261 -0.2416E-22 -0.1737E-23
    -18.189 -0.4328E-20 -0.3117E-21
    -18.117 -0.5982E-18 -0.4316E-19
    -18.046 -0.6378E-16 -0.4611E-17
    -17.974 -0.5241E-14 -0.3800E-15
    -17.902 -0.3210E-12 -0.2337E-13
    -17.831 -0.1562E-10 -0.1142E-11
    -17.759 -0.5825E-09 -0.4286E-10
    -17.688 -0.1667E-07 -0.1237E-08
    -17.616 -0.3653E-06 -0.2740E-07
    -17.544 -0.6114E-05 -0.4653E-06
    -17.473 -0.7787E-04 -0.6042E-05
    -17.401 -0.7506E-03 -0.5980E-04
    -17.330 -0.5430E-02 -0.4487E-03
    -17.258 -0.2908E-01 -0.2531E-02
    -17.186 -0.1123E+00 -0.1057E-01
    -17.115 -0.2953E+00 -0.3172E-01
    -17.043 -0.4385E+00 -0.6312E-01
    -16.971  0.6068E-01 -0.5878E-01
    -16.900  0.2045E+01  0.8768E-01
    -16.828  0.5363E+01  0.4718E+00
    -16.757  0.8006E+01  0.1045E+01
    -16.685  0.7760E+01  0.1601E+01
    -16.613  0.4845E+01  0.1948E+01
    -16.542  0.1640E+01  0.2065E+01
    -16.470 -0.9080E-01  0.2059E+01
    -16.398 -0.4371E+00  0.2028E+01
    -16.327 -0.2631E+00  0.2009E+01
    -16.255 -0.9388E-01  0.2002E+01
    -16.184 -0.2310E-01  0.2000E+01
    -16.112 -0.4119E-02  0.2000E+01
    -16.040 -0.5451E-03  0.2000E+01
    -15.969 -0.5423E-04  0.2000E+01
    -15.897 -0.4087E-05  0.2000E+01
    -15.825 -0.2345E-06  0.2000E+01
    -15.754 -0.1028E-07  0.2000E+01
    -15.682 -0.3453E-09  0.2000E+01
    -15.611 -0.8903E-11  0.2000E+01
    -15.539 -0.1798E-12  0.2000E+01
    -15.467  0.0000E+00  0.2000E+01
    -15.396  0.0000E+00  0.2000E+01
    -15.324  0.0000E+00  0.2000E+01
    -15.253  0.0000E+00  0.2000E+01
    -15.181  0.0000E+00  0.2000E+01
    -15.109  0.0000E+00  0.2000E+01
    -15.038  0.0000E+00  0.2000E+01
    -14.966  0.0000E+00  0.2000E+01
    -14.894  0.0000E+00  0.2000E+01
    -14.823  0.0000E+00  0.2000E+01
    -14.751  0.0000E+00  0.2000E+01
    -14.680  0.0000E+00  0.2000E+01
    -14.608  0.0000E+00  0.2000E+01
    -14.536  0.0000E+00  0.2000E+01
    -14.465  0.0000E+00  0.2000E+01
    -14.393  0.0000E+00  0.2000E+01
    -14.321  0.0000E+00  0.2000E+01
    -14.250  0.0000E+00  0.2000E+01
    -14.178  0.0000E+00  0.2000E+01
    -14.107  0.0000E+00  0.2000E+01
    -14.035  0.0000E+00  0.2000E+01
    -13.963  0.0000E+00  0.2000E+01
    -13.892  0.0000E+00  0.2000E+01
    -13.820  0.0000E+00  0.2000E+01
    -13.749  0.0000E+00  0.2000E+01
    -13.677  0.0000E+00  0.2000E+01
    -13.605  0.0000E+00  0.2000E+01
    -13.534  0.0000E+00  0.2000E+01
    -13.462  0.0000E+00  0.2000E+01
    -13.390  0.0000E+00  0.2000E+01
    -13.319  0.0000E+00  0.2000E+01
    -13.247  0.0000E+00  0.2000E+01
    -13.176  0.0000E+00  0.2000E+01
    -13.104  0.0000E+00  0.2000E+01
    -13.032  0.0000E+00  0.2000E+01
    -12.961  0.0000E+00  0.2000E+01
    -12.889  0.0000E+00  0.2000E+01
    -12.817  0.0000E+00  0.2000E+01
    -12.746  0.0000E+00  0.2000E+01
    -12.674  0.0000E+00  0.2000E+01
    -12.603  0.0000E+00  0.2000E+01
    -12.531  0.0000E+00  0.2000E+01
    -12.459  0.0000E+00  0.2000E+01
    -12.388  0.0000E+00  0.2000E+01
    -12.316  0.0000E+00  0.2000E+01
    -12.244  0.0000E+00  0.2000E+01
    -12.173  0.0000E+00  0.2000E+01
    -12.101  0.0000E+00  0.2000E+01
    -12.030  0.0000E+00  0.2000E+01
    -11.958  0.0000E+00  0.2000E+01
    -11.886  0.0000E+00  0.2000E+01
    -11.815  0.0000E+00  0.2000E+01
    -11.743  0.0000E+00  0.2000E+01
    -11.672  0.0000E+00  0.2000E+01
    -11.600  0.0000E+00  0.2000E+01
    -11.528  0.0000E+00  0.2000E+01
    -11.457  0.0000E+00  0.2000E+01
    -11.385  0.0000E+00  0.2000E+01
    -11.313  0.0000E+00  0.2000E+01
    -11.242  0.0000E+00  0.2000E+01
    -11.170  0.0000E+00  0.2000E+01
    -11.099 -0.2592E-27  0.2000E+01
    -11.027 -0.7874E-25  0.2000E+01
    -10.955 -0.1852E-22  0.2000E+01
    -10.884 -0.3361E-20  0.2000E+01
    -10.812 -0.4706E-18  0.2000E+01
    -10.740 -0.5083E-16  0.2000E+01
    -10.669 -0.4232E-14  0.2000E+01
    -10.597 -0.2637E-12  0.2000E+01
    -10.526 -0.1295E-10  0.2000E+01
    -10.454 -0.4892E-09  0.2000E+01
    -10.382 -0.1419E-07  0.2000E+01
    -10.311 -0.3151E-06  0.2000E+01
    -10.239 -0.5346E-05  0.2000E+01
    -10.168 -0.6903E-04  0.2000E+01
    -10.096 -0.6749E-03  0.2000E+01
    -10.024 -0.4954E-02  0.2000E+01
     -9.953 -0.2695E-01  0.1998E+01
     -9.881 -0.1060E+00  0.1990E+01
     -9.809 -0.2856E+00  0.1970E+01
     -9.738 -0.4472E+00  0.1938E+01
     -9.666 -0.3377E-01  0.1935E+01
     -9.595  0.1759E+01  0.2061E+01
     -9.523  0.4823E+01  0.2407E+01
     -9.451  0.7400E+01  0.2937E+01
     -9.380  0.7874E+01  0.3500E+01
     -9.308  0.7226E+01  0.4018E+01
     -9.236  0.7873E+01  0.4582E+01
     -9.165  0.1024E+02  0.5315E+01
     -9.093  0.1226E+02  0.6193E+01
     -9.022  0.1188E+02  0.7044E+01
     -8.950  0.8805E+01  0.7675E+01
     -8.878  0.4563E+01  0.8002E+01
     -8.807  0.1207E+01  0.8088E+01
     -8.735 -0.3160E+00  0.8065E+01
     -8.663 -0.5098E+00  0.8029E+01
     -8.592 -0.2791E+00  0.8009E+01
     -8.520 -0.9627E-01  0.8002E+01
     -8.449 -0.2331E-01  0.8000E+01
     -8.377 -0.4124E-02  0.8000E+01
     -8.305 -0.5432E-03  0.8000E+01
     -8.234 -0.5387E-04  0.8000E+01
     -8.162 -0.4052E-05  0.8000E+01
     -8.091 -0.2321E-06  0.8000E+01
     -8.019 -0.1016E-07  0.8000E+01
     -7.947 -0.3410E-09  0.8000E+01
     -7.876 -0.8783E-11  0.8000E+01
     -7.804 -0.1736E-12  0.8000E+01
     -7.732  0.0000E+00  0.8000E+01
     -7.661  0.0000E+00  0.8000E+01
     -7.589  0.0000E+00  0.8000E+01
     -7.518  0.0000E+00  0.8000E+01
     -7.446  0.0000E+00  0.8000E+01
     -7.374  0.0000E+00  0.8000E+01
     -7.303  0.0000E+00  0.8000E+01
     -7.231  0.0000E+00  0.8000E+01
     -7.159  0.0000E+00  0.8000E+01
     -7.088  0.0000E+00  0.8000E+01
     -7.016  0.0000E+00  0.8000E+01
     -6.945  0.0000E+00  0.8000E+01
     -6.873  0.0000E+00  0.8000E+01
     -6.801  0.0000E+00  0.8000E+01
     -6.730  0.0000E+00  0.8000E+01
     -6.658  0.0000E+00  0.8000E+01
     -6.587  0.0000E+00  0.8000E+01
     -6.515  0.0000E+00  0.8000E+01
     -6.443  0.0000E+00  0.8000E+01
     -6.372  0.0000E+00  0.8000E+01
     -6.300  0.0000E+00  0.8000E+01
     -6.228  0.0000E+00  0.8000E+01
     -6.157  0.0000E+00  0.8000E+01
     -6.085  0.0000E+00  0.8000E+01
     -6.014  0.0000E+00  0.8000E+01
     -5.942  0.0000E+00  0.8000E+01
     -5.870  0.0000E+00  0.8000E+01
     -5.799  0.0000E+00  0.8000E+01
     -5.727  0.0000E+00  0.8000E+01
     -5.655  0.0000E+00  0.8000E+01
     -5.584  0.0000E+00  0.8000E+01
     -5.512  0.0000E+00  0.8000E+01
     -5.441  0.0000E+00  0.8000E+01
     -5.369  0.0000E+00  0.8000E+01
     -5.297  0.0000E+00  0.8000E+01
     -5.226  0.0000E+00  0.8000E+01
     -5.154  0.0000E+00  0.8000E+01
     -5.082  0.0000E+00  0.8000E+01
     -5.011  0.0000E+00  0.8000E+01
     -4.939  0.0000E+00  0.8000E+01
     -4.868  0.0000E+00  0.8000E+01
     -4.796  0.0000E+00  0.8000E+01
     -4.724  0.0000E+00  0.8000E+01
     -4.653  0.0000E+00  0.8000E+01
     -4.581  0.0000E+00  0.8000E+01
     -4.510  0.0000E+00  0.8000E+01
     -4.438  0.0000E+00  0.8000E+01
     -4.366  0.0000E+00  0.8000E+01
     -4.295  0.0000E+00  0.8000E+01
     -4.223  0.0000E+00  0.8000E+01
     -4.151  0.0000E+00  0.8000E+01
     -4.080  0.0000E+00  0.8000E+01
     -4.008  0.0000E+00  0.8000E+01
     -3.937  0.0000E+00  0.8000E+01
     -3.865  0.0000E+00  0.8000E+01
     -3.793  0.0000E+00  0.8000E+01
     -3.722  0.0000E+00  0.8000E+01
     -3.650  0.0000E+00  0.8000E+01
     -3.578  0.0000E+00  0.8000E+01
     -3.507  0.0000E+00  0.8000E+01
     -3.435  0.0000E+00  0.8000E+01
     -3.364  0.0000E+00  0.8000E+01
     -3.292  0.0000E+00  0.8000E+01
     -3.220  0.0000E+00  0.8000E+01
     -3.149  0.0000E+00  0.8000E+01
     -3.077  0.0000E+00  0.8000E+01