    5    5    1    1
  0.1893149E+03  0.9719827E-09  0.1003690E-08  0.9708610E-09  0.2000000E-14
   50.000000000000000     
  CAR 
 unknown system                          
      8      4      8

  0.2500000E+00  0.2500000E+00  0.2500000E+00  0.2500000E+00
    1      -17.116173   1.000000
    2       -9.835126   1.000000
    3       -9.435194   1.000036
    4       -8.970203   0.999942
    5       -0.292247   0.000000
    6        0.593120   0.000000
    7        0.723084   0.000000
    8        0.746761   0.000000

 -0.2500000E+00  0.2500000E+00  0.2500000E+00  0.2500000E+00
    1      -17.116206   1.000000
    2       -9.834851   1.000000
    3       -9.434988   1.000036
    4       -8.970284   1.000031
    5       -0.289773   0.000000
    6        0.589182   0.000000
    7        0.703258   0.000000
    8        0.742086   0.000000

  0.2500000E+00 -0.2500000E+00  0.2500000E+00  0.2500000E+00
    1      -17.116192   1.000000
    2       -9.834673   1.000000
    3       -9.434918   1.000036
    4       -8.970185   0.999922
    5       -0.282248   0.000000
    6        0.567494   0.000000
    7        0.690624   0.000000
    8        0.730582   0.000000

 -0.2500000E+00 -0.2500000E+00  0.2500000E+00  0.2500000E+00
    1      -17.116103   1.000000
    2       -9.835049   1.000000
    3       -9.435028   1.000036
    4       -8.970222   0.999962
    5       -0.290377   0.000000
    6        0.586575   0.000000
    7        0.717874   0.000000
    8        0.743210   0.000000
