 vasp.5.4.4.18Apr17-6-g9f103f2a35 (build Jul 12 2018 13:43:46) complex           
 executed on             LinuxGNU date 2019.06.22  02:17:35
 running on    1 total cores
 distrk:  each k-point on    1 cores,    1 groups
 distr:  one band on NCORES_PER_BAND=   1 cores,    1 groups


--------------------------------------------------------------------------------------------------------


 INCAR:
 POTCAR:    PAW_PBE H 15Jun2001                   
 POTCAR:    PAW_PBE C 08Apr2002                   
 POTCAR:    PAW_PBE H 15Jun2001                   
   VRHFIN =H: ultrasoft test                                                    
   LEXCH  = PE                                                                  
   EATOM  =    12.4884 eV,    0.9179 Ry                                         
                                                                                
   TITEL  = PAW_PBE H 15Jun2001                                                 
   LULTRA =        F    use ultrasoft PP ?                                      
   IUNSCR =        0    unscreen: 0-lin 1-nonlin 2-no                           
   RPACOR =    0.000    partial core radius                                     
   POMASS =    1.000; ZVAL   =    1.000    mass and valenz                      
   RCORE  =    1.100    outmost cutoff radius                                   
   RWIGS  =    0.700; RWIGS  =    0.370    wigner-seitz radius (au A)           
   ENMAX  =  250.000; ENMIN  =  200.000 eV                                      
   RCLOC  =    0.701    cutoff for local pot                                    
   LCOR   =        T    correct aug charges                                     
   LPAW   =        T    paw PP                                                  
   EAUG   =  400.000                                                            
   RMAX   =    1.123    core radius for proj-oper                               
   RAUG   =    1.200    factor for augmentation sphere                          
   RDEP   =    1.112    radius for radial grids                                 
   RDEPT  =    0.926    core radius for aug-charge                              
                                                                                
   Atomic configuration                                                         
    2 entries                                                                   
     n  l   j            E        occ.                                          
     1  0  0.50        -6.4927   1.0000                                         
     2  1  0.50        -3.4015   0.0000                                         
   Description                                                                  
     l       E           TYP  RCUT    TYP  RCUT                                 
     0     -6.4927494     23  1.100                                             
     0      6.8029130     23  1.100                                             
     1     -4.0817478     23  1.100                                             
  local pseudopotential read in
  atomic valenz-charges read in
  non local Contribution for L=           0  read in
    real space projection operators read in
  non local Contribution for L=           0  read in
    real space projection operators read in
  non local Contribution for L=           1  read in
    real space projection operators read in
    PAW grid and wavefunctions read in

   number of l-projection  operators is LMAX  =           3
   number of lm-projection operators is LMMAX =           5

 POTCAR:    PAW_PBE C 08Apr2002                   
   VRHFIN =C: s2p2                                                              
   LEXCH  = PE                                                                  
   EATOM  =   147.1560 eV,   10.8157 Ry                                         
                                                                                
   TITEL  = PAW_PBE C 08Apr2002                                                 
   LULTRA =        F    use ultrasoft PP ?                                      
   IUNSCR =        1    unscreen: 0-lin 1-nonlin 2-no                           
   RPACOR =    1.200    partial core radius                                     
   POMASS =   12.011; ZVAL   =    4.000    mass and valenz                      
   RCORE  =    1.500    outmost cutoff radius                                   
   RWIGS  =    1.630; RWIGS  =    0.863    wigner-seitz radius (au A)           
   ENMAX  =  400.000; ENMIN  =  300.000 eV                                      
   ICORE  =        2    local potential                                         
   LCOR   =        T    correct aug charges                                     
   LPAW   =        T    paw PP                                                  
   EAUG   =  644.873                                                            
   DEXC   =    0.000                                                            
   RMAX   =    1.529    core radius for proj-oper                               
   RAUG   =    1.300    factor for augmentation sphere                          
   RDEP   =    1.501    radius for radial grids                                 
   RDEPT  =    1.300    core radius for aug-charge                              
                                                                                
   Atomic configuration                                                         
    4 entries                                                                   
     n  l   j            E        occ.                                          
     1  0  0.50      -273.3789   2.0000                                         
     2  0  0.50       -13.7508   2.0000                                         
     2  1  0.50        -5.2854   2.0000                                         
     3  2  1.50        -5.4423   0.0000                                         
   Description                                                                  
     l       E           TYP  RCUT    TYP  RCUT                                 
     0    -13.7508458     23  1.200                                             
     0     -8.2022199     23  1.200                                             
     1     -5.2854383     23  1.500                                             
     1     34.0145650     23  1.500                                             
     2     -5.4423304      7  1.500                                             
  local pseudopotential read in
  partial core-charges read in
  partial kinetic energy density read in
  atomic valenz-charges read in
  non local Contribution for L=           0  read in
    real space projection operators read in
  non local Contribution for L=           0  read in
    real space projection operators read in
  non local Contribution for L=           1  read in
    real space projection operators read in
  non local Contribution for L=           1  read in
    real space projection operators read in
    PAW grid and wavefunctions read in

   number of l-projection  operators is LMAX  =           4
   number of lm-projection operators is LMMAX =           8


 ----------------------------------------------------------------------------- 
|                                                                             |
|  ADVICE TO THIS USER RUNNING 'VASP/VAMP'   (HEAR YOUR MASTER'S VOICE ...):  |
|                                                                             |
|      You have a (more or less) 'small supercell' and for smaller cells      |
|      it is recommended  to use the reciprocal-space projection scheme!      |
|      The real space optimization is not  efficient for small cells and it   |
|      is also less accurate ...                                              |
|      Therefore set LREAL=.FALSE. in the  INCAR file                         |
|                                                                             |
 ----------------------------------------------------------------------------- 


 ----------------------------------------------------------------------------- 
|                                                                             |
|           W    W    AA    RRRRR   N    N  II  N    N   GGGG   !!!           |
|           W    W   A  A   R    R  NN   N  II  NN   N  G    G  !!!           |
|           W    W  A    A  R    R  N N  N  II  N N  N  G       !!!           |
|           W WW W  AAAAAA  RRRRR   N  N N  II  N  N N  G  GGG   !            |
|           WW  WW  A    A  R   R   N   NN  II  N   NN  G    G                |
|           W    W  A    A  R    R  N    N  II  N    N   GGGG   !!!           |
|                                                                             |
|     The real-space-projection scheme for the treatment of the nonlocal      |
|     pseudopotentials has been switched on -- but on file POTCAR I have      |
|     not found any entries signalling me that you have ever performed a      |
|     real-space optimization of all nonlocal projectors! BE WARNED that      |
|     a calculation using the real-space-projection scheme together with      |
|     nonlocal projectors which were not real-space-optimized (according      |
|     to the plane-wave-cutoff used in this calculation) might give more      |
|     or less inaccurate results                                              |
|     I hope you know what you are doing                                      |
|                                                                             |
 ----------------------------------------------------------------------------- 

  PAW_PBE H 15Jun2001                   :
 energy of atom  1       EATOM=  -12.4884
 kinetic energy error for atom=    0.0098 (will be added to EATOM!!)
  PAW_PBE C 08Apr2002                   :
 energy of atom  2       EATOM= -147.1560
 kinetic energy error for atom=    0.0288 (will be added to EATOM!!)


 POSCAR:  H  C                                   
  positions in cartesian coordinates
  No initial velocities read in
 exchange correlation table for  LEXCH =        8
   RHO(1)=    0.500       N(1)  =     2000
   RHO(2)=  100.500       N(2)  =     4000



--------------------------------------------------------------------------------------------------------


 ion  position               nearest neighbor table
   1  0.538  0.407  0.361-   5 1.08
   2  0.395  0.480  0.438-   5 1.06
   3  0.553  0.565  0.443-   5 1.10
   4  0.528  0.416  0.539-   5 1.06
   5  0.504  0.467  0.445-   4 1.06   2 1.06   1 1.08   3 1.10


IMPORTANT INFORMATION: All symmetrisations will be switched off!
NOSYMM: (Re-)initialisation of all symmetry stuff for point group C_1.




Automatic generation of k-mesh.
 generate k-points for:    2    2    2
Space group operators:
 irot       det(A)        alpha          n_x          n_y          n_z        tau_x        tau_y        tau_z
    1     1.000000     0.000000     1.000000     0.000000     0.000000     0.000000     0.000000     0.000000
 
 Subroutine IBZKPT returns following result:
 ===========================================
 
 Found      4 irreducible k-points:
 
 Following reciprocal coordinates:
            Coordinates               Weight
  0.250000  0.250000  0.250000      2.000000
 -0.250000  0.250000  0.250000      2.000000
  0.250000 -0.250000  0.250000      2.000000
 -0.250000 -0.250000  0.250000      2.000000
 
 Following cartesian coordinates:
            Coordinates               Weight
  0.025721  0.024207  0.025584      2.000000
 -0.025721  0.025628  0.025024      2.000000
  0.025721 -0.025628  0.026488      2.000000
 -0.025721 -0.024207  0.025928      2.000000
 


--------------------------------------------------------------------------------------------------------




 Dimension of arrays:
   k-points           NKPTS =      4   k-points in BZ     NKDIM =      4   number of bands    NBANDS=      8
   number of dos      NEDOS =    301   number of ions     NIONS =      5
   non local maximal  LDIM  =      4   non local SUM 2l+1 LMDIM =      8
   total plane-waves  NPLWV = 286720
   max r-space proj   IRMAX =    721   max aug-charges    IRDMAX=   3774
   dimension x,y,z NGX =    64 NGY =   70 NGZ =   64
   dimension x,y,z NGXF=   128 NGYF=  140 NGZF=  128
   support grid    NGXF=   128 NGYF=  140 NGZF=  128
   ions per type =               4   1
   NGX,Y,Z   is equivalent  to a cutoff of  10.95, 11.59, 10.96 a.u.
   NGXF,Y,Z  is equivalent  to a cutoff of  21.89, 23.19, 21.92 a.u.

 SYSTEM =  unknown system                          
 POSCAR =   H  C                                   

 Startparameter for this run:
   NWRITE =      2    write-flag & timer
   PREC   = a         normal or accurate (medium, high low for compatibility)
   ISTART =      0    job   : 0-new  1-cont  2-samecut
   ICHARG =      2    charge: 1-file 2-atom 10-const
   ISPIN  =      1    spin polarized calculation?
   LNONCOLLINEAR =      F non collinear calculations
   LSORBIT =      F    spin-orbit coupling
   INIWAV =      1    electr: 0-lowe 1-rand  2-diag
   LASPH  =      F    aspherical Exc in radial PAW
   METAGGA=      F    non-selfconsistent MetaGGA calc.

 Electronic Relaxation 1
   ENCUT  =  400.0 eV  29.40 Ry    5.42 a.u.  15.85 16.37 15.83*2*pi/ulx,y,z
   ENINI  =  400.0     initial cutoff
   ENAUG  =  644.9 eV  augmentation charge cutoff
   NELM   =     60;   NELMIN=  2; NELMDL= -5     # of ELM steps 
   EDIFF  = 0.1E-05   stopping-criterion for ELM
   LREAL  =      T    real-space projection
   NLSPLINE    = F    spline interpolate recip. space projectors
   LCOMPAT=      F    compatible to vasp.4.4
   GGA_COMPAT  = T    GGA compatible to vasp.4.4-vasp.4.6
   LMAXPAW     = -100 max onsite density
   LMAXMIX     =    2 max onsite mixed and CHGCAR
   VOSKOWN=      0    Vosko Wilk Nusair interpolation
   ROPT   =    0.00000   0.00000
 Ionic relaxation
   EDIFFG = 0.1E-04   stopping-criterion for IOM
   NSW    =     10    number of steps for IOM
   NBLOCK =      1;   KBLOCK =      1    inner block; outer block 
   IBRION =      0    ionic relax: 0-MD 1-quasi-New 2-CG
   NFREE  =      0    steps in history (QN), initial steepest desc. (CG)
   ISIF   =      2    stress and relaxation
   IWAVPR =     12    prediction:  0-non 1-charg 2-wave 3-comb
   ISYM   =      0    0-nonsym 1-usesym 2-fastsym
   LCORR  =      T    Harris-Foulkes like correction to forces

   POTIM  = 2.0000    time-step for ionic-motion
   TEIN   =   50.0    initial temperature
   TEBEG  =   50.0;   TEEND  =  50.0 temperature during run
   SMASS  =   0.00    Nose mass-parameter (am)
   estimated Nose-frequenzy (Omega)   =  0.79E+14 period in steps = 40.00 mass=   0.123E-29a.u.
   SCALEE = 1.0000    scale energy and forces
   NPACO  =    256;   APACO  = 16.0  distance and # of slots for P.C.
   PSTRESS=    0.0 pullay stress

  Mass of Ions in am
   POMASS =   1.00 12.01
  Ionic Valenz
   ZVAL   =   1.00  4.00
  Atomic Wigner-Seitz radii
   RWIGS  =  -1.00 -1.00
  virtual crystal weights 
   VCA    =   1.00  1.00
   NELECT =       8.0000    total number of electrons
   NUPDOWN=      -1.0000    fix difference up-down

 DOS related values:
   EMIN   =  10.00;   EMAX   =-10.00  energy-range for DOS
   EFERMI =   0.00
   ISMEAR =     1;   SIGMA  =   0.20  broadening in eV -4-tet -1-fermi 0-gaus

 Electronic relaxation 2 (details)
   IALGO  =     68    algorithm
   LDIAG  =      T    sub-space diagonalisation (order eigenvalues)
   LSUBROT=      F    optimize rotation matrix (better conditioning)
   TURBO    =      0    0=normal 1=particle mesh
   IRESTART =      0    0=no restart 2=restart with 2 vectors
   NREBOOT  =      0    no. of reboots
   NMIN     =      0    reboot dimension
   EREF     =   0.00    reference energy to select bands
   IMIX   =      4    mixing-type and parameters
     AMIX     =   0.40;   BMIX     =  1.00
     AMIX_MAG =   1.60;   BMIX_MAG =  1.00
     AMIN     =   0.10
     WC   =   100.;   INIMIX=   1;  MIXPRE=   1;  MAXMIX=  50

 Intra band minimization:
   WEIMIN = 0.0010     energy-eigenvalue tresh-hold
   EBREAK =  0.31E-07  absolut break condition
   DEPER  =   0.30     relativ break condition  

   TIME   =   0.40     timestep for ELM

  volume/ion in A,a.u.               =     189.31      1277.56
  Fermi-wavevector in a.u.,A,eV,Ry     =   0.333467  0.630162  1.512973  0.111200
  Thomas-Fermi vector in A             =   1.231347

 Write flags
   LWAVE        =      F    write WAVECAR
   LDOWNSAMPLE  =      F    k-point downsampling of WAVECAR
   LCHARG       =      F    write CHGCAR
   LVTOT        =      F    write LOCPOT, total local potential
   LVHAR        =      F    write LOCPOT, Hartree potential only
   LELF         =      F    write electronic localiz. function (ELF)
   LORBIT       =      0    0 simple, 1 ext, 2 COOP (PROOUT), +10 PAW based schemes


 Dipole corrections
   LMONO  =      F    monopole corrections only (constant potential shift)
   LDIPOL =      F    correct potential (dipole corrections)
   IDIPOL =      0    1-x, 2-y, 3-z, 4-all directions 
   EPSILON=  1.0000000 bulk dielectric constant

 Exchange correlation treatment:
   GGA     =    --    GGA type
   LEXCH   =     8    internal setting for exchange type
   VOSKOWN=      0    Vosko Wilk Nusair interpolation
   LHFCALC =     F    Hartree Fock is set to
   LHFONE  =     F    Hartree Fock one center treatment
   AEXX    =    0.0000 exact exchange contribution

 Linear response parameters
   LEPSILON=     F    determine dielectric tensor
   LRPA    =     F    only Hartree local field effects (RPA)
   LNABLA  =     F    use nabla operator in PAW spheres
   LVEL    =     F    velocity operator in full k-point grid
   LINTERFAST=   F  fast interpolation
   KINTER  =     0    interpolate to denser k-point grid
   CSHIFT  =0.1000    complex shift for real part using Kramers Kronig
   OMEGAMAX=  -1.0    maximum frequency
   DEG_THRESHOLD= 0.2000000E-02 threshold for treating states as degnerate
   RTIME   =   -0.100 relaxation time in fs
  (WPLASMAI=    0.000 imaginary part of plasma frequency in eV, 0.658/RTIME)
   DFIELD  = 0.0000000 0.0000000 0.0000000 field for delta impulse in time

 Orbital magnetization related:
   ORBITALMAG=     F  switch on orbital magnetization
   LCHIMAG   =     F  perturbation theory with respect to B field
   DQ        =  0.001000  dq finite difference perturbation B field
   LLRAUG    =     F  two centre corrections for induced B field



--------------------------------------------------------------------------------------------------------


 molecular dynamics for ions
   using nose mass (canonical ensemble)
 charge density and potential will be updated during run
 non-spin polarized calculation
 RMM-DIIS sequential band-by-band and
  variant of blocked Davidson during initial phase
 perform sub-space diagonalisation
    before iterative eigenvector-optimisation
 modified Broyden-mixing scheme, WC =      100.0
 initial mixing is a Kerker type mixing with AMIX =  0.4000 and BMIX =      1.0000
 Hartree-type preconditioning will be used
 using additional bands            4
 real space projection scheme for non local part
 use partial core corrections
 calculate Harris-corrections to forces   (improved forces if not selfconsistent)
 use gradient corrections 
 use of overlap-Matrix (Vanderbilt PP)
 Methfessel and Paxton  Order N= 1 SIGMA  =   0.20


--------------------------------------------------------------------------------------------------------


  energy-cutoff  :      400.00
  volume of cell :      946.57
      direct lattice vectors                 reciprocal lattice vectors
     9.719827267  0.000000000  0.000000000     0.102882487 -0.002842076  0.001118315
     0.277158554 10.033076192  0.000000000     0.000000000  0.099670329 -0.001808147
    -0.100643592  0.176088107  9.706490835     0.000000000  0.000000000  0.103023844

  length of vectors
     9.719827267 10.036903643  9.708609606     0.102927810  0.099686728  0.103023844



 k-points in units of 2pi/SCALE and weight: read from INCAR                         
   0.02572062  0.02420706  0.02558350       0.250
  -0.02572062  0.02562810  0.02502435       0.250
   0.02572062 -0.02562810  0.02648758       0.250
  -0.02572062 -0.02420706  0.02592842       0.250

 k-points in reciprocal lattice and weights: read from INCAR                         
   0.25000000  0.25000000  0.25000000       0.250
  -0.25000000  0.25000000  0.25000000       0.250
   0.25000000 -0.25000000  0.25000000       0.250
  -0.25000000 -0.25000000  0.25000000       0.250

 position of ions in fractional coordinates (direct lattice) 
   0.53799889  0.40680401  0.36058686
   0.39470903  0.48046708  0.43818464
   0.55258882  0.56501194  0.44280394
   0.52818585  0.41640570  0.53918039
   0.50352362  0.46720043  0.44547683

 position of ions in cartesian coordinates  (Angst):
   5.30571477  4.14499064  3.50003303
   3.92556872  4.89772194  4.25323521
   5.48310040  5.74678032  4.29807242
   5.19502062  4.27277341  5.23354955
   4.97881678  4.76590071  4.32401675



--------------------------------------------------------------------------------------------------------


 k-point  1 :   0.2500 0.2500 0.2500  plane waves:   17209
 k-point  2 :  -0.2500 0.2500 0.2500  plane waves:   17192
 k-point  3 :   0.2500-0.2500 0.2500  plane waves:   17167
 k-point  4 :  -0.2500-0.2500 0.2500  plane waves:   17191

 maximum and minimum number of plane-waves per node :     17209    17167

 maximum number of plane-waves:     17209
 maximum index in each direction: 
   IXMAX=   16   IYMAX=   16   IZMAX=   15
   IXMIN=  -16   IYMIN=  -16   IZMIN=  -16


 serial   3D FFT for wavefunctions
 parallel 3D FFT for charge:
    minimum data exchange during FFTs selected (reduces bandwidth)


 total amount of memory used by VASP MPI-rank0   259684. kBytes
=======================================================================

   base      :      30000. kBytes
   nonlr-proj:        148. kBytes
   fftplans  :      79272. kBytes
   grid      :     141424. kBytes
   one-center:         15. kBytes
   wavefun   :       8825. kBytes

     INWAV:  cpu time    0.0000: real time    0.0000
 Broyden mixing: mesh for mixing (old mesh)
   NGX = 31   NGY = 33   NGZ = 31
  (NGX  =128   NGY  =140   NGZ  =128)
  gives a total of  31713 points

 initial charge density was supplied:
 charge density of overlapping atoms calculated
 number of electron       8.0000000 magnetization 
 keeping initial charge density in first step


--------------------------------------------------------------------------------------------------------


 Maximum index for non-local projection operator          654
 Maximum index for augmentation-charges         3481 (set IRDMAX)


--------------------------------------------------------------------------------------------------------


 First call to EWALD:  gamma=   0.181
 Maximum number of real-space cells 3x 3x 3
 Maximum number of reciprocal cells 3x 3x 3

    FEWALD:  cpu time    0.0007: real time    0.0007


--------------------------------------- Iteration      1(   1)  ---------------------------------------


    POTLOK:  cpu time    1.5895: real time    1.5936
    SETDIJ:  cpu time    0.0066: real time    0.0066
     EDDAV:  cpu time    2.5934: real time    2.5996
       DOS:  cpu time    0.0003: real time    0.0003
    --------------------------------------------
      LOOP:  cpu time    4.1898: real time    4.2000

 eigenvalue-minimisations  :   104
 total energy-change (2. order) : 0.1444588E+02  (-0.2001027E+03)
 number of electron       8.0000000 magnetization 
 augmentation part        8.0000000 magnetization 

 Free energy of the ion-electron system (eV)
  ---------------------------------------------------
  alpha Z        PSCENC =         0.25592358
  Ewald energy   TEWEN  =       131.28921741
  -Hartree energ DENC   =      -244.21958835
  -exchange      EXHF   =         0.00000000
  -V(xc)+E(xc)   XCENC  =        22.12491216
  PAW double counting   =       117.05815612     -117.66307307
  entropy T*S    EENTRO =         0.00289895
  eigenvalues    EBANDS =       -91.44432323
  atomic energy  EATOM  =       197.04175453
  Solvation  Ediel_sol  =         0.00000000
  ---------------------------------------------------
  free energy    TOTEN  =        14.44587810 eV

  energy without entropy =       14.44297915  energy(sigma->0) =       14.44491178


--------------------------------------------------------------------------------------------------------




--------------------------------------- Iteration      1(   2)  ---------------------------------------


     EDDAV:  cpu time    1.9055: real time    1.9102
       DOS:  cpu time    0.0002: real time    0.0002
    --------------------------------------------
      LOOP:  cpu time    1.9057: real time    1.9104

 eigenvalue-minimisations  :    72
 total energy-change (2. order) :-0.3786620E+02  (-0.3786620E+02)
 number of electron       8.0000000 magnetization 
 augmentation part        8.0000000 magnetization 

 Free energy of the ion-electron system (eV)
  ---------------------------------------------------
  alpha Z        PSCENC =         0.25592358
  Ewald energy   TEWEN  =       131.28921741
  -Hartree energ DENC   =      -244.21958835
  -exchange      EXHF   =         0.00000000
  -V(xc)+E(xc)   XCENC  =        22.12491216
  PAW double counting   =       117.05815612     -117.66307307
  entropy T*S    EENTRO =         0.00289895
  eigenvalues    EBANDS =      -129.31052722
  atomic energy  EATOM  =       197.04175453
  Solvation  Ediel_sol  =         0.00000000
  ---------------------------------------------------
  free energy    TOTEN  =       -23.42032588 eV

  energy without entropy =      -23.42322484  energy(sigma->0) =      -23.42129220


--------------------------------------------------------------------------------------------------------




--------------------------------------- Iteration      1(   3)  ---------------------------------------


     EDDAV:  cpu time    1.7391: real time    1.7433
       DOS:  cpu time    0.0002: real time    0.0002
    --------------------------------------------
      LOOP:  cpu time    1.7393: real time    1.7434

 eigenvalue-minimisations  :    64
 total energy-change (2. order) :-0.4223235E+01  (-0.4239014E+01)
 number of electron       8.0000000 magnetization 
 augmentation part        8.0000000 magnetization 

 Free energy of the ion-electron system (eV)
  ---------------------------------------------------
  alpha Z        PSCENC =         0.25592358
  Ewald energy   TEWEN  =       131.28921741
  -Hartree energ DENC   =      -244.21958835
  -exchange      EXHF   =         0.00000000
  -V(xc)+E(xc)   XCENC  =        22.12491216
  PAW double counting   =       117.05815612     -117.66307307
  entropy T*S    EENTRO =         0.03036794
  eigenvalues    EBANDS =      -133.56123101
  atomic energy  EATOM  =       197.04175453
  Solvation  Ediel_sol  =         0.00000000
  ---------------------------------------------------
  free energy    TOTEN  =       -27.64356069 eV

  energy without entropy =      -27.67392863  energy(sigma->0) =      -27.65368334


--------------------------------------------------------------------------------------------------------




--------------------------------------- Iteration      1(   4)  ---------------------------------------


     EDDAV:  cpu time    3.1236: real time    3.1311
       DOS:  cpu time    0.0002: real time    0.0002
    --------------------------------------------
      LOOP:  cpu time    3.1238: real time    3.1313

 eigenvalue-minimisations  :   128
 total energy-change (2. order) :-0.1632739E+00  (-0.1628485E+00)
 number of electron       8.0000000 magnetization 
 augmentation part        8.0000000 magnetization 

 Free energy of the ion-electron system (eV)
  ---------------------------------------------------
  alpha Z        PSCENC =         0.25592358
  Ewald energy   TEWEN  =       131.28921741
  -Hartree energ DENC   =      -244.21958835
  -exchange      EXHF   =         0.00000000
  -V(xc)+E(xc)   XCENC  =        22.12491216
  PAW double counting   =       117.05815612     -117.66307307
  entropy T*S    EENTRO =         0.03149757
  eigenvalues    EBANDS =      -133.72563454
  atomic energy  EATOM  =       197.04175453
  Solvation  Ediel_sol  =         0.00000000
  ---------------------------------------------------
  free energy    TOTEN  =       -27.80683459 eV

  energy without entropy =      -27.83833216  energy(sigma->0) =      -27.81733378


--------------------------------------------------------------------------------------------------------




--------------------------------------- Iteration      1(   5)  ---------------------------------------


     EDDAV:  cpu time    2.3962: real time    2.4019
       DOS:  cpu time    0.0002: real time    0.0002
    CHARGE:  cpu time    0.1568: real time    0.1572
    MIXING:  cpu time    0.0366: real time    0.0367
    --------------------------------------------
      LOOP:  cpu time    2.5898: real time    2.5959

 eigenvalue-minimisations  :    96
 total energy-change (2. order) :-0.4554451E-04  (-0.4554618E-04)
 number of electron       8.0000001 magnetization 
 augmentation part        0.2337874 magnetization 

 Broyden mixing:
  rms(total) = 0.91641E+00    rms(broyden)= 0.91613E+00
  rms(prec ) = 0.12970E+01
  weight for this iteration     100.00

 Free energy of the ion-electron system (eV)
  ---------------------------------------------------
  alpha Z        PSCENC =         0.25592358
  Ewald energy   TEWEN  =       131.28921741
  -Hartree energ DENC   =      -244.21958835
  -exchange      EXHF   =         0.00000000
  -V(xc)+E(xc)   XCENC  =        22.12491216
  PAW double counting   =       117.05815612     -117.66307307
  entropy T*S    EENTRO =         0.03149769
  eigenvalues    EBANDS =      -133.72568021
  atomic energy  EATOM  =       197.04175453
  Solvation  Ediel_sol  =         0.00000000
  ---------------------------------------------------
  free energy    TOTEN  =       -27.80688013 eV

  energy without entropy =      -27.83837783  energy(sigma->0) =      -27.81737936


--------------------------------------------------------------------------------------------------------




--------------------------------------- Iteration      1(   6)  ---------------------------------------


    POTLOK:  cpu time    1.5807: real time    1.5845
    SETDIJ:  cpu time    0.0065: real time    0.0066
    EDDIAG:  cpu time    0.3878: real time    0.3887
  RMM-DIIS:  cpu time    1.2361: real time    1.2390
    ORTHCH:  cpu time    0.0109: real time    0.0110
       DOS:  cpu time    0.0002: real time    0.0002
    CHARGE:  cpu time    0.1469: real time    0.1473
    MIXING:  cpu time    0.0361: real time    0.0361
    --------------------------------------------
      LOOP:  cpu time    3.4053: real time    3.4134

 eigenvalue-minimisations  :    64
 total energy-change (2. order) : 0.3164989E+01  (-0.5924821E+00)
 number of electron       8.0000001 magnetization 
 augmentation part        0.2059156 magnetization 

 Broyden mixing:
  rms(total) = 0.45462E+00    rms(broyden)= 0.45450E+00
  rms(prec ) = 0.59005E+00
  weight for this iteration     100.00

 eigenvalues of (default mixing * dielectric matrix)
  average eigenvalue GAMMA=   1.2962
  1.2962

 Free energy of the ion-electron system (eV)
  ---------------------------------------------------
  alpha Z        PSCENC =         0.25592358
  Ewald energy   TEWEN  =       131.28921741
  -Hartree energ DENC   =      -264.82458146
  -exchange      EXHF   =         0.00000000
  -V(xc)+E(xc)   XCENC  =        23.37587719
  PAW double counting   =       249.02991459     -249.82229430
  entropy T*S    EENTRO =         0.03852944
  eigenvalues    EBANDS =      -111.02623237
  atomic energy  EATOM  =       197.04175453
  Solvation  Ediel_sol  =         0.00000000
  ---------------------------------------------------
  free energy    TOTEN  =       -24.64189139 eV

  energy without entropy =      -24.68042083  energy(sigma->0) =      -24.65473453


--------------------------------------------------------------------------------------------------------




--------------------------------------- Iteration      1(   7)  ---------------------------------------


    POTLOK:  cpu time    1.5774: real time    1.5811
    SETDIJ:  cpu time    0.0065: real time    0.0065
    EDDIAG:  cpu time    0.3742: real time    0.3751
  RMM-DIIS:  cpu time    1.2895: real time    1.2926
    ORTHCH:  cpu time    0.0110: real time    0.0110
       DOS:  cpu time    0.0002: real time    0.0002
    CHARGE:  cpu time    0.1670: real time    0.1674
    MIXING:  cpu time    0.0383: real time    0.0384
    --------------------------------------------
      LOOP:  cpu time    3.4640: real time    3.4722

 eigenvalue-minimisations  :    64
 total energy-change (2. order) : 0.5318341E+00  (-0.1416340E+00)
 number of electron       8.0000001 magnetization 
 augmentation part        0.1946867 magnetization 

 Broyden mixing:
  rms(total) = 0.25084E+00    rms(broyden)= 0.25075E+00
  rms(prec ) = 0.30376E+00
  weight for this iteration     100.00

 eigenvalues of (default mixing * dielectric matrix)
  average eigenvalue GAMMA=   1.4438
  1.4438  1.4438

 Free energy of the ion-electron system (eV)
  ---------------------------------------------------
  alpha Z        PSCENC =         0.25592358
  Ewald energy   TEWEN  =       131.28921741
  -Hartree energ DENC   =      -277.11944525
  -exchange      EXHF   =         0.00000000
  -V(xc)+E(xc)   XCENC  =        24.27098970
  PAW double counting   =       390.75253450     -391.59072995
  entropy T*S    EENTRO =         0.03860727
  eigenvalues    EBANDS =       -99.04890906
  atomic energy  EATOM  =       197.04175453
  Solvation  Ediel_sol  =         0.00000000
  ---------------------------------------------------
  free energy    TOTEN  =       -24.11005728 eV

  energy without entropy =      -24.14866455  energy(sigma->0) =      -24.12292637


--------------------------------------------------------------------------------------------------------




--------------------------------------- Iteration      1(   8)  ---------------------------------------


    POTLOK:  cpu time    1.5750: real time    1.5787
    SETDIJ:  cpu time    0.0064: real time    0.0064
    EDDIAG:  cpu time    0.3638: real time    0.3646
  RMM-DIIS:  cpu time    1.2785: real time    1.2815
    ORTHCH:  cpu time    0.0110: real time    0.0110
       DOS:  cpu time    0.0002: real time    0.0002
    CHARGE:  cpu time    0.1475: real time    0.1478
    MIXING:  cpu time    0.0382: real time    0.0383
    --------------------------------------------
      LOOP:  cpu time    3.4205: real time    3.4286

 eigenvalue-minimisations  :    64
 total energy-change (2. order) : 0.1151250E+00  (-0.9874817E-02)
 number of electron       8.0000001 magnetization 
 augmentation part        0.1931961 magnetization 

 Broyden mixing:
  rms(total) = 0.12891E+00    rms(broyden)= 0.12884E+00
  rms(prec ) = 0.16847E+00
  weight for this iteration     100.00

 eigenvalues of (default mixing * dielectric matrix)
  average eigenvalue GAMMA=   1.4508
  2.2494  1.4849  0.6181

 Free energy of the ion-electron system (eV)
  ---------------------------------------------------
  alpha Z        PSCENC =         0.25592358
  Ewald energy   TEWEN  =       131.28921741
  -Hartree energ DENC   =      -280.71588488
  -exchange      EXHF   =         0.00000000
  -V(xc)+E(xc)   XCENC  =        24.61376172
  PAW double counting   =       466.88530163     -467.70556338
  entropy T*S    EENTRO =         0.04002941
  eigenvalues    EBANDS =       -95.69947235
  atomic energy  EATOM  =       197.04175453
  Solvation  Ediel_sol  =         0.00000000
  ---------------------------------------------------
  free energy    TOTEN  =       -23.99493233 eV

  energy without entropy =      -24.03496174  energy(sigma->0) =      -24.00827547


--------------------------------------------------------------------------------------------------------




--------------------------------------- Iteration      1(   9)  ---------------------------------------


    POTLOK:  cpu time    1.5794: real time    1.5832
    SETDIJ:  cpu time    0.0065: real time    0.0065
    EDDIAG:  cpu time    0.3842: real time    0.3851
  RMM-DIIS:  cpu time    1.2202: real time    1.2231
    ORTHCH:  cpu time    0.0110: real time    0.0110
       DOS:  cpu time    0.0002: real time    0.0002
    CHARGE:  cpu time    0.1458: real time    0.1461
    MIXING:  cpu time    0.0391: real time    0.0392
    --------------------------------------------
      LOOP:  cpu time    3.3865: real time    3.3945

 eigenvalue-minimisations  :    64
 total energy-change (2. order) : 0.4822410E-01  (-0.6205419E-02)
 number of electron       8.0000001 magnetization 
 augmentation part        0.1926613 magnetization 

 Broyden mixing:
  rms(total) = 0.39499E-01    rms(broyden)= 0.39455E-01
  rms(prec ) = 0.63042E-01
  weight for this iteration     100.00

 eigenvalues of (default mixing * dielectric matrix)
  average eigenvalue GAMMA=   1.2199
  2.2041  1.4561  0.6097  0.6097

 Free energy of the ion-electron system (eV)
  ---------------------------------------------------
  alpha Z        PSCENC =         0.25592358
  Ewald energy   TEWEN  =       131.28921741
  -Hartree energ DENC   =      -283.37051636
  -exchange      EXHF   =         0.00000000
  -V(xc)+E(xc)   XCENC  =        24.86247438
  PAW double counting   =       521.42926143     -522.23481660
  entropy T*S    EENTRO =         0.03596673
  eigenvalues    EBANDS =       -93.25597332
  atomic energy  EATOM  =       197.04175453
  Solvation  Ediel_sol  =         0.00000000
  ---------------------------------------------------
  free energy    TOTEN  =       -23.94670823 eV

  energy without entropy =      -23.98267496  energy(sigma->0) =      -23.95869714


--------------------------------------------------------------------------------------------------------




--------------------------------------- Iteration      1(  10)  ---------------------------------------


    POTLOK:  cpu time    1.5945: real time    1.5982
    SETDIJ:  cpu time    0.0065: real time    0.0065
    EDDIAG:  cpu time    0.3718: real time    0.3727
  RMM-DIIS:  cpu time    1.2958: real time    1.2989
    ORTHCH:  cpu time    0.0115: real time    0.0115
       DOS:  cpu time    0.0002: real time    0.0002
    CHARGE:  cpu time    0.1582: real time    0.1585
    MIXING:  cpu time    0.0390: real time    0.0390
    --------------------------------------------
      LOOP:  cpu time    3.4773: real time    3.4855

 eigenvalue-minimisations  :    64
 total energy-change (2. order) : 0.2597068E-02  (-0.3785813E-03)
 number of electron       8.0000001 magnetization 
 augmentation part        0.1924822 magnetization 

 Broyden mixing:
  rms(total) = 0.21747E-01    rms(broyden)= 0.21721E-01
  rms(prec ) = 0.42907E-01
  weight for this iteration     100.00

 eigenvalues of (default mixing * dielectric matrix)
  average eigenvalue GAMMA=   1.2100
  2.0138  1.4209  1.2607  0.6772  0.6772

 Free energy of the ion-electron system (eV)
  ---------------------------------------------------
  alpha Z        PSCENC =         0.25592358
  Ewald energy   TEWEN  =       131.28921741
  -Hartree energ DENC   =      -283.90320055
  -exchange      EXHF   =         0.00000000
  -V(xc)+E(xc)   XCENC  =        24.88383619
  PAW double counting   =       519.23154703     -520.03966832
  entropy T*S    EENTRO =         0.03508960
  eigenvalues    EBANDS =       -92.73861063
  atomic energy  EATOM  =       197.04175453
  Solvation  Ediel_sol  =         0.00000000
  ---------------------------------------------------
  free energy    TOTEN  =       -23.94411116 eV

  energy without entropy =      -23.97920076  energy(sigma->0) =      -23.95580770


--------------------------------------------------------------------------------------------------------




--------------------------------------- Iteration      1(  11)  ---------------------------------------


    POTLOK:  cpu time    1.5630: real time    1.5668
    SETDIJ:  cpu time    0.0064: real time    0.0064
    EDDIAG:  cpu time    0.3679: real time    0.3688
  RMM-DIIS:  cpu time    1.2849: real time    1.2879
    ORTHCH:  cpu time    0.0117: real time    0.0117
       DOS:  cpu time    0.0002: real time    0.0002
    CHARGE:  cpu time    0.1730: real time    0.1734
    MIXING:  cpu time    0.0409: real time    0.0410
    --------------------------------------------
      LOOP:  cpu time    3.4480: real time    3.4563

 eigenvalue-minimisations  :    64
 total energy-change (2. order) : 0.1476630E-03  (-0.1172996E-02)
 number of electron       8.0000001 magnetization 
 augmentation part        0.1916446 magnetization 

 Broyden mixing:
  rms(total) = 0.23382E-01    rms(broyden)= 0.23363E-01
  rms(prec ) = 0.37677E-01
  weight for this iteration     100.00

 eigenvalues of (default mixing * dielectric matrix)
  average eigenvalue GAMMA=   1.2988
  2.1989  2.1989  1.0172  1.0172  0.6038  0.7567

 Free energy of the ion-electron system (eV)
  ---------------------------------------------------
  alpha Z        PSCENC =         0.25592358
  Ewald energy   TEWEN  =       131.28921741
  -Hartree energ DENC   =      -285.12212141
  -exchange      EXHF   =         0.00000000
  -V(xc)+E(xc)   XCENC  =        24.92863166
  PAW double counting   =       512.81635344     -513.62818251
  entropy T*S    EENTRO =         0.03520305
  eigenvalues    EBANDS =       -91.56074325
  atomic energy  EATOM  =       197.04175453
  Solvation  Ediel_sol  =         0.00000000
  ---------------------------------------------------
  free energy    TOTEN  =       -23.94396350 eV

  energy without entropy =      -23.97916655  energy(sigma->0) =      -23.95569785


--------------------------------------------------------------------------------------------------------




--------------------------------------- Iteration      1(  12)  ---------------------------------------


    POTLOK:  cpu time    1.5324: real time    1.5360
    SETDIJ:  cpu time    0.0064: real time    0.0064
    EDDIAG:  cpu time    0.3726: real time    0.3735
  RMM-DIIS:  cpu time    1.2731: real time    1.2761
    ORTHCH:  cpu time    0.0109: real time    0.0109
       DOS:  cpu time    0.0002: real time    0.0002
    CHARGE:  cpu time    0.1611: real time    0.1615
    MIXING:  cpu time    0.0425: real time    0.0426
    --------------------------------------------
      LOOP:  cpu time    3.3992: real time    3.4073

 eigenvalue-minimisations  :    64
 total energy-change (2. order) : 0.3225256E-02  (-0.1734297E-03)
 number of electron       8.0000001 magnetization 
 augmentation part        0.1916696 magnetization 

 Broyden mixing:
  rms(total) = 0.10288E-01    rms(broyden)= 0.10274E-01
  rms(prec ) = 0.19355E-01
  weight for this iteration     100.00

 eigenvalues of (default mixing * dielectric matrix)
  average eigenvalue GAMMA=   1.2946
  2.4565  2.4565  1.1075  1.1075  0.6960  0.6960  0.5422

 Free energy of the ion-electron system (eV)
  ---------------------------------------------------
  alpha Z        PSCENC =         0.25592358
  Ewald energy   TEWEN  =       131.28921741
  -Hartree energ DENC   =      -285.72438245
  -exchange      EXHF   =         0.00000000
  -V(xc)+E(xc)   XCENC  =        24.95427355
  PAW double counting   =       511.19688203     -512.00481311
  entropy T*S    EENTRO =         0.03532298
  eigenvalues    EBANDS =       -90.98491677
  atomic energy  EATOM  =       197.04175453
  Solvation  Ediel_sol  =         0.00000000
  ---------------------------------------------------
  free energy    TOTEN  =       -23.94073824 eV

  energy without entropy =      -23.97606122  energy(sigma->0) =      -23.95251257


--------------------------------------------------------------------------------------------------------




--------------------------------------- Iteration      1(  13)  ---------------------------------------


    POTLOK:  cpu time    1.5162: real time    1.5198
    SETDIJ:  cpu time    0.0064: real time    0.0064
    EDDIAG:  cpu time    0.3602: real time    0.3611
  RMM-DIIS:  cpu time    1.2353: real time    1.2382
    ORTHCH:  cpu time    0.0115: real time    0.0115
       DOS:  cpu time    0.0002: real time    0.0002
    CHARGE:  cpu time    0.1604: real time    0.1608
    MIXING:  cpu time    0.0419: real time    0.0420
    --------------------------------------------
      LOOP:  cpu time    3.3320: real time    3.3399

 eigenvalue-minimisations  :    64
 total energy-change (2. order) : 0.4474222E-03  (-0.6882417E-04)
 number of electron       8.0000001 magnetization 
 augmentation part        0.1916955 magnetization 

 Broyden mixing:
  rms(total) = 0.54462E-02    rms(broyden)= 0.54402E-02
  rms(prec ) = 0.12570E-01
  weight for this iteration     100.00

 eigenvalues of (default mixing * dielectric matrix)
  average eigenvalue GAMMA=   1.4340
  3.4515  2.2981  1.6718  1.1988  0.9002  0.7075  0.7075  0.5362

 Free energy of the ion-electron system (eV)
  ---------------------------------------------------
  alpha Z        PSCENC =         0.25592358
  Ewald energy   TEWEN  =       131.28921741
  -Hartree energ DENC   =      -286.04486438
  -exchange      EXHF   =         0.00000000
  -V(xc)+E(xc)   XCENC  =        24.96814005
  PAW double counting   =       511.06687499     -511.87336653
  entropy T*S    EENTRO =         0.03512436
  eigenvalues    EBANDS =       -90.67909482
  atomic energy  EATOM  =       197.04175453
  Solvation  Ediel_sol  =         0.00000000
  ---------------------------------------------------
  free energy    TOTEN  =       -23.94029082 eV

  energy without entropy =      -23.97541518  energy(sigma->0) =      -23.95199894


--------------------------------------------------------------------------------------------------------




--------------------------------------- Iteration      1(  14)  ---------------------------------------


    POTLOK:  cpu time    1.4717: real time    1.4752
    SETDIJ:  cpu time    0.0064: real time    0.0065
    EDDIAG:  cpu time    0.3883: real time    0.3892
  RMM-DIIS:  cpu time    1.1978: real time    1.2007
    ORTHCH:  cpu time    0.0107: real time    0.0107
       DOS:  cpu time    0.0002: real time    0.0002
    CHARGE:  cpu time    0.1499: real time    0.1503
    MIXING:  cpu time    0.0417: real time    0.0418
    --------------------------------------------
      LOOP:  cpu time    3.2668: real time    3.2745

 eigenvalue-minimisations  :    64
 total energy-change (2. order) :-0.3506633E-02  (-0.5004045E-04)
 number of electron       8.0000001 magnetization 
 augmentation part        0.1916620 magnetization 

 Broyden mixing:
  rms(total) = 0.64361E-02    rms(broyden)= 0.64317E-02
  rms(prec ) = 0.10375E-01
  weight for this iteration     100.00

 eigenvalues of (default mixing * dielectric matrix)
  average eigenvalue GAMMA=   1.6045
  4.2605  2.7121  1.9209  1.3791  1.3791  0.8033  0.8033  0.6320  0.5500

 Free energy of the ion-electron system (eV)
  ---------------------------------------------------
  alpha Z        PSCENC =         0.25592358
  Ewald energy   TEWEN  =       131.28921741
  -Hartree energ DENC   =      -286.48203611
  -exchange      EXHF   =         0.00000000
  -V(xc)+E(xc)   XCENC  =        24.98268786
  PAW double counting   =       510.47447002     -511.28070625
  entropy T*S    EENTRO =         0.03507775
  eigenvalues    EBANDS =       -90.26018624
  atomic energy  EATOM  =       197.04175453
  Solvation  Ediel_sol  =         0.00000000
  ---------------------------------------------------
  free energy    TOTEN  =       -23.94379745 eV

  energy without entropy =      -23.97887520  energy(sigma->0) =      -23.95549004


--------------------------------------------------------------------------------------------------------




--------------------------------------- Iteration      1(  15)  ---------------------------------------


    POTLOK:  cpu time    1.4278: real time    1.4312
    SETDIJ:  cpu time    0.0066: real time    0.0067
    EDDIAG:  cpu time    0.3925: real time    0.3934
  RMM-DIIS:  cpu time    1.2621: real time    1.2650
    ORTHCH:  cpu time    0.0118: real time    0.0119
       DOS:  cpu time    0.0002: real time    0.0002
    CHARGE:  cpu time    0.1664: real time    0.1668
    MIXING:  cpu time    0.0469: real time    0.0470
    --------------------------------------------
      LOOP:  cpu time    3.3144: real time    3.3222

 eigenvalue-minimisations  :    64
 total energy-change (2. order) :-0.5105542E-02  (-0.1051245E-03)
 number of electron       8.0000001 magnetization 
 augmentation part        0.1916106 magnetization 

 Broyden mixing:
  rms(total) = 0.12364E-01    rms(broyden)= 0.12349E-01
  rms(prec ) = 0.16642E-01
  weight for this iteration     100.00

 eigenvalues of (default mixing * dielectric matrix)
  average eigenvalue GAMMA=   1.7085
  5.0509  3.0306  2.0187  2.0187  1.1421  1.1421  0.7684  0.7684  0.5723  0.5723

 Free energy of the ion-electron system (eV)
  ---------------------------------------------------
  alpha Z        PSCENC =         0.25592358
  Ewald energy   TEWEN  =       131.28921741
  -Hartree energ DENC   =      -286.51751207
  -exchange      EXHF   =         0.00000000
  -V(xc)+E(xc)   XCENC  =        24.97227618
  PAW double counting   =       509.09595027     -509.90307019
  entropy T*S    EENTRO =         0.03530468
  eigenvalues    EBANDS =       -90.21874739
  atomic energy  EATOM  =       197.04175453
  Solvation  Ediel_sol  =         0.00000000
  ---------------------------------------------------
  free energy    TOTEN  =       -23.94890300 eV

  energy without entropy =      -23.98420768  energy(sigma->0) =      -23.96067122


--------------------------------------------------------------------------------------------------------




--------------------------------------- Iteration      1(  16)  ---------------------------------------


    POTLOK:  cpu time    1.3738: real time    1.3770
    SETDIJ:  cpu time    0.0065: real time    0.0065
    EDDIAG:  cpu time    0.3892: real time    0.3901
  RMM-DIIS:  cpu time    1.3422: real time    1.3454
    ORTHCH:  cpu time    0.0116: real time    0.0116
       DOS:  cpu time    0.0002: real time    0.0002
    CHARGE:  cpu time    0.1696: real time    0.1700
    MIXING:  cpu time    0.0456: real time    0.0457
    --------------------------------------------
      LOOP:  cpu time    3.3387: real time    3.3466

 eigenvalue-minimisations  :    64
 total energy-change (2. order) :-0.1592177E-02  (-0.4902517E-04)
 number of electron       8.0000001 magnetization 
 augmentation part        0.1916027 magnetization 

 Broyden mixing:
  rms(total) = 0.91418E-02    rms(broyden)= 0.91168E-02
  rms(prec ) = 0.12144E-01
  weight for this iteration     100.00

 eigenvalues of (default mixing * dielectric matrix)
  average eigenvalue GAMMA=   1.7430
  5.7800  3.2537  2.4191  1.4694  1.3998  1.3998  0.8823  0.7350  0.7350  0.5493
  0.5493

 Free energy of the ion-electron system (eV)
  ---------------------------------------------------
  alpha Z        PSCENC =         0.25592358
  Ewald energy   TEWEN  =       131.28921741
  -Hartree energ DENC   =      -286.51423578
  -exchange      EXHF   =         0.00000000
  -V(xc)+E(xc)   XCENC  =        24.96855684
  PAW double counting   =       509.17830987     -509.98530927
  entropy T*S    EENTRO =         0.03521704
  eigenvalues    EBANDS =       -90.21992940
  atomic energy  EATOM  =       197.04175453
  Solvation  Ediel_sol  =         0.00000000
  ---------------------------------------------------
  free energy    TOTEN  =       -23.95049517 eV

  energy without entropy =      -23.98571221  energy(sigma->0) =      -23.96223419


--------------------------------------------------------------------------------------------------------




--------------------------------------- Iteration      1(  17)  ---------------------------------------


    POTLOK:  cpu time    1.3511: real time    1.3543
    SETDIJ:  cpu time    0.0065: real time    0.0066
    EDDIAG:  cpu time    0.3786: real time    0.3795
  RMM-DIIS:  cpu time    1.3275: real time    1.3307
    ORTHCH:  cpu time    0.0117: real time    0.0117
       DOS:  cpu time    0.0002: real time    0.0002
    CHARGE:  cpu time    0.1750: real time    0.1754
    MIXING:  cpu time    0.0451: real time    0.0452
    --------------------------------------------
      LOOP:  cpu time    3.2958: real time    3.3036

 eigenvalue-minimisations  :    64
 total energy-change (2. order) :-0.3221193E-03  (-0.1150730E-04)
 number of electron       8.0000001 magnetization 
 augmentation part        0.1915986 magnetization 

 Broyden mixing:
  rms(total) = 0.31067E-02    rms(broyden)= 0.31011E-02
  rms(prec ) = 0.41666E-02
  weight for this iteration     100.00

 eigenvalues of (default mixing * dielectric matrix)
  average eigenvalue GAMMA=   1.8392
  6.4056  3.9419  2.5672  1.7380  1.7380  1.2718  0.9970  0.7434  0.7434  0.8123
  0.5557  0.5557

 Free energy of the ion-electron system (eV)
  ---------------------------------------------------
  alpha Z        PSCENC =         0.25592358
  Ewald energy   TEWEN  =       131.28921741
  -Hartree energ DENC   =      -286.55234970
  -exchange      EXHF   =         0.00000000
  -V(xc)+E(xc)   XCENC  =        24.97230543
  PAW double counting   =       510.54800524     -511.35443482
  entropy T*S    EENTRO =         0.03507856
  eigenvalues    EBANDS =       -90.18631751
  atomic energy  EATOM  =       197.04175453
  Solvation  Ediel_sol  =         0.00000000
  ---------------------------------------------------
  free energy    TOTEN  =       -23.95081729 eV

  energy without entropy =      -23.98589585  energy(sigma->0) =      -23.96251015


--------------------------------------------------------------------------------------------------------




--------------------------------------- Iteration      1(  18)  ---------------------------------------


    POTLOK:  cpu time    1.3761: real time    1.3793
    SETDIJ:  cpu time    0.0064: real time    0.0064
    EDDIAG:  cpu time    0.3722: real time    0.3731
  RMM-DIIS:  cpu time    1.3093: real time    1.3124
    ORTHCH:  cpu time    0.0119: real time    0.0119
       DOS:  cpu time    0.0002: real time    0.0002
    CHARGE:  cpu time    0.1747: real time    0.1751
    MIXING:  cpu time    0.0471: real time    0.0472
    --------------------------------------------
      LOOP:  cpu time    3.2977: real time    3.3055

 eigenvalue-minimisations  :    64
 total energy-change (2. order) :-0.5612271E-03  (-0.8162648E-05)
 number of electron       8.0000001 magnetization 
 augmentation part        0.1916195 magnetization 

 Broyden mixing:
  rms(total) = 0.18962E-02    rms(broyden)= 0.18901E-02
  rms(prec ) = 0.24426E-02
  weight for this iteration     100.00

 eigenvalues of (default mixing * dielectric matrix)
  average eigenvalue GAMMA=   1.9617
  7.0838  4.4094  2.8482  2.4953  1.7095  1.2707  1.2707  0.9558  0.8624  0.7409
  0.7409  0.5570  0.5570

 Free energy of the ion-electron system (eV)
  ---------------------------------------------------
  alpha Z        PSCENC =         0.25592358
  Ewald energy   TEWEN  =       131.28921741
  -Hartree energ DENC   =      -286.51176249
  -exchange      EXHF   =         0.00000000
  -V(xc)+E(xc)   XCENC  =        24.96892823
  PAW double counting   =       510.46005759     -511.26633088
  entropy T*S    EENTRO =         0.03511173
  eigenvalues    EBANDS =       -90.22427822
  atomic energy  EATOM  =       197.04175453
  Solvation  Ediel_sol  =         0.00000000
  ---------------------------------------------------
  free energy    TOTEN  =       -23.95137852 eV

  energy without entropy =      -23.98649025  energy(sigma->0) =      -23.96308243


--------------------------------------------------------------------------------------------------------




--------------------------------------- Iteration      1(  19)  ---------------------------------------


    POTLOK:  cpu time    1.4073: real time    1.4107
    SETDIJ:  cpu time    0.0065: real time    0.0065
    EDDIAG:  cpu time    0.3763: real time    0.3772
  RMM-DIIS:  cpu time    1.2564: real time    1.2593
    ORTHCH:  cpu time    0.0110: real time    0.0110
       DOS:  cpu time    0.0002: real time    0.0002
    CHARGE:  cpu time    0.1638: real time    0.1642
    MIXING:  cpu time    0.0494: real time    0.0495
    --------------------------------------------
      LOOP:  cpu time    3.2708: real time    3.2786

 eigenvalue-minimisations  :    64
 total energy-change (2. order) :-0.1489026E-03  (-0.5436039E-05)
 number of electron       8.0000001 magnetization 
 augmentation part        0.1915804 magnetization 

 Broyden mixing:
  rms(total) = 0.89356E-03    rms(broyden)= 0.89295E-03
  rms(prec ) = 0.11167E-02
  weight for this iteration     100.00

 eigenvalues of (default mixing * dielectric matrix)
  average eigenvalue GAMMA=   1.9826
  7.6386  4.7520  2.6820  2.6820  1.6565  1.6565  1.0673  1.0673  1.0585  0.8918
  0.7451  0.7451  0.5567  0.5567

 Free energy of the ion-electron system (eV)
  ---------------------------------------------------
  alpha Z        PSCENC =         0.25592358
  Ewald energy   TEWEN  =       131.28921741
  -Hartree energ DENC   =      -286.53756507
  -exchange      EXHF   =         0.00000000
  -V(xc)+E(xc)   XCENC  =        24.96899891
  PAW double counting   =       509.86740817     -510.67418716
  entropy T*S    EENTRO =         0.03512437
  eigenvalues    EBANDS =       -90.19820216
  atomic energy  EATOM  =       197.04175453
  Solvation  Ediel_sol  =         0.00000000
  ---------------------------------------------------
  free energy    TOTEN  =       -23.95152742 eV

  energy without entropy =      -23.98665179  energy(sigma->0) =      -23.96323554


--------------------------------------------------------------------------------------------------------




--------------------------------------- Iteration      1(  20)  ---------------------------------------


    POTLOK:  cpu time    1.4086: real time    1.4120
    SETDIJ:  cpu time    0.0064: real time    0.0064
    EDDIAG:  cpu time    0.3808: real time    0.3817
  RMM-DIIS:  cpu time    1.0232: real time    1.0257
    ORTHCH:  cpu time    0.0117: real time    0.0117
       DOS:  cpu time    0.0002: real time    0.0002
    CHARGE:  cpu time    0.1658: real time    0.1662
    MIXING:  cpu time    0.0496: real time    0.0497
    --------------------------------------------
      LOOP:  cpu time    3.0463: real time    3.0536

 eigenvalue-minimisations  :    48
 total energy-change (2. order) :-0.2499863E-04  (-0.1735875E-06)
 number of electron       8.0000001 magnetization 
 augmentation part        0.1915802 magnetization 

 Broyden mixing:
  rms(total) = 0.59710E-03    rms(broyden)= 0.59701E-03
  rms(prec ) = 0.74710E-03
  weight for this iteration     100.00

 eigenvalues of (default mixing * dielectric matrix)
  average eigenvalue GAMMA=   2.0781
  8.1116  5.1577  3.4388  2.5456  2.2634  1.6727  1.2067  1.2067  1.1070  1.0021
  0.8604  0.7429  0.7429  0.5568  0.5568

 Free energy of the ion-electron system (eV)
  ---------------------------------------------------
  alpha Z        PSCENC =         0.25592358
  Ewald energy   TEWEN  =       131.28921741
  -Hartree energ DENC   =      -286.52779147
  -exchange      EXHF   =         0.00000000
  -V(xc)+E(xc)   XCENC  =        24.96862694
  PAW double counting   =       509.89141012     -510.69808055
  entropy T*S    EENTRO =         0.03512309
  eigenvalues    EBANDS =       -90.20773607
  atomic energy  EATOM  =       197.04175453
  Solvation  Ediel_sol  =         0.00000000
  ---------------------------------------------------
  free energy    TOTEN  =       -23.95155242 eV

  energy without entropy =      -23.98667551  energy(sigma->0) =      -23.96326012


--------------------------------------------------------------------------------------------------------




--------------------------------------- Iteration      1(  21)  ---------------------------------------


    POTLOK:  cpu time    1.4657: real time    1.4692
    SETDIJ:  cpu time    0.0064: real time    0.0064
    EDDIAG:  cpu time    0.3626: real time    0.3635
  RMM-DIIS:  cpu time    1.3089: real time    1.3120
    ORTHCH:  cpu time    0.0114: real time    0.0114
       DOS:  cpu time    0.0002: real time    0.0002
    CHARGE:  cpu time    0.1599: real time    0.1603
    MIXING:  cpu time    0.0508: real time    0.0510
    --------------------------------------------
      LOOP:  cpu time    3.3660: real time    3.3740

 eigenvalue-minimisations  :    64
 total energy-change (2. order) :-0.2018669E-04  (-0.8800420E-06)
 number of electron       8.0000001 magnetization 
 augmentation part        0.1915956 magnetization 

 Broyden mixing:
  rms(total) = 0.28450E-03    rms(broyden)= 0.28407E-03
  rms(prec ) = 0.37348E-03
  weight for this iteration     100.00

 eigenvalues of (default mixing * dielectric matrix)
  average eigenvalue GAMMA=   2.0429
  8.1265  5.1704  3.6461  2.3934  2.3934  1.5919  1.5919  1.2086  1.2086  0.5569
  0.5569  0.7427  0.7427  0.9805  0.8877  0.8877

 Free energy of the ion-electron system (eV)
  ---------------------------------------------------
  alpha Z        PSCENC =         0.25592358
  Ewald energy   TEWEN  =       131.28921741
  -Hartree energ DENC   =      -286.52539569
  -exchange      EXHF   =         0.00000000
  -V(xc)+E(xc)   XCENC  =        24.96887253
  PAW double counting   =       510.02041034     -510.82693392
  entropy T*S    EENTRO =         0.03511547
  eigenvalues    EBANDS =       -90.21053685
  atomic energy  EATOM  =       197.04175453
  Solvation  Ediel_sol  =         0.00000000
  ---------------------------------------------------
  free energy    TOTEN  =       -23.95157261 eV

  energy without entropy =      -23.98668807  energy(sigma->0) =      -23.96327776


--------------------------------------------------------------------------------------------------------




--------------------------------------- Iteration      1(  22)  ---------------------------------------


    POTLOK:  cpu time    1.4797: real time    1.4832
    SETDIJ:  cpu time    0.0065: real time    0.0065
    EDDIAG:  cpu time    0.3641: real time    0.3650
  RMM-DIIS:  cpu time    0.9882: real time    0.9905
    ORTHCH:  cpu time    0.0114: real time    0.0115
       DOS:  cpu time    0.0002: real time    0.0002
    CHARGE:  cpu time    0.1695: real time    0.1699
    MIXING:  cpu time    0.0525: real time    0.0527
    --------------------------------------------
      LOOP:  cpu time    3.0721: real time    3.0793

 eigenvalue-minimisations  :    48
 total energy-change (2. order) :-0.2162339E-05  (-0.1464790E-06)
 number of electron       8.0000001 magnetization 
 augmentation part        0.1915908 magnetization 

 Broyden mixing:
  rms(total) = 0.14793E-03    rms(broyden)= 0.14784E-03
  rms(prec ) = 0.19984E-03
  weight for this iteration     100.00

 eigenvalues of (default mixing * dielectric matrix)
  average eigenvalue GAMMA=   2.0971
  8.3038  5.2399  4.1935  2.6480  2.6480  2.0014  1.6368  1.1810  1.1810  1.2218
  0.5569  0.5569  0.7430  0.7430  1.0453  0.8754  0.8754

 Free energy of the ion-electron system (eV)
  ---------------------------------------------------
  alpha Z        PSCENC =         0.25592358
  Ewald energy   TEWEN  =       131.28921741
  -Hartree energ DENC   =      -286.53503648
  -exchange      EXHF   =         0.00000000
  -V(xc)+E(xc)   XCENC  =        24.96926844
  PAW double counting   =       510.00445710     -510.81108523
  entropy T*S    EENTRO =         0.03511356
  eigenvalues    EBANDS =       -90.20118768
  atomic energy  EATOM  =       197.04175453
  Solvation  Ediel_sol  =         0.00000000
  ---------------------------------------------------
  free energy    TOTEN  =       -23.95157477 eV

  energy without entropy =      -23.98668833  energy(sigma->0) =      -23.96327929


--------------------------------------------------------------------------------------------------------




--------------------------------------- Iteration      1(  23)  ---------------------------------------


    POTLOK:  cpu time    1.5497: real time    1.5533
    SETDIJ:  cpu time    0.0065: real time    0.0065
    EDDIAG:  cpu time    0.3757: real time    0.3766
  RMM-DIIS:  cpu time    0.9646: real time    0.9669
    ORTHCH:  cpu time    0.0107: real time    0.0107
       DOS:  cpu time    0.0002: real time    0.0002
    CHARGE:  cpu time    0.1469: real time    0.1473
    MIXING:  cpu time    0.0510: real time    0.0511
    --------------------------------------------
      LOOP:  cpu time    3.1052: real time    3.1126

 eigenvalue-minimisations  :    48
 total energy-change (2. order) :-0.1549280E-05  (-0.2416902E-07)
 number of electron       8.0000001 magnetization 
 augmentation part        0.1915900 magnetization 

 Broyden mixing:
  rms(total) = 0.45935E-04    rms(broyden)= 0.45758E-04
  rms(prec ) = 0.65492E-04
  weight for this iteration     100.00

 eigenvalues of (default mixing * dielectric matrix)
  average eigenvalue GAMMA=   2.0666
  8.3066  5.3988  3.9848  3.0135  2.4453  2.2740  1.5000  1.5000  1.1987  1.1987
  0.5569  0.5569  0.7430  0.7430  0.9845  0.9845  0.9045  0.9045

 Free energy of the ion-electron system (eV)
  ---------------------------------------------------
  alpha Z        PSCENC =         0.25592358
  Ewald energy   TEWEN  =       131.28921741
  -Hartree energ DENC   =      -286.53370929
  -exchange      EXHF   =         0.00000000
  -V(xc)+E(xc)   XCENC  =        24.96917318
  PAW double counting   =       510.00960865     -510.81622572
  entropy T*S    EENTRO =         0.03511514
  eigenvalues    EBANDS =       -90.20243379
  atomic energy  EATOM  =       197.04175453
  Solvation  Ediel_sol  =         0.00000000
  ---------------------------------------------------
  free energy    TOTEN  =       -23.95157632 eV

  energy without entropy =      -23.98669146  energy(sigma->0) =      -23.96328137


--------------------------------------------------------------------------------------------------------




--------------------------------------- Iteration      1(  24)  ---------------------------------------


    POTLOK:  cpu time    1.5516: real time    1.5553
    SETDIJ:  cpu time    0.0066: real time    0.0066
    EDDIAG:  cpu time    0.3901: real time    0.3910
  RMM-DIIS:  cpu time    0.8846: real time    0.8867
    ORTHCH:  cpu time    0.0110: real time    0.0110
       DOS:  cpu time    0.0002: real time    0.0002
    --------------------------------------------
      LOOP:  cpu time    2.8440: real time    2.8508

 eigenvalue-minimisations  :    39
 total energy-change (2. order) :-0.3838331E-06  (-0.3040643E-08)
 number of electron       8.0000001 magnetization 
 augmentation part        0.1915900 magnetization 

 Free energy of the ion-electron system (eV)
  ---------------------------------------------------
  alpha Z        PSCENC =         0.25592358
  Ewald energy   TEWEN  =       131.28921741
  -Hartree energ DENC   =      -286.53081291
  -exchange      EXHF   =         0.00000000
  -V(xc)+E(xc)   XCENC  =        24.96901988
  PAW double counting   =       510.00978941     -510.81638418
  entropy T*S    EENTRO =         0.03511575
  eigenvalues    EBANDS =       -90.20520017
  atomic energy  EATOM  =       197.04175453
  Solvation  Ediel_sol  =         0.00000000
  ---------------------------------------------------
  free energy    TOTEN  =       -23.95157670 eV

  energy without entropy =      -23.98669245  energy(sigma->0) =      -23.96328195


--------------------------------------------------------------------------------------------------------




 average (electrostatic) potential at core
  the test charge radii are     0.5201  0.6991
  (the norm of the test charge is              1.0000)
       1 -41.6143       2 -41.7106       3 -41.4898       4 -41.6787       5 -57.8292



 E-fermi :  -9.1880     XC(G=0):  -0.7255     alpha+bet : -0.2226


 k-point     1 :       0.2500    0.2500    0.2500
  band No.  band energies     occupation 
      1     -17.0301      2.00000
      2      -9.3723      2.02989
      3      -9.3518      1.98967
      4      -9.3483      1.98094
      5      -0.2872      0.00000
      6       0.6140      0.00000
      7       0.7147      0.00000
      8       0.7340      0.00000

 k-point     2 :      -0.2500    0.2500    0.2500
  band No.  band energies     occupation 
      1     -17.0301      2.00000
      2      -9.3723      2.02989
      3      -9.3517      1.98941
      4      -9.3481      1.98059
      5      -0.2840      0.00000
      6       0.5969      0.00000
      7       0.7026      0.00000
      8       0.7359      0.00000

 k-point     3 :       0.2500   -0.2500    0.2500
  band No.  band energies     occupation 
      1     -17.0301      2.00000
      2      -9.3721      2.02968
      3      -9.3516      1.98920
      4      -9.3482      1.98072
      5      -0.2783      0.00000
      6       0.5888      0.00000
      7       0.6928      0.00000
      8       0.7170      0.00000

 k-point     4 :      -0.2500   -0.2500    0.2500
  band No.  band energies     occupation 
      1     -17.0301      2.00000
      2      -9.3722      2.02980
      3      -9.3517      1.98949
      4      -9.3482      1.98071
      5      -0.2858      0.00000
      6       0.6062      0.00000
      7       0.7109      0.00000
      8       0.7350      0.00000


--------------------------------------------------------------------------------------------------------


 soft charge-density along one line, spin component           1
         0         1         2         3         4         5         6         7         8         9
 total charge-density along one line

 pseudopotential strength for first ion, spin component:           1
 -2.342  -4.036  -0.001  -0.002   0.001
 -4.036  -6.869  -0.003  -0.005   0.002
 -0.001  -0.003  -0.336   0.002  -0.001
 -0.002  -0.005   0.002  -0.334  -0.001
  0.001   0.002  -0.001  -0.001  -0.337
 total augmentation occupancy for first ion, spin component:           1
  3.613  -0.651   0.275   0.384  -0.136
 -0.651   0.131  -0.051  -0.070   0.026
  0.275  -0.051   0.027   0.025  -0.009
  0.384  -0.070   0.025   0.046  -0.012
 -0.136   0.026  -0.009  -0.012   0.014


------------------------ aborting loop because EDIFF is reached ----------------------------------------


    CHARGE:  cpu time    0.1450: real time    0.1453
    FORLOC:  cpu time    0.1036: real time    0.1038
    FORNL :  cpu time    0.4731: real time    0.4742
    STRESS:  cpu time    1.6807: real time    1.6847
    FORCOR:  cpu time    1.5895: real time    1.5932
    FORHAR:  cpu time    0.5040: real time    0.5052
    MIXING:  cpu time    0.0528: real time    0.0530
    OFIELD:  cpu time    0.0000: real time    0.0000

  FORCE on cell =-STRESS in cart. coord.  units (eV):
  Direction    XX          YY          ZZ          XY          YZ          ZX
  --------------------------------------------------------------------------------------
  Alpha Z     0.25592     0.25592     0.25592
  Ewald      44.80098    41.22036    45.26787     0.58769     0.21860     0.20131
  Hartree    96.53966    93.19427    96.79728     0.66427     0.45233    -0.05232
  E(xc)     -27.46174   -27.44769   -27.46089     0.00714     0.00359    -0.00033
  Local    -199.71931  -193.04303  -200.50025    -1.35638    -0.77918    -0.19631
  n-local   -16.26159   -16.18416   -16.59567    -0.21317     0.15432    -0.29817
  augment     0.10461     0.10993     0.10356     0.00301     0.00336    -0.00043
  Kinetic   102.85291   101.90453   103.12657    -0.54670    -0.32016     0.47316
  Fock        0.00000     0.00000     0.00000     0.00000     0.00000     0.00000
  -------------------------------------------------------------------------------------
  Total       1.11145     0.01013     0.99441    -0.85414    -0.26715     0.12691
  in kB       1.88125     0.01715     1.68314    -1.44572    -0.45218     0.21481
  external pressure =        1.19 kB  Pullay stress =        0.00 kB

  kinetic pressure (ideal gas correction) =      0.03 kB
  total pressure  =      1.22 kB
  Total+kin.     1.909       0.064       1.696      -1.463      -0.467       0.233

 VOLUME and BASIS-vectors are now :
 -----------------------------------------------------------------------------
  energy-cutoff  :      400.00
  volume of cell :      946.57
      direct lattice vectors                 reciprocal lattice vectors
     9.719827267  0.000000000  0.000000000     0.102882487 -0.002842076  0.001118315
     0.277158554 10.033076192  0.000000000     0.000000000  0.099670329 -0.001808147
    -0.100643592  0.176088107  9.706490835     0.000000000  0.000000000  0.103023844

  length of vectors
     9.719827267 10.036903643  9.708609606     0.102927810  0.099686728  0.103023844


 FORCES acting on ions
    electron-ion (+dipol)            ewald-force                    non-local-force                 convergence-correction
 -----------------------------------------------------------------------------------------------
   -.164E+02 0.308E+02 0.410E+02   0.183E+02 -.343E+02 -.457E+02   -.161E+01 0.342E+01 0.482E+01   -.467E-05 -.214E-04 -.292E-04
   0.541E+02 -.690E+01 0.360E+01   -.612E+02 0.788E+01 -.419E+01   0.602E+01 -.968E+00 0.660E+00   -.226E-04 -.962E-05 -.291E-04
   -.241E+02 -.470E+02 0.134E+01   0.266E+02 0.516E+02 -.144E+01   -.187E+01 -.422E+01 0.335E+00   -.580E-07 0.885E-05 -.241E-04
   -.113E+02 0.257E+02 -.473E+02   0.130E+02 -.291E+02 0.538E+02   -.163E+01 0.293E+01 -.505E+01   -.279E-05 -.296E-04 -.785E-05
   -.296E+01 -.346E+01 0.225E+01   0.334E+01 0.389E+01 -.243E+01   -.699E+00 0.755E-01 0.110E+00   -.196E-03 -.289E-03 -.550E-03
 -----------------------------------------------------------------------------------------------
   -.734E+00 -.863E+00 0.835E+00   0.000E+00 0.000E+00 0.000E+00   0.204E+00 0.124E+01 0.873E+00   -.226E-03 -.341E-03 -.640E-03


 POSITION                                       TOTAL-FORCE (eV/Angst)
 -----------------------------------------------------------------------------------
      5.30571      4.14499      3.50003         0.288647     -0.060936      0.043402
      3.92557      4.89772      4.25324        -1.045731      0.008109      0.069114
      5.48310      5.74678      4.29807         0.549800      0.401814      0.232380
      5.19502      4.27277      5.23355         0.001961     -0.480219      1.431243
      4.97882      4.76590      4.32402        -0.325505      0.505790     -0.068698
 -----------------------------------------------------------------------------------
    total drift:                               -0.530828      0.374558      1.707441


--------------------------------------------------------------------------------------------------------



  FREE ENERGIE OF THE ION-ELECTRON SYSTEM (eV)
  ---------------------------------------------------
  free  energy   TOTEN  =       -23.95157670 eV

  energy  without entropy=      -23.98669245  energy(sigma->0) =      -23.96328195



--------------------------------------------------------------------------------------------------------


    POTLOK:  cpu time    1.5531: real time    1.5568


--------------------------------------------------------------------------------------------------------


           RANDOM_SEED =         578496035                0                0
           RANDOM_SEED =         578496035               30                0
   IONSTEP:  cpu time    0.0017: real time    0.0020

  ENERGY OF THE ELECTRON-ION-THERMOSTAT SYSTEM (eV)
  ---------------------------------------------------
% ion-electron   TOTEN  =       -23.951577  see above
  kinetic energy EKIN   =         0.040547
  kin. lattice  EKIN_LAT=         0.000000  (temperature   78.42 K)
  nose potential ES     =         0.000000
  nose kinetic   EPS    =         0.000026
  ---------------------------------------------------
  total energy   ETOTAL =       -23.911004 eV

  maximum distance moved by ions :      0.54E-02


 mean value of Nose-termostat <S>:     1.007 mean value of <T> :    78.421
 mean temperature <T/S>/<1/S>  :    78.421

    WAVPRE:  cpu time    0.4039: real time    0.4101
    FEWALD:  cpu time    0.0004: real time    0.0004
    ORTHCH:  cpu time    0.1767: real time    0.1771
     LOOP+:  cpu time   82.7934: real time   82.9972


--------------------------------------- Iteration      2(   1)  ---------------------------------------


    POTLOK:  cpu time    1.5054: real time    1.5090
    SETDIJ:  cpu time    0.0064: real time    0.0064
     EDDAV:  cpu time    1.6933: real time    1.6973
       DOS:  cpu time    0.0002: real time    0.0002
    CHARGE:  cpu time    0.1459: real time    0.1462
    MIXING:  cpu time    0.0380: real time    0.0381
    --------------------------------------------
      LOOP:  cpu time    3.3892: real time    3.3973

 eigenvalue-minimisations  :    64
 total energy-change (2. order) :-0.6218123E-01  (-0.3334005E+00)
 number of electron       7.9999997 magnetization 
 augmentation part        0.1787642 magnetization 

 Broyden mixing:
  rms(total) = 0.11438E+00    rms(broyden)= 0.11428E+00
  rms(prec ) = 0.14760E+00
  weight for this iteration     100.00

 Free energy of the ion-electron system (eV)
  ---------------------------------------------------
  alpha Z        PSCENC =         0.25592358
  Ewald energy   TEWEN  =       122.91537780
  -Hartree energ DENC   =      -281.67509773
  -exchange      EXHF   =         0.00000000
  -V(xc)+E(xc)   XCENC  =        24.72280245
  PAW double counting   =       510.01192379     -510.81851179
  entropy T*S    EENTRO =         0.02975268
  eigenvalues    EBANDS =       -86.49768285
  atomic energy  EATOM  =       197.04175453
  Solvation  Ediel_sol  =         0.00000000
  ---------------------------------------------------
  free energy    TOTEN  =       -24.01375755 eV

  energy without entropy =      -24.04351023  energy(sigma->0) =      -24.02367511


--------------------------------------------------------------------------------------------------------




--------------------------------------- Iteration      2(   2)  ---------------------------------------


    POTLOK:  cpu time    1.3734: real time    1.3766
    SETDIJ:  cpu time    0.0064: real time    0.0065
    EDDIAG:  cpu time    0.3570: real time    0.3578
  RMM-DIIS:  cpu time    1.2114: real time    1.2143
    ORTHCH:  cpu time    0.0113: real time    0.0114
       DOS:  cpu time    0.0002: real time    0.0002
    CHARGE:  cpu time    0.1570: real time    0.1574
    MIXING:  cpu time    0.0551: real time    0.0552
    --------------------------------------------
      LOOP:  cpu time    3.1718: real time    3.1793

 eigenvalue-minimisations  :    64
 total energy-change (2. order) : 0.7014982E-02  (-0.5519614E-01)
 number of electron       7.9999998 magnetization 
 augmentation part        0.1843848 magnetization 

 Broyden mixing:
  rms(total) = 0.10020E+00    rms(broyden)= 0.10015E+00
  rms(prec ) = 0.13356E+00
  weight for this iteration     100.00

 eigenvalues of (default mixing * dielectric matrix)
  average eigenvalue GAMMA=   2.0976
  8.3324  5.4972  4.1332  3.5419  2.4008  2.4008  2.2123  1.8909  1.6355  1.1982
  1.1982  0.5569  0.5569  0.7430  0.7430  1.1302  1.1302  0.8908  0.8908  0.8694

 Free energy of the ion-electron system (eV)
  ---------------------------------------------------
  alpha Z        PSCENC =         0.25592358
[...]
  rms(total) = 0.29140E-02    rms(broyden)= 0.29139E-02
  rms(prec ) = 0.38375E-02
  weight for this iteration     100.00

 eigenvalues of (default mixing * dielectric matrix)
  average eigenvalue GAMMA=   2.2835
 14.0664  6.1176  3.9706  3.9706  2.3334  2.3334  3.5727  0.2267  0.3814  0.3814
  0.9158  0.9158  0.5362  0.5362  2.9978  2.9978  0.7793  0.7793  0.9341  0.9341
  0.9308  1.0723  1.4223  1.4223  1.2766  1.2766  2.1708  2.1708  3.0851  2.3097
  2.3097  1.8852  1.8852  1.8619  2.2152  2.5157  2.5157  2.3425  2.6820  2.6820
  2.4991  2.5570  2.7110  2.6113  2.6682

 Free energy of the ion-electron system (eV)
  ---------------------------------------------------
  alpha Z        PSCENC =         0.25592358
  Ewald energy   TEWEN  =       128.07636357
  -Hartree energ DENC   =      -283.69171239
  -exchange      EXHF   =         0.00000000
  -V(xc)+E(xc)   XCENC  =        24.81449472
  PAW double counting   =       482.59114081     -483.38606951
  entropy T*S    EENTRO =         0.01193517
  eigenvalues    EBANDS =       -89.70489894
  atomic energy  EATOM  =       197.04175453
  Solvation  Ediel_sol  =         0.00000000
  ---------------------------------------------------
  free energy    TOTEN  =       -23.99106846 eV

  energy without entropy =      -24.00300363  energy(sigma->0) =      -23.99504685


--------------------------------------------------------------------------------------------------------




--------------------------------------- Iteration     10(  14)  ---------------------------------------


    POTLOK:  cpu time    1.2833: real time    1.2863
    SETDIJ:  cpu time    0.0057: real time    0.0057
    EDDIAG:  cpu time    0.2554: real time    0.2560
  RMM-DIIS:  cpu time    1.0874: real time    1.0900
    ORTHCH:  cpu time    0.0108: real time    0.0108
       DOS:  cpu time    0.0002: real time    0.0002
    CHARGE:  cpu time    0.1160: real time    0.1163
    MIXING:  cpu time    0.1009: real time    0.1011
    --------------------------------------------
      LOOP:  cpu time    2.8595: real time    2.8663

 eigenvalue-minimisations  :    64
 total energy-change (2. order) : 0.1954485E-04  (-0.6615097E-05)
 number of electron       8.0000002 magnetization 
 augmentation part        0.1885490 magnetization 

 Broyden mixing:
  rms(total) = 0.83026E-03    rms(broyden)= 0.82966E-03
  rms(prec ) = 0.11072E-02
  weight for this iteration     100.00

 eigenvalues of (default mixing * dielectric matrix)
  average eigenvalue GAMMA=   2.2693
 13.4947  6.0824  3.9727  3.9727  2.3957  2.3957  3.5675  3.2388  3.2388  3.0600
  0.2022  0.4015  0.4015  0.9124  0.9124  0.5368  0.5368  1.4320  1.4320  2.2138
  2.2138  0.6886  0.9473  0.9473  0.8812  0.9564  1.1565  1.1565  1.3385  1.4605
  1.8393  1.9393  1.9393  2.1297  2.1297  2.6284  2.6284  2.2384  2.6152  2.6152
  2.7106  2.6575  2.6575  2.5421  2.4730  2.4950

 Free energy of the ion-electron system (eV)
  ---------------------------------------------------
  alpha Z        PSCENC =         0.25592358
  Ewald energy   TEWEN  =       128.07636357
  -Hartree energ DENC   =      -283.68877308
  -exchange      EXHF   =         0.00000000
  -V(xc)+E(xc)   XCENC  =        24.81430648
  PAW double counting   =       482.55546511     -483.35036531
  entropy T*S    EENTRO =         0.01191000
  eigenvalues    EBANDS =       -89.70763380
  atomic energy  EATOM  =       197.04175453
  Solvation  Ediel_sol  =         0.00000000
  ---------------------------------------------------
  free energy    TOTEN  =       -23.99104891 eV

  energy without entropy =      -24.00295891  energy(sigma->0) =      -23.99501891


--------------------------------------------------------------------------------------------------------




--------------------------------------- Iteration     10(  15)  ---------------------------------------


    POTLOK:  cpu time    1.2764: real time    1.2794
    SETDIJ:  cpu time    0.0057: real time    0.0057
    EDDIAG:  cpu time    0.2545: real time    0.2551
  RMM-DIIS:  cpu time    1.0893: real time    1.0919
    ORTHCH:  cpu time    0.0106: real time    0.0107
       DOS:  cpu time    0.0002: real time    0.0002
    CHARGE:  cpu time    0.1222: real time    0.1225
    MIXING:  cpu time    0.1029: real time    0.1032
    --------------------------------------------
      LOOP:  cpu time    2.8618: real time    2.8686

 eigenvalue-minimisations  :    64
 total energy-change (2. order) :-0.9331158E-06  (-0.3604889E-05)
 number of electron       8.0000002 magnetization 
 augmentation part        0.1885507 magnetization 

 Broyden mixing:
  rms(total) = 0.59685E-03    rms(broyden)= 0.59628E-03
  rms(prec ) = 0.77832E-03
  weight for this iteration     100.00

 eigenvalues of (default mixing * dielectric matrix)
  average eigenvalue GAMMA=   2.3295
 15.7826  6.1502  4.1950  4.1950  2.8620  2.8620  3.3922  3.3922  2.7528  2.7528
  0.1975  3.2051  0.3716  0.3716  0.9224  0.9224  0.5519  0.5519  1.3308  1.3308
  0.7822  0.9796  0.9796  0.8461  0.9563  1.0446  1.0446  1.1756  1.8327  1.8327
  1.4268  1.8068  1.8068  2.2901  2.2901  2.1380  2.2484  2.2484  2.6339  2.6339
  2.7906  2.6905  2.6905  2.4742  2.5560  2.5560  2.6405

 Free energy of the ion-electron system (eV)
  ---------------------------------------------------
  alpha Z        PSCENC =         0.25592358
  Ewald energy   TEWEN  =       128.07636357
  -Hartree energ DENC   =      -283.68908837
  -exchange      EXHF   =         0.00000000
  -V(xc)+E(xc)   XCENC  =        24.81429895
  PAW double counting   =       482.54443698     -483.33935040
  entropy T*S    EENTRO =         0.01189431
  eigenvalues    EBANDS =       -89.70728301
  atomic energy  EATOM  =       197.04175453
  Solvation  Ediel_sol  =         0.00000000
  ---------------------------------------------------
  free energy    TOTEN  =       -23.99104985 eV

  energy without entropy =      -24.00294416  energy(sigma->0) =      -23.99501462


--------------------------------------------------------------------------------------------------------




--------------------------------------- Iteration     10(  16)  ---------------------------------------


    POTLOK:  cpu time    1.2948: real time    1.2979
    SETDIJ:  cpu time    0.0063: real time    0.0063
    EDDIAG:  cpu time    0.2325: real time    0.2330
  RMM-DIIS:  cpu time    0.7788: real time    0.7806
    ORTHCH:  cpu time    0.0095: real time    0.0096
       DOS:  cpu time    0.0002: real time    0.0002
    CHARGE:  cpu time    0.1276: real time    0.1279
    MIXING:  cpu time    0.1112: real time    0.1115
    --------------------------------------------
      LOOP:  cpu time    2.5610: real time    2.5671

 eigenvalue-minimisations  :    48
 total energy-change (2. order) :-0.1331619E-05  (-0.1117725E-06)
 number of electron       8.0000002 magnetization 
 augmentation part        0.1885506 magnetization 

 Broyden mixing:
  rms(total) = 0.56679E-03    rms(broyden)= 0.56675E-03
  rms(prec ) = 0.74312E-03
  weight for this iteration     100.00

 eigenvalues of (default mixing * dielectric matrix)
  average eigenvalue GAMMA=   2.3079
 16.0793  6.2386  4.3754  4.3754  2.2152  2.2152  3.5136  2.8368  2.8368  2.9809
  2.9809  0.2717  0.2717  0.3253  0.8162  0.8162  1.9393  1.9393  0.6253  0.6253
  0.6203  1.4988  1.4988  0.9491  0.9491  0.8218  0.9648  0.9648  0.9584  1.1511
  1.7933  1.7933  1.6265  1.6265  2.9652  2.2539  2.2539  2.1116  2.6522  2.6522
  2.2856  2.6528  2.6528  2.7020  2.6017  2.6017  2.4499  2.4499

 Free energy of the ion-electron system (eV)
  ---------------------------------------------------
  alpha Z        PSCENC =         0.25592358
  Ewald energy   TEWEN  =       128.07636357
  -Hartree energ DENC   =      -283.69013283
  -exchange      EXHF   =         0.00000000
  -V(xc)+E(xc)   XCENC  =        24.81433823
  PAW double counting   =       482.54712628     -483.34205623
  entropy T*S    EENTRO =         0.01189468
  eigenvalues    EBANDS =       -89.70626299
  atomic energy  EATOM  =       197.04175453
  Solvation  Ediel_sol  =         0.00000000
  ---------------------------------------------------
  free energy    TOTEN  =       -23.99105118 eV

  energy without entropy =      -24.00294586  energy(sigma->0) =      -23.99501607


--------------------------------------------------------------------------------------------------------




--------------------------------------- Iteration     10(  17)  ---------------------------------------


    POTLOK:  cpu time    1.3721: real time    1.3754
    SETDIJ:  cpu time    0.0056: real time    0.0057
    EDDIAG:  cpu time    0.2433: real time    0.2439
  RMM-DIIS:  cpu time    0.7822: real time    0.7840
    ORTHCH:  cpu time    0.0097: real time    0.0097
       DOS:  cpu time    0.0002: real time    0.0002
    --------------------------------------------
      LOOP:  cpu time    2.4132: real time    2.4189

 eigenvalue-minimisations  :    48
 total energy-change (2. order) :-0.7895401E-06  (-0.1410356E-06)
 number of electron       8.0000002 magnetization 
 augmentation part        0.1885506 magnetization 

 Free energy of the ion-electron system (eV)
  ---------------------------------------------------
  alpha Z        PSCENC =         0.25592358
  Ewald energy   TEWEN  =       128.07636357
  -Hartree energ DENC   =      -283.69028104
  -exchange      EXHF   =         0.00000000
  -V(xc)+E(xc)   XCENC  =        24.81435300
  PAW double counting   =       482.54912646     -483.34405781
  entropy T*S    EENTRO =         0.01189881
  eigenvalues    EBANDS =       -89.70613306
  atomic energy  EATOM  =       197.04175453
  Solvation  Ediel_sol  =         0.00000000
  ---------------------------------------------------
  free energy    TOTEN  =       -23.99105197 eV

  energy without entropy =      -24.00295078  energy(sigma->0) =      -23.99501824


--------------------------------------------------------------------------------------------------------




 average (electrostatic) potential at core
  the test charge radii are     0.5201  0.6991
  (the norm of the test charge is              1.0000)
       1 -41.4523       2 -41.5162       3 -41.7690       4 -41.4174       5 -57.9156



 E-fermi :  -8.7850     XC(G=0):  -0.7286     alpha+bet : -0.2226


 k-point     1 :       0.2500    0.2500    0.2500
  band No.  band energies     occupation 
      1     -16.9434      2.00000
      2      -9.6226      2.00000
      3      -9.3340      2.00072
      4      -8.9531      1.99938
      5      -0.3053      0.00000
      6       0.6093      0.00000
      7       0.7057      0.00000
      8       0.7402      0.00000

 k-point     2 :      -0.2500    0.2500    0.2500
  band No.  band energies     occupation 
      1     -16.9434      2.00000
      2      -9.6226      2.00000
      3      -9.3338      2.00073
      4      -8.9531      1.99929
      5      -0.3018      0.00000
      6       0.5941      0.00000
      7       0.6946      0.00000
      8       0.7344      0.00000

 k-point     3 :       0.2500   -0.2500    0.2500
  band No.  band energies     occupation 
      1     -16.9434      2.00000
      2      -9.6225      2.00000
      3      -9.3338      2.00073
      4      -8.9530      1.99921
      5      -0.2952      0.00000
      6       0.5744      0.00000
      7       0.6874      0.00000
      8       0.7210      0.00000

 k-point     4 :      -0.2500   -0.2500    0.2500
  band No.  band energies     occupation 
      1     -16.9434      2.00000
      2      -9.6226      2.00000
      3      -9.3339      2.00072
      4      -8.9530      1.99921
      5      -0.3043      0.00000
      6       0.6088      0.00000
      7       0.7077      0.00000
      8       0.7264      0.00000


--------------------------------------------------------------------------------------------------------


 soft charge-density along one line, spin component           1
         0         1         2         3         4         5         6         7         8         9
 total charge-density along one line

 pseudopotential strength for first ion, spin component:           1
 -2.340  -4.031  -0.001  -0.001   0.001
 -4.031  -6.860  -0.004  -0.004   0.002
 -0.001  -0.004  -0.338   0.002  -0.001
 -0.001  -0.004   0.002  -0.337  -0.001
  0.001   0.002  -0.001  -0.001  -0.339
 total augmentation occupancy for first ion, spin component:           1
  2.879  -0.390   0.254   0.300  -0.107
 -0.390   0.071  -0.035  -0.043   0.016
  0.254  -0.035   0.030   0.021  -0.008
  0.300  -0.043   0.021   0.037  -0.009
 -0.107   0.016  -0.008  -0.009   0.012


------------------------ aborting loop because EDIFF is reached ----------------------------------------


    CHARGE:  cpu time    0.1143: real time    0.1146
    FORLOC:  cpu time    0.0987: real time    0.0989
    FORNL :  cpu time    0.3846: real time    0.3855
    STRESS:  cpu time    1.3427: real time    1.3458
    FORCOR:  cpu time    1.4067: real time    1.4101
    FORHAR:  cpu time    0.4436: real time    0.4446
    MIXING:  cpu time    0.1138: real time    0.1140
    OFIELD:  cpu time    0.0000: real time    0.0000

  FORCE on cell =-STRESS in cart. coord.  units (eV):
  Direction    XX          YY          ZZ          XY          YZ          ZX
  --------------------------------------------------------------------------------------
  Alpha Z     0.25592     0.25592     0.25592
  Ewald      48.98794    40.83213    38.25628     1.78825     1.40645     4.44326
  Hartree    97.22452    91.73026    94.73380     0.33882     0.56570     1.15953
  E(xc)     -27.26329   -27.28888   -27.31151    -0.00001     0.00492     0.02615
  Local    -204.01937  -190.80971  -192.98234    -1.57199    -1.73313    -4.82542
  n-local   -16.73332   -16.61095   -15.39488    -0.52507     0.13446     0.30049
  augment     0.11462     0.11442     0.12925    -0.00573    -0.00215    -0.00498
  Kinetic   100.13277   101.65628   102.97798    -0.01044    -0.22973    -1.29189
  Fock        0.00000     0.00000     0.00000     0.00000     0.00000     0.00000
  -------------------------------------------------------------------------------------
  Total      -1.30020    -0.12053     0.66450     0.01384     0.14652    -0.19287
  in kB      -2.20072    -0.20401     1.12473     0.02342     0.24800    -0.32645
  external pressure =       -0.43 kB  Pullay stress =        0.00 kB

  kinetic pressure (ideal gas correction) =      0.13 kB
  total pressure  =     -0.29 kB
  Total+kin.    -2.139      -0.122       1.385       0.013       0.126      -0.261

 VOLUME and BASIS-vectors are now :
 -----------------------------------------------------------------------------
  energy-cutoff  :      400.00
  volume of cell :      946.57
      direct lattice vectors                 reciprocal lattice vectors
     9.719827267  0.000000000  0.000000000     0.102882487 -0.002842076  0.001118315
     0.277158554 10.033076192  0.000000000     0.000000000  0.099670329 -0.001808147
    -0.100643592  0.176088107  9.706490835     0.000000000  0.000000000  0.103023844

  length of vectors
     9.719827267 10.036903643  9.708609606     0.102927810  0.099686728  0.103023844


 FORCES acting on ions
    electron-ion (+dipol)            ewald-force                    non-local-force                 convergence-correction
 -----------------------------------------------------------------------------------------------
   -.156E+02 0.338E+02 0.379E+02   0.173E+02 -.373E+02 -.421E+02   -.161E+01 0.419E+01 0.391E+01   -.105E-03 0.117E-03 -.202E-04
   0.516E+02 -.867E+01 0.592E+01   -.567E+02 0.965E+01 -.636E+01   0.593E+01 -.106E+01 0.749E-01   -.997E-04 -.468E-03 0.321E-03
   -.303E+02 -.450E+02 0.978E+00   0.341E+02 0.509E+02 -.126E+01   -.354E+01 -.440E+01 0.440E+00   -.632E-04 -.555E-03 -.223E-03
   -.115E+02 0.250E+02 -.451E+02   0.124E+02 -.275E+02 0.498E+02   -.134E+01 0.270E+01 -.511E+01   -.645E-03 -.147E-03 -.462E-04
   0.653E+01 -.431E+01 0.123E+00   -.716E+01 0.426E+01 -.725E-01   -.628E+00 -.142E+01 0.103E+01   -.382E-02 -.402E-02 0.230E-03
 -----------------------------------------------------------------------------------------------
   0.623E+00 0.829E+00 -.195E+00   -.178E-14 0.000E+00 -.709E-14   -.119E+01 0.188E-01 0.351E+00   -.473E-02 -.507E-02 0.261E-03


 POSITION                                       TOTAL-FORCE (eV/Angst)
 -----------------------------------------------------------------------------------
      5.29896      4.07650      3.54814         0.101058      0.695671     -0.298821
      3.89265      4.95070      4.19792         0.801689     -0.081817     -0.366761
      5.57734      5.65413      4.30434         0.247533      1.482310      0.156811
      5.21909      4.25090      5.25723        -0.455295      0.215266     -0.418618
      4.97227      4.77673      4.32212        -1.267945     -1.468744      1.083277
 -----------------------------------------------------------------------------------
    total drift:                               -0.572961      0.842685      0.155888


--------------------------------------------------------------------------------------------------------



  FREE ENERGIE OF THE ION-ELECTRON SYSTEM (eV)
  ---------------------------------------------------
  free  energy   TOTEN  =       -23.99105197 eV

  energy  without entropy=      -24.00295078  energy(sigma->0) =      -23.99501824

 d Force = 0.7969665E-01[-0.855E-01, 0.245E+00]  d Energy = 0.9755202E-01-0.179E-01
 d Force =-0.1894211E+01[-0.206E+01,-0.173E+01]  d Ewald  =-0.1900591E+01 0.638E-02


--------------------------------------------------------------------------------------------------------


    POTLOK:  cpu time    1.3743: real time    1.3776


--------------------------------------------------------------------------------------------------------


           RANDOM_SEED =         578496035               30                0
   IONSTEP:  cpu time    0.0001: real time    0.0001

  ENERGY OF THE ELECTRON-ION-THERMOSTAT SYSTEM (eV)
  ---------------------------------------------------
% ion-electron   TOTEN  =       -23.991052  see above
  kinetic energy EKIN   =         0.085430
  kin. lattice  EKIN_LAT=         0.000000  (temperature  165.23 K)
  nose potential ES     =         0.026225
  nose kinetic   EPS    =         0.041543
  ---------------------------------------------------
  total energy   ETOTAL =       -23.837855 eV

  maximum distance moved by ions :      0.68E-02


 mean value of Nose-termostat <S>:     1.935 mean value of <T> :   165.227
 mean temperature <T/S>/<1/S>  :   165.227

    WAVPRE:  cpu time    0.3887: real time    0.3970
    FEWALD:  cpu time    0.0003: real time    0.0003
    ORTHCH:  cpu time    0.1234: real time    0.1237
 Prediction of Wavefunctions ALPHA= 0.584 BETA=-0.480
    POTLOK:  cpu time    1.2901: real time    1.2932
    EDDIAG:  cpu time    0.2707: real time    0.2713
     LOOP+:  cpu time   55.1262: real time   55.2720
    4ORBIT:  cpu time    0.0000: real time    0.0000

 total amount of memory used by VASP MPI-rank0   277334. kBytes
=======================================================================

   base      :      30000. kBytes
   nonlr-proj:        148. kBytes
   fftplans  :      79272. kBytes
   grid      :     141424. kBytes
   one-center:         15. kBytes
   wavefun   :      26475. kBytes

  
  
 General timing and accounting informations for this job:
 ========================================================
  
                  Total CPU time used (sec):      918.243
                            User time (sec):      899.403
                          System time (sec):       18.840
                         Elapsed time (sec):      923.182
  
                   Maximum memory used (kb):      431512.
                   Average memory used (kb):           0.
  
                          Minor page faults:      3370028
                          Major page faults:            0
                 Voluntary context switches:          405
