 running on    1 total cores
 distrk:  each k-point on    1 cores,    1 groups
 distr:  one band on    1 cores,    1 groups
 using from now: INCAR     
 vasp.5.4.4.18Apr17-6-g9f103f2a35 (build Jul 12 2018 13:43:46) complex           
 POSCAR found type information on POSCAR  H  C 
 POSCAR found :  2 types and       5 ions
 scaLAPACK will be used

 ----------------------------------------------------------------------------- 
|                                                                             |
|  ADVICE TO THIS USER RUNNING 'VASP/VAMP'   (HEAR YOUR MASTER'S VOICE ...):  |
|                                                                             |
|      You have a (more or less) 'small supercell' and for smaller cells      |
|      it is recommended  to use the reciprocal-space projection scheme!      |
|      The real space optimization is not  efficient for small cells and it   |
|      is also less accurate ...                                              |
|      Therefore set LREAL=.FALSE. in the  INCAR file                         |
|                                                                             |
 ----------------------------------------------------------------------------- 


 ----------------------------------------------------------------------------- 
|                                                                             |
|           W    W    AA    RRRRR   N    N  II  N    N   GGGG   !!!           |
|           W    W   A  A   R    R  NN   N  II  NN   N  G    G  !!!           |
|           W    W  A    A  R    R  N N  N  II  N N  N  G       !!!           |
|           W WW W  AAAAAA  RRRRR   N  N N  II  N  N N  G  GGG   !            |
|           WW  WW  A    A  R   R   N   NN  II  N   NN  G    G                |
|           W    W  A    A  R    R  N    N  II  N    N   GGGG   !!!           |
|                                                                             |
|     The real-space-projection scheme for the treatment of the nonlocal      |
|     pseudopotentials has been switched on -- but on file POTCAR I have      |
|     not found any entries signalling me that you have ever performed a      |
|     real-space optimization of all nonlocal projectors! BE WARNED that      |
|     a calculation using the real-space-projection scheme together with      |
|     nonlocal projectors which were not real-space-optimized (according      |
|     to the plane-wave-cutoff used in this calculation) might give more      |
|     or less inaccurate results                                              |
|     I hope you know what you are doing                                      |
|                                                                             |
 ----------------------------------------------------------------------------- 

 LDA part: xc-table for Pade appr. of Perdew
 generate k-points for:    2    2    2
 POSCAR, INCAR and KPOINTS ok, starting setup
 FFT: planning ...
 WAVECAR not read
 prediction of wavefunctions initialized - no I/O
 entering main loop
       N       E                     dE             d eps       ncg     rms          rms(c)
DAV:   1     0.144458781020E+02    0.14446E+02   -0.20010E+03   104   0.413E+02
DAV:   2    -0.234203258845E+02   -0.37866E+02   -0.37866E+02    72   0.113E+02
DAV:   3    -0.276435606905E+02   -0.42232E+01   -0.42390E+01    64   0.428E+01
DAV:   4    -0.278068345878E+02   -0.16327E+00   -0.16285E+00   128   0.933E+00
DAV:   5    -0.278068801323E+02   -0.45545E-04   -0.45546E-04    96   0.169E-01    0.916E+00
RMM:   6    -0.246418913852E+02    0.31650E+01   -0.59248E+00    64   0.150E+01    0.455E+00
RMM:   7    -0.241100572840E+02    0.53183E+00   -0.14163E+00    64   0.694E+00    0.251E+00
RMM:   8    -0.239949323294E+02    0.11512E+00   -0.98748E-02    64   0.203E+00    0.129E+00
RMM:   9    -0.239467082300E+02    0.48224E-01   -0.62054E-02    64   0.187E+00    0.395E-01
RMM:  10    -0.239441111619E+02    0.25971E-02   -0.37858E-03    64   0.394E-01    0.217E-01
RMM:  11    -0.239439634988E+02    0.14766E-03   -0.11730E-02    64   0.590E-01    0.234E-01
RMM:  12    -0.239407382428E+02    0.32253E-02   -0.17343E-03    64   0.305E-01    0.103E-01
RMM:  13    -0.239402908205E+02    0.44742E-03   -0.68824E-04    64   0.195E-01    0.545E-02
RMM:  14    -0.239437974539E+02   -0.35066E-02   -0.50040E-04    64   0.134E-01    0.644E-02
RMM:  15    -0.239489029959E+02   -0.51055E-02   -0.10512E-03    64   0.195E-01    0.124E-01
RMM:  16    -0.239504951730E+02   -0.15922E-02   -0.49025E-04    64   0.128E-01    0.914E-02
RMM:  17    -0.239508172924E+02   -0.32212E-03   -0.11507E-04    64   0.729E-02    0.311E-02
RMM:  18    -0.239513785194E+02   -0.56123E-03   -0.81626E-05    64   0.527E-02    0.190E-02
RMM:  19    -0.239515274220E+02   -0.14890E-03   -0.54360E-05    64   0.445E-02    0.894E-03
RMM:  20    -0.239515524206E+02   -0.24999E-04   -0.17359E-06    48   0.101E-02    0.597E-03
RMM:  21    -0.239515726073E+02   -0.20187E-04   -0.88004E-06    64   0.180E-02    0.284E-03
RMM:  22    -0.239515747697E+02   -0.21623E-05   -0.14648E-06    48   0.790E-03    0.148E-03
RMM:  23    -0.239515763190E+02   -0.15493E-05   -0.24169E-07    48   0.415E-03    0.459E-04
RMM:  24    -0.239515767028E+02   -0.38383E-06   -0.30406E-08    39   0.172E-03
    1 T=    78. E= -.23911004E+02 F= -.23951577E+02 E0= -.23963282E+02  EK= 0.40547E-01 SP= 0.00E+00 SK= 0.26E-04
 bond charge predicted
       N       E                     dE             d eps       ncg     rms          rms(c)
DAV:   1    -0.240137575508E+02   -0.62181E-01   -0.33340E+00    64   0.162E+01    0.114E+00
RMM:   2    -0.240067425691E+02    0.70150E-02   -0.55196E-01    64   0.411E+00    0.100E+00
RMM:   3    -0.239726180675E+02    0.34125E-01   -0.10354E-01    64   0.184E+00    0.565E-01
RMM:   4    -0.239706902120E+02    0.19279E-02   -0.11724E-02    64   0.740E-01    0.224E-01
RMM:   5    -0.239704697576E+02    0.22045E-03   -0.93023E-04    64   0.223E-01    0.119E-01
RMM:   6    -0.239706245117E+02   -0.15475E-03   -0.38574E-04    64   0.126E-01    0.392E-02
RMM:   7    -0.239708204060E+02   -0.19589E-03   -0.47957E-05    64   0.466E-02    0.379E-02
RMM:   8    -0.239708411619E+02   -0.20756E-04   -0.16036E-04    64   0.730E-02    0.181E-02
RMM:   9    -0.239709242230E+02   -0.83061E-04   -0.15082E-05    64   0.239E-02    0.111E-02
RMM:  10    -0.239709584151E+02   -0.34192E-04   -0.10515E-05    64   0.195E-02    0.543E-03
RMM:  11    -0.239709719982E+02   -0.13583E-04   -0.12254E-06    48   0.743E-03    0.256E-03
RMM:  12    -0.239709820068E+02   -0.10009E-04   -0.38166E-06    60   0.108E-02    0.171E-03
RMM:  13    -0.239709851129E+02   -0.31061E-05   -0.29825E-07    48   0.381E-03    0.892E-04
RMM:  14    -0.239709884474E+02   -0.33345E-05   -0.48510E-07    48   0.389E-03    0.522E-04
RMM:  15    -0.239709893352E+02   -0.88777E-06   -0.10781E-07    44   0.242E-03
    2 T=   101. E= -.23917859E+02 F= -.23970989E+02 E0= -.23983155E+02  EK= 0.52392E-01 SP= 0.36E-03 SK= 0.38E-03
 bond charge predicted
 prediction of wavefunctions
       N       E                     dE             d eps       ncg     rms          rms(c)
DAV:   1    -0.239889437024E+02   -0.17955E-01   -0.23867E+00    64   0.150E+01    0.635E-01
RMM:   2    -0.239861295800E+02    0.28141E-02   -0.28628E-02    64   0.148E+00    0.448E-01
RMM:   3    -0.239901812746E+02   -0.40517E-02   -0.27310E-02    64   0.103E+00    0.370E-01
RMM:   4    -0.239851112027E+02    0.50701E-02   -0.12512E-02    64   0.632E-01    0.157E-01
RMM:   5    -0.239855966858E+02   -0.48548E-03   -0.83443E-03    64   0.560E-01    0.157E-01
RMM:   6    -0.239853077278E+02    0.28896E-03   -0.24717E-04    64   0.123E-01    0.128E-01
RMM:   7    -0.239849057323E+02    0.40200E-03   -0.15098E-03    64   0.222E-01    0.807E-02
RMM:   8    -0.239848253370E+02    0.80395E-04   -0.84313E-05    64   0.632E-02    0.702E-02
RMM:   9    -0.239847582497E+02    0.67087E-04   -0.98315E-05    64   0.622E-02    0.587E-02
RMM:  10    -0.239846687407E+02    0.89509E-04   -0.14586E-04    64   0.771E-02    0.380E-02
RMM:  11    -0.239846400865E+02    0.28654E-04   -0.11003E-04    64   0.636E-02    0.247E-02
RMM:  12    -0.239846263667E+02    0.13720E-04   -0.27687E-05    64   0.342E-02    0.167E-02
RMM:  13    -0.239846231261E+02    0.32405E-05   -0.23637E-05    64   0.304E-02    0.946E-03
RMM:  14    -0.239846244292E+02   -0.13031E-05   -0.26020E-06    56   0.117E-02    0.838E-03
RMM:  15    -0.239846248311E+02   -0.40190E-06   -0.59748E-06    64   0.150E-02
    3 T=    84. E= -.23938367E+02 F= -.23984625E+02 E0= -.23992454E+02  EK= 0.43676E-01 SP= 0.14E-02 SK= 0.12E-02
 bond charge predicted
 prediction of wavefunctions
       N       E                     dE             d eps       ncg     rms          rms(c)
DAV:   1    -0.239494385422E+02    0.35186E-01   -0.14367E+00    64   0.117E+01    0.674E-01
RMM:   2    -0.240161921962E+02   -0.66754E-01   -0.27253E-01    64   0.348E+00    0.130E+00
RMM:   3    -0.239521013654E+02    0.64091E-01   -0.85295E-02    64   0.186E+00    0.473E-01
RMM:   4    -0.239498318710E+02    0.22695E-02   -0.23254E-02    64   0.897E-01    0.344E-01
RMM:   5    -0.239461315601E+02    0.37003E-02   -0.80154E-03    64   0.560E-01    0.194E-01
RMM:   6    -0.239456478523E+02    0.48371E-03   -0.52307E-03    64   0.430E-01    0.119E-01
RMM:   7    -0.239454490077E+02    0.19884E-03   -0.42156E-04    64   0.150E-01    0.875E-02
RMM:   8    -0.239452089036E+02    0.24010E-03   -0.11334E-03    64   0.210E-01    0.202E-02
RMM:   9    -0.239452234575E+02   -0.14554E-04   -0.96553E-05    64   0.666E-02    0.659E-03
RMM:  10    -0.239452594286E+02   -0.35971E-04   -0.17812E-05    64   0.300E-02    0.972E-03
RMM:  11    -0.239452650691E+02   -0.56405E-05   -0.16200E-05    64   0.245E-02    0.973E-03
RMM:  12    -0.239452666347E+02   -0.15656E-05   -0.50021E-06    60   0.145E-02    0.415E-03
RMM:  13    -0.239452699131E+02   -0.32785E-05   -0.94065E-07    48   0.696E-03    0.336E-03
RMM:  14    -0.239452723514E+02   -0.24382E-05   -0.20761E-06    52   0.937E-03    0.210E-03
RMM:  15    -0.239452725822E+02   -0.23084E-06   -0.50269E-07    48   0.543E-03
    4 T=    55. E= -.23912367E+02 F= -.23945273E+02 E0= -.23953924E+02  EK= 0.28345E-01 SP= 0.28E-02 SK= 0.17E-02
 bond charge predicted
 prediction of wavefunctions
       N       E                     dE             d eps       ncg     rms          rms(c)
DAV:   1    -0.239622564609E+02   -0.16984E-01   -0.91461E-01    64   0.887E+00    0.652E-01
RMM:   2    -0.239648814895E+02   -0.26250E-02   -0.85044E-02    64   0.184E+00    0.431E-01
RMM:   3    -0.239600714110E+02    0.48101E-02   -0.13610E-02    64   0.757E-01    0.339E-01
RMM:   4    -0.239573306333E+02    0.27408E-02   -0.27044E-02    64   0.997E-01    0.466E-01
RMM:   5    -0.239558640892E+02    0.14665E-02   -0.24156E-03    64   0.322E-01    0.230E-01
RMM:   6    -0.239559278759E+02   -0.63787E-04   -0.13030E-03    64   0.212E-01    0.223E-01
RMM:   7    -0.239553958981E+02    0.53198E-03   -0.92699E-04    64   0.201E-01    0.105E-01
RMM:   8    -0.239551887719E+02    0.20713E-03   -0.36699E-04    64   0.121E-01    0.718E-02
RMM:   9    -0.239550379849E+02    0.15079E-03   -0.55535E-04    64   0.144E-01    0.578E-02
RMM:  10    -0.239549935001E+02    0.44485E-04   -0.13100E-04    64   0.755E-02    0.229E-02
RMM:  11    -0.239550002703E+02   -0.67702E-05   -0.54268E-05    64   0.475E-02    0.920E-03
RMM:  12    -0.239550189595E+02   -0.18689E-04   -0.54280E-06    64   0.172E-02    0.928E-03
RMM:  13    -0.239550302636E+02   -0.11304E-04   -0.77441E-06    64   0.182E-02    0.777E-03
RMM:  14    -0.239550308920E+02   -0.62832E-06   -0.12703E-06    48   0.808E-03
    5 T=    89. E= -.23902382E+02 F= -.23955031E+02 E0= -.23963737E+02  EK= 0.45847E-01 SP= 0.43E-02 SK= 0.25E-02
 bond charge predicted
 prediction of wavefunctions
       N       E                     dE             d eps       ncg     rms          rms(c)
DAV:   1    -0.240126259601E+02   -0.57596E-01   -0.24925E+00    64   0.149E+01    0.733E-01
RMM:   2    -0.240602649764E+02   -0.47639E-01   -0.24117E-01    64   0.351E+00    0.124E+00
RMM:   3    -0.240300732581E+02    0.30192E-01   -0.96788E-02    64   0.210E+00    0.908E-01
RMM:   4    -0.240158221049E+02    0.14251E-01   -0.81634E-02    64   0.177E+00    0.442E-01
RMM:   5    -0.240139339766E+02    0.18881E-02   -0.24243E-02    64   0.969E-01    0.224E-01
RMM:   6    -0.240133540221E+02    0.57995E-03   -0.26822E-03    64   0.349E-01    0.881E-02
RMM:   7    -0.240136069068E+02   -0.25288E-03   -0.86737E-04    64   0.198E-01    0.793E-02
RMM:   8    -0.240137123498E+02   -0.10544E-03   -0.13136E-03    64   0.220E-01    0.367E-02
RMM:   9    -0.240139879978E+02   -0.27565E-03   -0.74972E-04    64   0.169E-01    0.774E-02
RMM:  10    -0.240139818947E+02    0.61031E-05   -0.17585E-04    64   0.841E-02    0.814E-02
RMM:  11    -0.240139554061E+02    0.26489E-04   -0.12127E-04    64   0.696E-02    0.905E-02
RMM:  12    -0.240139266617E+02    0.28744E-04   -0.10997E-05    64   0.244E-02    0.916E-02
RMM:  13    -0.240139706888E+02   -0.44027E-04   -0.22695E-05    64   0.304E-02    0.881E-02
RMM:  14    -0.240140725058E+02   -0.10182E-03   -0.19448E-04    64   0.845E-02    0.721E-02
RMM:  15    -0.240141150970E+02   -0.42591E-04   -0.12932E-04    64   0.724E-02    0.498E-02
RMM:  16    -0.240141446907E+02   -0.29594E-04   -0.11130E-04    64   0.643E-02    0.333E-02
RMM:  17    -0.240141556403E+02   -0.10950E-04   -0.25075E-05    64   0.332E-02    0.257E-02
RMM:  18    -0.240141658579E+02   -0.10218E-04   -0.47649E-05    64   0.434E-02    0.150E-02
RMM:  19    -0.240141764301E+02   -0.10572E-04   -0.18594E-05    64   0.276E-02    0.102E-02
RMM:  20    -0.240141842772E+02   -0.78471E-05   -0.10926E-05    64   0.212E-02    0.699E-03
RMM:  21    -0.240141892258E+02   -0.49486E-05   -0.35042E-06    56   0.126E-02    0.602E-03
RMM:  22    -0.240141919975E+02   -0.27717E-05   -0.13624E-06    48   0.890E-03    0.561E-03
RMM:  23    -0.240141935382E+02   -0.15407E-05   -0.26363E-06    56   0.110E-02    0.453E-03
RMM:  24    -0.240141950819E+02   -0.15437E-05   -0.32623E-06    56   0.123E-02    0.371E-03
RMM:  25    -0.240141967855E+02   -0.17036E-05   -0.22544E-06    56   0.103E-02    0.278E-03
RMM:  26    -0.240141977618E+02   -0.97630E-06   -0.36283E-06    56   0.127E-02
    6 T=   132. E= -.23934538E+02 F= -.24014198E+02 E0= -.24020528E+02  EK= 0.68190E-01 SP= 0.64E-02 SK= 0.51E-02
 bond charge predicted
 prediction of wavefunctions
       N       E                     dE             d eps       ncg     rms          rms(c)
DAV:   1    -0.239992796162E+02    0.14917E-01   -0.18636E+00    64   0.139E+01    0.607E-01
RMM:   2    -0.241996381698E+02   -0.20036E+00   -0.52201E-01    64   0.447E+00    0.202E+00
RMM:   3    -0.247002040026E+02   -0.50057E+00   -0.79379E-01    64   0.550E+00    0.383E+00
RMM:   4    -0.272368715703E+02   -0.25367E+01   -0.35472E+00    64   0.114E+01    0.845E+00
RMM:   5    -0.249633405540E+02    0.22735E+01   -0.17119E+00    64   0.792E+00    0.465E+00
RMM:   6    -0.242571214715E+02    0.70622E+00   -0.10525E+00    64   0.623E+00    0.244E+00
RMM:   7    -0.240227543357E+02    0.23437E+00   -0.59164E-01    64   0.476E+00    0.100E+00
RMM:   8    -0.240140475893E+02    0.87067E-02   -0.22505E-01    64   0.299E+00    0.409E-01
RMM:   9    -0.240072542450E+02    0.67933E-02   -0.70052E-03    64   0.696E-01    0.426E-01
RMM:  10    -0.240156144236E+02   -0.83602E-02   -0.22174E-02    64   0.952E-01    0.442E-01
RMM:  11    -0.240528395726E+02   -0.37225E-01   -0.55607E-02    64   0.148E+00    0.100E+00
RMM:  12    -0.240251717050E+02    0.27668E-01   -0.15391E-02    64   0.760E-01    0.662E-01
RMM:  13    -0.240007406038E+02    0.24431E-01   -0.64680E-02    64   0.155E+00    0.349E-01
RMM:  14    -0.239994511618E+02    0.12894E-02   -0.35861E-03    64   0.417E-01    0.254E-01
RMM:  15    -0.240001161093E+02   -0.66495E-03   -0.90063E-04    64   0.202E-01    0.281E-01
RMM:  16    -0.240029767323E+02   -0.28606E-02   -0.16882E-03    64   0.245E-01    0.370E-01
RMM:  17    -0.240001507706E+02    0.28260E-02   -0.10767E-03    64   0.206E-01    0.264E-01
RMM:  18    -0.240034417939E+02   -0.32910E-02   -0.11968E-02    64   0.671E-01    0.587E-01
RMM:  19    -0.239989797155E+02    0.44621E-02   -0.11187E-03    64   0.230E-01    0.200E-01
RMM:  20    -0.239989886492E+02   -0.89337E-05   -0.13755E-03    64   0.230E-01    0.101E-01
RMM:  21    -0.239989757828E+02    0.12866E-04   -0.19904E-04    64   0.961E-02    0.475E-02
RMM:  22    -0.239989606452E+02    0.15138E-04   -0.26662E-05    64   0.342E-02    0.239E-02
RMM:  23    -0.239989686587E+02   -0.80136E-05   -0.69898E-06    64   0.181E-02    0.175E-02
RMM:  24    -0.239989755082E+02   -0.68495E-05   -0.93414E-06    64   0.199E-02    0.184E-02
RMM:  25    -0.239989731404E+02    0.23679E-05   -0.26224E-06    52   0.111E-02    0.101E-02
RMM:  26    -0.239989776550E+02   -0.45147E-05   -0.67056E-06    64   0.161E-02    0.129E-02
RMM:  27    -0.239989779205E+02   -0.26550E-06   -0.70947E-06    64   0.167E-02
    7 T=   170. E= -.23889986E+02 F= -.23998978E+02 E0= -.24007219E+02  EK= 0.87850E-01 SP= 0.94E-02 SK= 0.12E-01
 bond charge predicted
 prediction of wavefunctions
       N       E                     dE             d eps       ncg     rms          rms(c)
DAV:   1    -0.239453285759E+02    0.53649E-01   -0.96018E-01    64   0.957E+00    0.438E-01
RMM:   2    -0.239688495450E+02   -0.23521E-01   -0.10847E-01    64   0.243E+00    0.784E-01
RMM:   3    -0.242432781113E+02   -0.27443E+00   -0.61484E-01    64   0.483E+00    0.244E+00
RMM:   4    -0.243589211981E+02   -0.11564E+00   -0.95758E-02    64   0.200E+00    0.295E+00
RMM:   5    -0.239887296648E+02    0.37019E+00   -0.65950E-01    64   0.491E+00    0.108E+00
RMM:   6    -0.240109459333E+02   -0.22216E-01   -0.17596E-02    64   0.984E-01    0.118E+00
RMM:   7    -0.240013520024E+02    0.95939E-02   -0.42449E-03    64   0.423E-01    0.108E+00
RMM:   8    -0.239715555053E+02    0.29796E-01   -0.20990E-02    64   0.882E-01    0.746E-01
RMM:   9    -0.239605291623E+02    0.11026E-01   -0.86097E-03    64   0.583E-01    0.546E-01
RMM:  10    -0.239522341804E+02    0.82950E-02   -0.90153E-03    64   0.592E-01    0.329E-01
RMM:  11    -0.239486493245E+02    0.35849E-02   -0.55849E-03    64   0.465E-01    0.195E-01
RMM:  12    -0.239479609002E+02    0.68842E-03   -0.96730E-04    64   0.202E-01    0.166E-01
RMM:  13    -0.239474969846E+02    0.46392E-03   -0.41842E-04    64   0.129E-01    0.152E-01
RMM:  14    -0.239468892188E+02    0.60777E-03   -0.47300E-04    64   0.135E-01    0.137E-01
RMM:  15    -0.239468907056E+02   -0.14868E-05   -0.16840E-05    64   0.348E-02    0.136E-01
RMM:  16    -0.239469436151E+02   -0.52910E-04   -0.32337E-06    56   0.134E-02    0.136E-01
RMM:  17    -0.239469870730E+02   -0.43458E-04   -0.38081E-06    56   0.119E-02    0.135E-01
RMM:  18    -0.239469282410E+02    0.58832E-04   -0.45275E-05    64   0.429E-02    0.128E-01
RMM:  19    -0.239464616507E+02    0.46659E-03   -0.26726E-04    64   0.955E-02    0.131E-01
RMM:  20    -0.239469959914E+02   -0.53434E-03   -0.35037E-04    64   0.109E-01    0.124E-01
RMM:  21    -0.239479909937E+02   -0.99500E-03   -0.10772E-03    64   0.190E-01    0.147E-01
RMM:  22    -0.239474412616E+02    0.54973E-03   -0.24169E-04    64   0.947E-02    0.132E-01
RMM:  23    -0.239468575709E+02    0.58369E-03   -0.42588E-04    64   0.120E-01    0.126E-01
RMM:  24    -0.239460868789E+02    0.77069E-03   -0.75941E-04    64   0.161E-01    0.139E-01
RMM:  25    -0.239464615245E+02   -0.37465E-03   -0.13175E-04    64   0.728E-02    0.126E-01
RMM:  26    -0.239478813381E+02   -0.14198E-02   -0.23410E-03    64   0.283E-01    0.147E-01
RMM:  27    -0.239499535070E+02   -0.20722E-02   -0.25645E-03    64   0.300E-01    0.226E-01
RMM:  28    -0.239508647788E+02   -0.91127E-03   -0.47783E-04    64   0.136E-01    0.260E-01
RMM:  29    -0.239503460418E+02    0.51874E-03   -0.46446E-05    64   0.471E-02    0.241E-01
RMM:  30    -0.239486827392E+02    0.16633E-02   -0.11706E-03    64   0.200E-01    0.176E-01
RMM:  31    -0.239474460283E+02    0.12367E-02   -0.14581E-03    64   0.227E-01    0.132E-01
RMM:  32    -0.239463146932E+02    0.11313E-02   -0.17986E-03    64   0.252E-01    0.131E-01
RMM:  33    -0.239451344303E+02    0.11803E-02   -0.15342E-03    64   0.234E-01    0.166E-01
RMM:  34    -0.239449177831E+02    0.21665E-03   -0.12040E-04    64   0.787E-02    0.167E-01
RMM:  35    -0.239449180175E+02   -0.23431E-06   -0.83325E-06    64   0.247E-02
    8 T=   149. E= -.23831987E+02 F= -.23944918E+02 E0= -.23952942E+02  EK= 0.77128E-01 SP= 0.14E-01 SK= 0.22E-01
 bond charge predicted
 prediction of wavefunctions
       N       E                     dE             d eps       ncg     rms          rms(c)
DAV:   1    -0.239013977740E+02    0.43520E-01   -0.15003E+00    64   0.116E+01    0.656E-01
RMM:   2    -0.267327051167E+02   -0.28313E+01   -0.91207E+00    64   0.189E+01    0.818E+00
RMM:   3    -0.297807130893E+02   -0.30480E+01   -0.44964E+00    64   0.139E+01    0.123E+01
RMM:   4    -0.321751293920E+02   -0.23944E+01   -0.16119E+00    64   0.831E+00    0.147E+01
RMM:   5    -0.309265035649E+02    0.12486E+01   -0.12929E-01    64   0.299E+00    0.134E+01
RMM:   6    -0.242755484178E+02    0.66510E+01   -0.15583E+01    64   0.242E+01    0.355E+00
RMM:   7    -0.247629640806E+02   -0.48742E+00   -0.24143E-01    64   0.407E+00    0.462E+00
RMM:   8    -0.256824914658E+02   -0.91953E+00   -0.51946E-01    64   0.434E+00    0.643E+00
RMM:   9    -0.251010709674E+02    0.58142E+00   -0.12138E-01    64   0.221E+00    0.531E+00
RMM:  10    -0.249815027367E+02    0.11957E+00   -0.19074E-02    64   0.886E-01    0.503E+00
RMM:  11    -0.249644423542E+02    0.17060E-01   -0.18607E-03    64   0.298E-01    0.499E+00
RMM:  12    -0.249662468878E+02   -0.18045E-02   -0.18137E-04    68   0.102E-01    0.499E+00
RMM:  13    -0.255301728765E+02   -0.56393E+00   -0.18979E-01    64   0.261E+00    0.606E+00
RMM:  14    -0.257169985398E+02   -0.18683E+00   -0.34681E-02    64   0.119E+00    0.642E+00
RMM:  15    -0.265466658453E+02   -0.82967E+00   -0.28611E-01    64   0.330E+00    0.774E+00
RMM:  16    -0.264100963392E+02    0.13657E+00   -0.52700E-03    64   0.625E-01    0.756E+00
RMM:  17    -0.267966972132E+02   -0.38660E+00   -0.49431E-02    64   0.138E+00    0.807E+00
RMM:  18    -0.261915983133E+02    0.60510E+00   -0.99023E-02    64   0.196E+00    0.714E+00
RMM:  19    -0.261486090609E+02    0.42989E-01   -0.45105E-03    64   0.477E-01    0.702E+00
RMM:  20    -0.250575030254E+02    0.10911E+01   -0.56488E-01    64   0.473E+00    0.492E+00
RMM:  21    -0.240900951266E+02    0.96741E+00   -0.14387E+00    64   0.728E+00    0.206E+00
RMM:  22    -0.239087649203E+02    0.18133E+00   -0.16334E+00    64   0.768E+00    0.126E+00
RMM:  23    -0.238971358542E+02    0.11629E-01   -0.34608E-02    64   0.153E+00    0.465E-01
RMM:  24    -0.242465107258E+02   -0.34937E+00   -0.88273E-01    64   0.554E+00    0.275E+00
RMM:  25    -0.242801447342E+02   -0.33634E-01   -0.37206E-02    64   0.131E+00    0.288E+00
RMM:  26    -0.239504165835E+02    0.32973E+00   -0.39672E-01    64   0.375E+00    0.126E+00
RMM:  27    -0.239731408113E+02   -0.22724E-01   -0.10233E+00    64   0.610E+00    0.136E+00
RMM:  28    -0.239391689911E+02    0.33972E-01   -0.14657E-02    64   0.106E+00    0.108E+00
RMM:  29    -0.239019816303E+02    0.37187E-01   -0.45412E-02    64   0.124E+00    0.574E-01
RMM:  30    -0.239096678413E+02   -0.76862E-02   -0.18199E-03    64   0.312E-01    0.767E-01
RMM:  31    -0.239181463890E+02   -0.84785E-02   -0.29644E-03    64   0.345E-01    0.905E-01
RMM:  32    -0.239270922528E+02   -0.89459E-02   -0.27693E-03    64   0.329E-01    0.102E+00
RMM:  33    -0.239852111764E+02   -0.58119E-01   -0.47730E-02    64   0.131E+00    0.154E+00
RMM:  34    -0.239930884559E+02   -0.78773E-02   -0.31126E-03    64   0.366E-01    0.160E+00
RMM:  35    -0.239949039054E+02   -0.18154E-02   -0.42573E-04    68   0.136E-01    0.160E+00
RMM:  36    -0.239475009506E+02    0.47403E-01   -0.21656E-02    64   0.908E-01    0.119E+00
RMM:  37    -0.239044927253E+02    0.43008E-01   -0.57529E-02    64   0.145E+00    0.624E-01
RMM:  38    -0.238995996074E+02    0.48931E-02   -0.66648E-03    64   0.530E-01    0.496E-01
RMM:  39    -0.239006526972E+02   -0.10531E-02   -0.21070E-04    64   0.127E-01    0.517E-01
RMM:  40    -0.238992520819E+02    0.14006E-02   -0.27903E-04    64   0.114E-01    0.471E-01
RMM:  41    -0.238981127657E+02    0.11393E-02   -0.24594E-04    64   0.102E-01    0.428E-01
RMM:  42    -0.238956898819E+02    0.24229E-02   -0.14252E-03    64   0.235E-01    0.328E-01
RMM:  43    -0.238933353510E+02    0.23545E-02   -0.67455E-03    64   0.507E-01    0.138E-01
RMM:  44    -0.238940518013E+02   -0.71645E-03   -0.43860E-03    64   0.421E-01    0.104E-01
RMM:  45    -0.238968077703E+02   -0.27560E-02   -0.57601E-03    64   0.472E-01    0.197E-01
RMM:  46    -0.238978527705E+02   -0.10450E-02   -0.92855E-04    64   0.207E-01    0.212E-01
RMM:  47    -0.238995508991E+02   -0.16981E-02   -0.13867E-03    64   0.231E-01    0.209E-01
RMM:  48    -0.238942384756E+02    0.53124E-02   -0.11251E-02    64   0.637E-01    0.132E-01
RMM:  49    -0.238945960418E+02   -0.35757E-03   -0.17492E-04    64   0.111E-01    0.144E-01
RMM:  50    -0.238949774893E+02   -0.38145E-03   -0.10072E-04    64   0.655E-02    0.164E-01
RMM:  51    -0.238952200013E+02   -0.24251E-03   -0.47409E-05    64   0.433E-02    0.176E-01
RMM:  52    -0.238955051868E+02   -0.28519E-03   -0.56237E-05    64   0.448E-02    0.185E-01
RMM:  53    -0.238955843360E+02   -0.79149E-04   -0.75880E-06    64   0.181E-02    0.189E-01
RMM:  54    -0.238956172316E+02   -0.32896E-04   -0.13666E-06    52   0.801E-03    0.190E-01
RMM:  55    -0.238953905344E+02    0.22670E-03   -0.26670E-05    64   0.315E-02    0.182E-01
RMM:  56    -0.238947268084E+02    0.66373E-03   -0.30715E-04    64   0.106E-01    0.153E-01
RMM:  57    -0.238943444871E+02    0.38232E-03   -0.18232E-04    64   0.819E-02    0.131E-01
RMM:  58    -0.238936896020E+02    0.65489E-03   -0.89754E-04    64   0.179E-01    0.712E-02
RMM:  59    -0.238935506817E+02    0.13892E-03   -0.25136E-04    64   0.975E-02    0.427E-02
RMM:  60    -0.238934999487E+02    0.50733E-04   -0.14911E-04    64   0.758E-02
    9 T=    95. E= -.23794754E+02 F= -.23893500E+02 E0= -.23897503E+02  EK= 0.49053E-01 SP= 0.20E-01 SK= 0.30E-01
 bond charge predicted
 prediction of wavefunctions
       N       E                     dE             d eps       ncg     rms          rms(c)
DAV:   1    -0.239917439517E+02   -0.98193E-01   -0.18843E+00    64   0.137E+01    0.701E-01
RMM:   2    -0.241375740394E+02   -0.14583E+00   -0.53983E-01    64   0.495E+00    0.207E+00
RMM:   3    -0.239885979864E+02    0.14898E+00   -0.39450E-01    64   0.395E+00    0.362E-01
RMM:   4    -0.240083111197E+02   -0.19713E-01   -0.41849E-02    64   0.126E+00    0.737E-01
RMM:   5    -0.240154076884E+02   -0.70966E-02   -0.25665E-01    64   0.313E+00    0.690E-01
RMM:   6    -0.239964640713E+02    0.18944E-01   -0.11396E-02    64   0.728E-01    0.355E-01
RMM:   7    -0.239942818194E+02    0.21823E-02   -0.23764E-03    64   0.279E-01    0.308E-01
RMM:   8    -0.239910156746E+02    0.32661E-02   -0.81370E-03    64   0.556E-01    0.112E-01
RMM:   9    -0.239909372662E+02    0.78408E-04   -0.16613E-03    64   0.276E-01    0.373E-02
RMM:  10    -0.239910358758E+02   -0.98610E-04   -0.17722E-04    64   0.102E-01    0.290E-02
RMM:  11    -0.239912518549E+02   -0.21598E-03   -0.32841E-04    64   0.124E-01    0.725E-02
RMM:  12    -0.239911055690E+02    0.14629E-03   -0.10155E-04    64   0.638E-02    0.434E-02
RMM:  13    -0.239910684598E+02    0.37109E-04   -0.45210E-05    64   0.421E-02    0.291E-02
RMM:  14    -0.239910489150E+02    0.19545E-04   -0.66151E-05    64   0.527E-02    0.830E-03
RMM:  15    -0.239910498481E+02   -0.93312E-06   -0.36049E-05    64   0.391E-02    0.597E-03
RMM:  16    -0.239910511797E+02   -0.13316E-05   -0.11177E-06    48   0.949E-03    0.567E-03
RMM:  17    -0.239910519693E+02   -0.78954E-06   -0.14104E-06    48   0.825E-03
   10 T=   165. E= -.23837855E+02 F= -.23991052E+02 E0= -.23995018E+02  EK= 0.85430E-01 SP= 0.26E-01 SK= 0.42E-01
 bond charge predicted
 prediction of wavefunctions
 wavefunctions rotated
