<?xml version="1.0" encoding="ISO-8859-1"?>
<modeling>
 <generator>
  <i name="program" type="string">vasp </i>
  <i name="version" type="string">5.4.4.18Apr17-6-g9f103f2a35  </i>
  <i name="subversion" type="string">(build Jul 12 2018 13:43:46) complex            parallel </i>
  <i name="platform" type="string">LinuxGNU </i>
  <i name="date" type="string">2019 06 22 </i>
  <i name="time" type="string">02:17:35 </i>
 </generator>
 <incar>
  <i type="int" name="ISTART">     0</i>
  <i type="string" name="PREC">a</i>
  <i type="string" name="ALGO">fast</i>
  <i type="int" name="MAXMIX">    50</i>
  <i type="int" name="ICHARG">     2</i>
  <i type="int" name="IBRION">     0</i>
  <i name="EDIFF">      0.00000100</i>
  <i type="int" name="NSW">    10</i>
  <i type="int" name="ISIF">     2</i>
  <i type="int" name="ISYM">     0</i>
  <i type="int" name="NBLOCK">     1</i>
  <i type="int" name="KBLOCK">   100</i>
  <i name="ENCUT">    400.00000000</i>
  <i name="POTIM">      2.00000000</i>
  <i name="TEBEG">     50.00000000</i>
  <i name="TEEND">     50.00000000</i>
  <i name="SMASS">      0.00000000</i>
  <i type="logical" name="LREAL"> T  </i>
  <i type="int" name="ISMEAR">     1</i>
  <i name="SIGMA">      0.20000000</i>
  <i name="KSPACING">      0.50000000</i>
  <i type="logical" name="KGAMMA"> F  </i>
  <i name="PSTRESS">      0.00000000</i>
  <i type="logical" name="LWAVE"> F  </i>
  <i type="logical" name="LCHARG"> F  </i>
  <v type="int" name="KPOINT_BSE">    -1     0     0     0</v>
 </incar>
 <structure name="primitive_cell" >
  <crystal>
   <varray name="basis" >
    <v>       9.71982727       0.00000000       0.00000000 </v>
    <v>       0.27715855      10.03307619       0.00000000 </v>
    <v>      -0.10064359       0.17608811       9.70649084 </v>
   </varray>
   <i name="volume">    946.57472985 </i>
   <varray name="rec_basis" >
    <v>       0.10288249      -0.00284208       0.00111832 </v>
    <v>       0.00000000       0.09967033      -0.00180815 </v>
    <v>       0.00000000       0.00000000       0.10302384 </v>
   </varray>
  </crystal>
  <varray name="positions" >
   <v>      -0.46200111       0.40680401       0.36058686 </v>
   <v>      -0.49647638       0.46720043       0.44547683 </v>
   <v>      -0.47181415       0.41640570      -0.46081961 </v>
   <v>       0.39470903       0.48046708       0.43818464 </v>
   <v>      -0.44741118      -0.43498806       0.44280394 </v>
  </varray>
 </structure>
 <varray name="primitive_index" >
  <v type="int" >        1 </v>
  <v type="int" >        5 </v>
  <v type="int" >        4 </v>
  <v type="int" >        2 </v>
  <v type="int" >        3 </v>
 </varray>
 <kpoints>
  <generation param="Monkhorst-Pack">
   <v type="int" name="divisions">       2        2        2 </v>
   <v name="usershift">      0.00000000       0.00000000       0.00000000 </v>
   <v name="genvec1">      0.50000000       0.00000000       0.00000000 </v>
   <v name="genvec2">      0.00000000       0.50000000       0.00000000 </v>
   <v name="genvec3">      0.00000000       0.00000000       0.50000000 </v>
   <v name="shift">      0.50000000       0.50000000       0.50000000 </v>
  </generation>
  <varray name="kpointlist" >
   <v>       0.25000000       0.25000000       0.25000000 </v>
   <v>      -0.25000000       0.25000000       0.25000000 </v>
   <v>       0.25000000      -0.25000000       0.25000000 </v>
   <v>      -0.25000000      -0.25000000       0.25000000 </v>
  </varray>
  <varray name="weights" >
   <v>       0.25000000 </v>
   <v>       0.25000000 </v>
   <v>       0.25000000 </v>
   <v>       0.25000000 </v>
  </varray>
 </kpoints>
 <parameters>
  <separator name="general" >
   <i type="string" name="SYSTEM">unknown system</i>
   <i type="logical" name="LCOMPAT"> F  </i>
  </separator>
  <separator name="electronic" >
   <i type="string" name="PREC">a</i>
   <i name="ENMAX">    400.00000000</i>
   <i name="ENAUG">    644.87300000</i>
   <i name="EDIFF">      0.00000100</i>
   <i type="int" name="IALGO">    68</i>
   <i type="int" name="IWAVPR">    12</i>
   <i type="int" name="NBANDS">     8</i>
   <i name="NELECT">      8.00000000</i>
   <i type="int" name="TURBO">     0</i>
   <i type="int" name="IRESTART">     0</i>
   <i type="int" name="NREBOOT">     0</i>
   <i type="int" name="NMIN">     0</i>
   <i name="EREF">      0.00000000</i>
   <separator name="electronic smearing" >
    <i type="int" name="ISMEAR">     1</i>
    <i name="SIGMA">      0.20000000</i>
    <i name="KSPACING">      0.50000000</i>
    <i type="logical" name="KGAMMA"> F  </i>
   </separator>
   <separator name="electronic projectors" >
    <i type="logical" name="LREAL"> T  </i>
    <v name="ROPT">      0.00000000      0.00000000</v>
    <i type="int" name="LMAXPAW">  -100</i>
    <i type="int" name="LMAXMIX">     2</i>
    <i type="logical" name="NLSPLINE"> F  </i>
   </separator>
   <separator name="electronic startup" >
    <i type="int" name="ISTART">     0</i>
    <i type="int" name="ICHARG">     2</i>
    <i type="int" name="INIWAV">     1</i>
   </separator>
   <separator name="electronic spin" >
    <i type="int" name="ISPIN">     1</i>
    <i type="logical" name="LNONCOLLINEAR"> F  </i>
    <v name="MAGMOM">      1.00000000      1.00000000      1.00000000      1.00000000      1.00000000</v>
    <i name="NUPDOWN">     -1.00000000</i>
    <i type="logical" name="LSORBIT"> F  </i>
    <v name="SAXIS">      0.00000000      0.00000000      1.00000000</v>
    <i type="logical" name="LSPIRAL"> F  </i>
    <v name="QSPIRAL">      0.00000000      0.00000000      0.00000000</v>
    <i type="logical" name="LZEROZ"> F  </i>
   </separator>
   <separator name="electronic exchange-correlation" >
    <i type="logical" name="LASPH"> F  </i>
    <i type="logical" name="LMETAGGA"> F  </i>
   </separator>
   <separator name="electronic convergence" >
    <i type="int" name="NELM">    60</i>
    <i type="int" name="NELMDL">    -5</i>
    <i type="int" name="NELMIN">     2</i>
    <i name="ENINI">    400.00000000</i>
    <separator name="electronic convergence detail" >
     <i type="logical" name="LDIAG"> T  </i>
     <i type="logical" name="LSUBROT"> F  </i>
     <i name="WEIMIN">      0.00100000</i>
     <i name="EBREAK">      0.00000003</i>
     <i name="DEPER">      0.30000000</i>
     <i type="int" name="NRMM">     4</i>
     <i name="TIME">      0.40000000</i>
    </separator>
   </separator>
   <separator name="electronic mixer" >
    <i name="AMIX">      0.40000000</i>
    <i name="BMIX">      1.00000000</i>
    <i name="AMIN">      0.10000000</i>
    <i name="AMIX_MAG">      1.60000000</i>
    <i name="BMIX_MAG">      1.00000000</i>
    <separator name="electronic mixer details" >
     <i type="int" name="IMIX">     4</i>
     <i type="logical" name="MIXFIRST"> F  </i>
     <i type="int" name="MAXMIX">    50</i>
     <i name="WC">    100.00000000</i>
     <i type="int" name="INIMIX">     1</i>
     <i type="int" name="MIXPRE">     1</i>
     <i type="int" name="MREMOVE">     5</i>
    </separator>
   </separator>
   <separator name="electronic dipolcorrection" >
    <i type="logical" name="LDIPOL"> F  </i>
    <i type="logical" name="LMONO"> F  </i>
    <i type="int" name="IDIPOL">     0</i>
    <i name="EPSILON">      1.00000000</i>
    <v name="DIPOL">   -100.00000000   -100.00000000   -100.00000000</v>
    <i name="EFIELD">      0.00000000</i>
   </separator>
  </separator>
  <separator name="grids" >
   <i type="int" name="NGX">    64</i>
   <i type="int" name="NGY">    70</i>
   <i type="int" name="NGZ">    64</i>
   <i type="int" name="NGXF">   128</i>
   <i type="int" name="NGYF">   140</i>
   <i type="int" name="NGZF">   128</i>
   <i type="logical" name="ADDGRID"> F  </i>
  </separator>
  <separator name="ionic" >
   <i type="int" name="NSW">    10</i>
   <i type="int" name="IBRION">     0</i>
   <i type="int" name="MDALGO">     0</i>
   <i type="int" name="ISIF">     2</i>
   <i name="PSTRESS">      0.00000000</i>
   <i name="EDIFFG">      0.00001000</i>
   <i type="int" name="NFREE">     0</i>
   <i name="POTIM">      2.00000000</i>
   <i name="SMASS">      0.00171207</i>
   <i name="SCALEE">      1.00000000</i>
  </separator>
  <separator name="ionic md" >
   <i name="TEBEG">     50.00000000</i>
   <i name="TEEND">     50.00000000</i>
   <i type="int" name="NBLOCK">     1</i>
   <i type="int" name="KBLOCK">     1</i>
   <i type="int" name="NPACO">   256</i>
   <i name="APACO">     16.00000000</i>
  </separator>
  <separator name="symmetry" >
   <i type="int" name="ISYM">     0</i>
   <i name="SYMPREC">      0.00001000</i>
  </separator>
  <separator name="dos" >
   <i type="int" name="LORBIT">     0</i>
   <v name="RWIGS">     -1.00000000     -1.00000000</v>
   <i type="int" name="NEDOS">   301</i>
   <i name="EMIN">     10.00000000</i>
   <i name="EMAX">    -10.00000000</i>
   <i name="EFERMI">      0.00000000</i>
  </separator>
  <separator name="writing" >
   <i type="int" name="NWRITE">     2</i>
   <i type="logical" name="LWAVE"> F  </i>
   <i type="logical" name="LDOWNSAMPLE"> F  </i>
   <i type="logical" name="LCHARG"> F  </i>
   <i type="logical" name="LPARD"> F  </i>
   <i type="logical" name="LVTOT"> F  </i>
   <i type="logical" name="LVHAR"> F  </i>
   <i type="logical" name="LELF"> F  </i>
   <i type="logical" name="LOPTICS"> F  </i>
   <v name="STM">      0.00000000      0.00000000      0.00000000      0.00000000      0.00000000      0.00000000      0.00000000</v>
  </separator>
  <separator name="performance" >
   <i type="int" name="NPAR">     1</i>
   <i type="int" name="NSIM">     4</i>
   <i type="int" name="NBLK">    -1</i>
   <i type="logical" name="LPLANE"> T  </i>
   <i type="logical" name="LSCALAPACK"> T  </i>
   <i type="logical" name="LSCAAWARE"> F  </i>
   <i type="logical" name="LSCALU"> F  </i>
   <i type="logical" name="LASYNC"> F  </i>
   <i type="logical" name="LORBITALREAL"> F  </i>
  </separator>
  <separator name="miscellaneous" >
   <i type="int" name="IDIOT">     3</i>
   <i type="int" name="ISPECIAL">     0</i>
   <i type="logical" name="LMUSIC"> F  </i>
   <v name="POMASS">      1.00000000     12.01100000</v>
   <v name="DARWINR">      0.00000000      0.00000000</v>
   <v name="DARWINV">      1.00000000      1.00000000</v>
   <i type="logical" name="LCORR"> T  </i>
  </separator>
  <i type="logical" name="GGA_COMPAT"> T  </i>
  <i type="logical" name="LBERRY"> F  </i>
  <i type="int" name="ICORELEVEL">     0</i>
  <i type="logical" name="LDAU"> F  </i>
  <i type="int" name="I_CONSTRAINED_M">     0</i>
  <separator name="electronic exchange-correlation" >
   <i type="string" name="GGA">--</i>
   <i type="int" name="VOSKOWN">     0</i>
   <i type="logical" name="LHFCALC"> F  </i>
   <i type="string" name="PRECFOCK"></i>
   <i type="logical" name="LSYMGRAD"> F  </i>
   <i type="logical" name="LHFONE"> F  </i>
   <i type="logical" name="LRHFCALC"> F  </i>
   <i type="logical" name="LTHOMAS"> F  </i>
   <i type="logical" name="LMODELHF"> F  </i>
   <i name="ENCUT4O">     -1.00000000</i>
   <i type="int" name="EXXOEP">     0</i>
   <i type="int" name="FOURORBIT">     0</i>
   <i name="AEXX">      0.00000000</i>
   <i name="HFALPHA">      0.00000000</i>
   <i name="MCALPHA">      0.00000000</i>
   <i name="ALDAX">      1.00000000</i>
   <i name="AGGAX">      1.00000000</i>
   <i name="ALDAC">      1.00000000</i>
   <i name="AGGAC">      1.00000000</i>
   <i type="int" name="NKREDX">     1</i>
   <i type="int" name="NKREDY">     1</i>
   <i type="int" name="NKREDZ">     1</i>
   <i type="logical" name="SHIFTRED"> F  </i>
   <i type="logical" name="ODDONLY"> F  </i>
   <i type="logical" name="EVENONLY"> F  </i>
   <i type="int" name="LMAXFOCK">     0</i>
   <i type="int" name="NMAXFOCKAE">     0</i>
   <i type="logical" name="LFOCKAEDFT"> F  </i>
   <i name="HFSCREEN">      0.00000000</i>
   <i name="HFSCREENC">      0.00000000</i>
   <i type="int" name="NBANDSGWLOW">     0</i>
  </separator>
  <separator name="vdW DFT" >
   <i type="logical" name="LUSE_VDW"> F  </i>
   <i name="Zab_VDW">     -0.84910000</i>
   <i name="PARAM1">      0.12340000</i>
   <i name="PARAM2">      1.00000000</i>
   <i name="PARAM3">      0.00000000</i>
  </separator>
  <separator name="model GW" >
   <i type="int" name="MODEL_GW">     0</i>
   <i name="MODEL_EPS0">    113.58896758</i>
   <i name="MODEL_ALPHA">      1.00000000</i>
  </separator>
  <separator name="linear response parameters" >
   <i type="logical" name="LEPSILON"> F  </i>
   <i type="logical" name="LRPA"> F  </i>
   <i type="logical" name="LNABLA"> F  </i>
   <i type="logical" name="LVEL"> F  </i>
   <i type="int" name="KINTER">     0</i>
   <i name="CSHIFT">      0.10000000</i>
   <i name="OMEGAMAX">     -1.00000000</i>
   <i name="DEG_THRESHOLD">      0.00200000</i>
   <i name="RTIME">     -0.10000000</i>
   <i name="WPLASMAI">      0.00000000</i>
   <v name="DFIELD">      0.00000000      0.00000000      0.00000000</v>
   <v name="WPLASMA">      0.00000000      0.00000000      0.00000000      0.00000000      0.00000000      0.00000000      0.00000000      0.00000000      0.00000000</v>
  </separator>
  <separator name="orbital magnetization" >
   <i type="logical" name="NUCIND"> F  </i>
   <v name="MAGPOS">      0.00000000      0.00000000      0.00000000</v>
   <i type="logical" name="LNICSALL"> T  </i>
   <i type="logical" name="ORBITALMAG"> F  </i>
   <i type="logical" name="LMAGBLOCH"> F  </i>
   <i type="logical" name="LCHIMAG"> F  </i>
   <i type="logical" name="LGAUGE"> T  </i>
   <i type="int" name="MAGATOM">     0</i>
   <v name="MAGDIPOL">      0.00000000      0.00000000      0.00000000</v>
   <v name="AVECCONST">      0.00000000      0.00000000      0.00000000</v>
  </separator>
  <separator name="response functions" >
   <i type="logical" name="LADDER"> F  </i>
   <i type="logical" name="LRPAFORCE"> F  </i>
   <i type="logical" name="LFXC"> F  </i>
   <i type="logical" name="LHARTREE"> T  </i>
   <i type="int" name="IBSE">     0</i>
   <v type="int" name="KPOINT">    -1     0     0     0</v>
   <i type="logical" name="LTCTE"> F  </i>
   <i type="logical" name="LTETE"> F  </i>
   <i type="logical" name="LTRIPLET"> F  </i>
   <i type="logical" name="LFXCEPS"> F  </i>
   <i type="logical" name="LFXHEG"> F  </i>
   <i type="int" name="NATURALO">     2</i>
   <i type="logical" name="L2ORDER"> F  </i>
   <i type="logical" name="LMP2LT"> F  </i>
   <i type="logical" name="LUSEW"> F  </i>
   <i name="ENCUTGW">     -2.00000000</i>
   <i name="ENCUTGWSOFT">     -2.00000000</i>
   <i name="ENCUTLF">     -1.00000000</i>
   <i type="int" name="LMAXMP2">    -1</i>
   <i name="SCISSOR">      0.00000000</i>
   <i type="int" name="NOMEGA">     0</i>
   <i type="int" name="NOMEGAR">     0</i>
   <i type="int" name="NBANDSGW">    -1</i>
   <i type="int" name="NBANDSO">    -1</i>
   <i type="int" name="NBANDSV">    -1</i>
   <i type="int" name="NELM">     1</i>
   <i type="int" name="NELMHF">     1</i>
   <i type="int" name="DIM">     3</i>
   <i type="int" name="ANTIRES">     0</i>
   <i name="OMEGAMAX">    -30.00000000</i>
   <i name="OMEGAMIN">    -30.00000000</i>
   <i name="OMEGATL">   -200.00000000</i>
   <i type="int" name="OMEGAGRID">   140</i>
   <i name="CSHIFT">     -0.10000000</i>
   <i type="logical" name="SELFENERGY"> F  </i>
   <i type="logical" name="LSPECTRAL"> F  </i>
   <i type="logical" name="LSPECTRALGW"> F  </i>
   <i type="logical" name="LSINGLES"> F  </i>
   <i type="logical" name="LFERMIGW"> F  </i>
   <i type="logical" name="ODDONLYGW"> F  </i>
   <i type="logical" name="EVENONLYGW"> F  </i>
   <i type="int" name="NKREDLFX">     1</i>
   <i type="int" name="NKREDLFY">     1</i>
   <i type="int" name="NKREDLFZ">     1</i>
   <i type="int" name="MAXMEM">  2800</i>
   <i type="int" name="TELESCOPE">     0</i>
   <i type="int" name="TAUPAR">     1</i>
   <i type="int" name="OMEGAPAR">    -1</i>
   <i name="LAMBDA">      1.00000000</i>
  </separator>
  <separator name="External order field" >
   <i name="OFIELD_KAPPA">      0.00000000</i>
   <v name="OFIELD_K">      0.00000000      0.00000000      0.00000000</v>
   <i name="OFIELD_Q6_NEAR">      0.00000000</i>
   <i name="OFIELD_Q6_FAR">      0.00000000</i>
   <i name="OFIELD_A">      0.00000000</i>
  </separator>
 </parameters>
 <atominfo>
  <atoms>       5 </atoms>
  <types>       2 </types>
  <array name="atoms" >
   <dimension dim="1">ion</dimension>
   <field type="string">element</field>
   <field type="int">atomtype</field>
   <set>
    <rc><c>H </c><c>   1</c></rc>
    <rc><c>H </c><c>   1</c></rc>
    <rc><c>H </c><c>   1</c></rc>
    <rc><c>H </c><c>   1</c></rc>
    <rc><c>C </c><c>   2</c></rc>
   </set>
  </array>
  <array name="atomtypes" >
   <dimension dim="1">type</dimension>
   <field type="int">atomspertype</field>
   <field type="string">element</field>
   <field>mass</field>
   <field>valence</field>
   <field type="string">pseudopotential</field>
   <set>
    <rc><c>   4</c><c>H </c><c>      1.00000000</c><c>      1.00000000</c><c>  PAW_PBE H 15Jun2001                   </c></rc>
    <rc><c>   1</c><c>C </c><c>     12.01100000</c><c>      4.00000000</c><c>  PAW_PBE C 08Apr2002                   </c></rc>
   </set>
  </array>
 </atominfo>
 <structure name="initialpos" >
  <crystal>
   <varray name="basis" >
    <v>       9.71982727       0.00000000       0.00000000 </v>
    <v>       0.27715855      10.03307619       0.00000000 </v>
    <v>      -0.10064359       0.17608811       9.70649084 </v>
   </varray>
   <i name="volume">    946.57472985 </i>
   <varray name="rec_basis" >
    <v>       0.10288249      -0.00284208       0.00111832 </v>
    <v>       0.00000000       0.09967033      -0.00180815 </v>
    <v>       0.00000000       0.00000000       0.10302384 </v>
   </varray>
  </crystal>
  <varray name="positions" >
   <v>       0.53799889       0.40680401       0.36058686 </v>
   <v>       0.39470903       0.48046708       0.43818464 </v>
   <v>       0.55258882       0.56501194       0.44280394 </v>
   <v>       0.52818585       0.41640570       0.53918039 </v>
   <v>       0.50352362       0.46720043       0.44547683 </v>
  </varray>
  <varray name="velocities" >
   <v>       0.00014928      -0.00215593       0.00010636 </v>
   <v>      -0.00096707       0.00175211      -0.00099863 </v>
   <v>      -0.00060152       0.00161316      -0.00046984 </v>
   <v>      -0.00216419       0.00041295      -0.00116218 </v>
   <v>       0.00029835      -0.00013507       0.00021016 </v>
  </varray>
 </structure>
 <calculation>
  <scstep>
   <time name="dav">    2.59    2.60</time>
   <time name="total">    4.19    4.20</time>
   <energy>
    <i name="alphaZ">      0.25592358 </i>
    <i name="ewald">    131.28921741 </i>
    <i name="hartreedc">   -244.21958835 </i>
    <i name="XCdc">     22.12491216 </i>
    <i name="pawpsdc">    117.05815612 </i>
    <i name="pawaedc">   -117.66307307 </i>
    <i name="eentropy">      0.00289895 </i>
    <i name="bandstr">    -91.44432323 </i>
    <i name="atom">    197.04175453 </i>
    <i name="e_fr_energy">     14.44587810 </i>
    <i name="e_wo_entrp">     14.44297915 </i>
    <i name="e_0_energy">     14.44491178 </i>
   </energy>
  </scstep>
  <scstep>
   <time name="dav">    1.91    1.91</time>
   <time name="total">    1.91    1.91</time>
   <energy>
    <i name="e_fr_energy">    -23.42032588 </i>
    <i name="e_wo_entrp">    -23.42322484 </i>
    <i name="e_0_energy">    -23.42129220 </i>
   </energy>
  </scstep>
  <scstep>
   <time name="dav">    1.74    1.74</time>
   <time name="total">    1.74    1.74</time>
   <energy>
    <i name="e_fr_energy">    -27.64356069 </i>
    <i name="e_wo_entrp">    -27.67392863 </i>
    <i name="e_0_energy">    -27.65368334 </i>
   </energy>
  </scstep>
  <scstep>
   <time name="dav">    3.12    3.13</time>
   <time name="total">    3.12    3.13</time>
   <energy>
    <i name="e_fr_energy">    -27.80683459 </i>
    <i name="e_wo_entrp">    -27.83833216 </i>
    <i name="e_0_energy">    -27.81733378 </i>
   </energy>
  </scstep>
  <scstep>
   <time name="dav">    2.40    2.40</time>
   <time name="total">    2.59    2.60</time>
   <energy>
    <i name="e_fr_energy">    -27.80688013 </i>
    <i name="e_wo_entrp">    -27.83837783 </i>
    <i name="e_0_energy">    -27.81737936 </i>
   </energy>
  </scstep>
  <scstep>
   <time name="diag">    0.39    0.39</time>
   <time name="diis">    1.24    1.24</time>
   <time name="orth">    0.01    0.01</time>
   <time name="total">    3.41    3.41</time>
   <energy>
    <i name="e_fr_energy">    -24.64189139 </i>
    <i name="e_wo_entrp">    -24.68042083 </i>
    <i name="e_0_energy">    -24.65473453 </i>
   </energy>
  </scstep>
  <scstep>
   <time name="diag">    0.37    0.38</time>
   <time name="diis">    1.29    1.29</time>
   <time name="orth">    0.01    0.01</time>
   <time name="total">    3.46    3.47</time>
   <energy>
    <i name="e_fr_energy">    -24.11005728 </i>
    <i name="e_wo_entrp">    -24.14866455 </i>
    <i name="e_0_energy">    -24.12292637 </i>
   </energy>
  </scstep>
  <scstep>
   <time name="diag">    0.36    0.36</time>
   <time name="diis">    1.28    1.28</time>
   <time name="orth">    0.01    0.01</time>
   <time name="total">    3.42    3.43</time>
   <energy>
    <i name="e_fr_energy">    -23.99493233 </i>
    <i name="e_wo_entrp">    -24.03496174 </i>
    <i name="e_0_energy">    -24.00827547 </i>
   </energy>
  </scstep>
  <scstep>
   <time name="diag">    0.38    0.39</time>
   <time name="diis">    1.22    1.22</time>
   <time name="orth">    0.01    0.01</time>
   <time name="total">    3.39    3.39</time>
   <energy>
    <i name="e_fr_energy">    -23.94670823 </i>
    <i name="e_wo_entrp">    -23.98267496 </i>
    <i name="e_0_energy">    -23.95869714 </i>
   </energy>
  </scstep>
  <scstep>
   <time name="diag">    0.37    0.37</time>
   <time name="diis">    1.30    1.30</time>
   <time name="orth">    0.01    0.01</time>
   <time name="total">    3.48    3.49</time>
   <energy>
    <i name="e_fr_energy">    -23.94411116 </i>
    <i name="e_wo_entrp">    -23.97920076 </i>
    <i name="e_0_energy">    -23.95580770 </i>
   </energy>
  </scstep>
  <scstep>
   <time name="diag">    0.37    0.37</time>
   <time name="diis">    1.28    1.29</time>
   <time name="orth">    0.01    0.01</time>
   <time name="total">    3.45    3.46</time>
   <energy>
    <i name="e_fr_energy">    -23.94396350 </i>
    <i name="e_wo_entrp">    -23.97916655 </i>
    <i name="e_0_energy">    -23.95569785 </i>
   </energy>
  </scstep>
  <scstep>
   <time name="diag">    0.37    0.37</time>
   <time name="diis">    1.27    1.28</time>
   <time name="orth">    0.01    0.01</time>
   <time name="total">    3.40    3.41</time>
   <energy>
    <i name="e_fr_energy">    -23.94073824 </i>
    <i name="e_wo_entrp">    -23.97606122 </i>
    <i name="e_0_energy">    -23.95251257 </i>
   </energy>
  </scstep>
  <scstep>
   <time name="diag">    0.36    0.36</time>
   <time name="diis">    1.24    1.24</time>
   <time name="orth">    0.01    0.01</time>
   <time name="total">    3.33    3.34</time>
   <energy>
    <i name="e_fr_energy">    -23.94029082 </i>
    <i name="e_wo_entrp">    -23.97541518 </i>
    <i name="e_0_energy">    -23.95199894 </i>
   </energy>
  </scstep>
  <scstep>
   <time name="diag">    0.39    0.39</time>
   <time name="diis">    1.20    1.20</time>
   <time name="orth">    0.01    0.01</time>
   <time name="total">    3.27    3.27</time>
   <energy>
    <i name="e_fr_energy">    -23.94379745 </i>
    <i name="e_wo_entrp">    -23.97887520 </i>
    <i name="e_0_energy">    -23.95549004 </i>
   </energy>
  </scstep>
  <scstep>
   <time name="diag">    0.39    0.39</time>
   <time name="diis">    1.26    1.27</time>
   <time name="orth">    0.01    0.01</time>
   <time name="total">    3.31    3.32</time>
   <energy>
    <i name="e_fr_energy">    -23.94890300 </i>
    <i name="e_wo_entrp">    -23.98420768 </i>
    <i name="e_0_energy">    -23.96067122 </i>
   </energy>
  </scstep>
  <scstep>
   <time name="diag">    0.39    0.39</time>
   <time name="diis">    1.34    1.35</time>
   <time name="orth">    0.01    0.01</time>
   <time name="total">    3.34    3.35</time>
   <energy>
    <i name="e_fr_energy">    -23.95049517 </i>
    <i name="e_wo_entrp">    -23.98571221 </i>
    <i name="e_0_energy">    -23.96223419 </i>
   </energy>
  </scstep>
  <scstep>
   <time name="diag">    0.38    0.38</time>
   <time name="diis">    1.33    1.33</time>
   <time name="orth">    0.01    0.01</time>
   <time name="total">    3.30    3.30</time>
   <energy>
    <i name="e_fr_energy">    -23.95081729 </i>
    <i name="e_wo_entrp">    -23.98589585 </i>
    <i name="e_0_energy">    -23.96251015 </i>
   </energy>
  </scstep>
  <scstep>
   <time name="diag">    0.37    0.37</time>
   <time name="diis">    1.31    1.31</time>
   <time name="orth">    0.01    0.01</time>
   <time name="total">    3.30    3.31</time>
   <energy>
    <i name="e_fr_energy">    -23.95137852 </i>
    <i name="e_wo_entrp">    -23.98649025 </i>
    <i name="e_0_energy">    -23.96308243 </i>
   </energy>
  </scstep>
  <scstep>
   <time name="diag">    0.38    0.38</time>
   <time name="diis">    1.26    1.26</time>
   <time name="orth">    0.01    0.01</time>
   <time name="total">    3.27    3.28</time>
   <energy>
    <i name="e_fr_energy">    -23.95152742 </i>
    <i name="e_wo_entrp">    -23.98665179 </i>
    <i name="e_0_energy">    -23.96323554 </i>
   </energy>
  </scstep>
  <scstep>
   <time name="diag">    0.38    0.38</time>
   <time name="diis">    1.02    1.03</time>
   <time name="orth">    0.01    0.01</time>
   <time name="total">    3.05    3.05</time>
   <energy>
    <i name="e_fr_energy">    -23.95155242 </i>
    <i name="e_wo_entrp">    -23.98667551 </i>
    <i name="e_0_energy">    -23.96326012 </i>
   </energy>
  </scstep>
  <scstep>
   <time name="diag">    0.36    0.36</time>
   <time name="diis">    1.31    1.31</time>
   <time name="orth">    0.01    0.01</time>
   <time name="total">    3.37    3.37</time>
   <energy>
    <i name="e_fr_energy">    -23.95157261 </i>
    <i name="e_wo_entrp">    -23.98668807 </i>
    <i name="e_0_energy">    -23.96327776 </i>
   </energy>
  </scstep>
  <scstep>
   <time name="diag">    0.36    0.36</time>
   <time name="diis">    0.99    0.99</time>
   <time name="orth">    0.01    0.01</time>
   <time name="total">    3.07    3.08</time>
   <energy>
    <i name="e_fr_energy">    -23.95157477 </i>
    <i name="e_wo_entrp">    -23.98668833 </i>
    <i name="e_0_energy">    -23.96327929 </i>
   </energy>
  </scstep>
  <scstep>
   <time name="diag">    0.38    0.38</time>
   <time name="diis">    0.96    0.97</time>
   <time name="orth">    0.01    0.01</time>
   <time name="total">    3.11    3.11</time>
   <energy>
    <i name="e_fr_energy">    -23.95157632 </i>
    <i name="e_wo_entrp">    -23.98669146 </i>
    <i name="e_0_energy">    -23.96328137 </i>
   </energy>
  </scstep>
  <scstep>
   <time name="diag">    0.39    0.39</time>
   <time name="diis">    0.88    0.89</time>
   <time name="orth">    0.01    0.01</time>
   <time name="total">    2.84    2.85</time>
   <energy>
    <i name="alphaZ">      0.25592358 </i>
    <i name="ewald">    131.28921741 </i>
    <i name="hartreedc">   -286.53081291 </i>
    <i name="XCdc">     24.96901988 </i>
    <i name="pawpsdc">    510.00978941 </i>
    <i name="pawaedc">   -510.81638418 </i>
    <i name="eentropy">      0.03511575 </i>
    <i name="bandstr">    -90.20520017 </i>
    <i name="atom">    197.04175453 </i>
    <i name="e_fr_energy">    -23.95157670 </i>
    <i name="e_wo_entrp">    -23.98669245 </i>
    <i name="e_0_energy">    -23.96328195 </i>
   </energy>
  </scstep>
  <structure>
   <crystal>
    <varray name="basis" >
     <v>       9.71982727       0.00000000       0.00000000 </v>
     <v>       0.27715855      10.03307619       0.00000000 </v>
     <v>      -0.10064359       0.17608811       9.70649084 </v>
    </varray>
    <i name="volume">    946.57472985 </i>
    <varray name="rec_basis" >
     <v>       0.10288249      -0.00284208       0.00111832 </v>
     <v>       0.00000000       0.09967033      -0.00180815 </v>
     <v>       0.00000000       0.00000000       0.10302384 </v>
    </varray>
   </crystal>
   <varray name="positions" >
    <v>       0.53799889       0.40680401       0.36058686 </v>
    <v>       0.39470903       0.48046708       0.43818464 </v>
    <v>       0.55258882       0.56501194       0.44280394 </v>
    <v>       0.52818585       0.41640570       0.53918039 </v>
    <v>       0.50352362       0.46720043       0.44547683 </v>
   </varray>
  </structure>
  <varray name="forces" >
   <v>       0.28864691      -0.06093580       0.04340173 </v>
   <v>      -1.04573084       0.00810896       0.06911400 </v>
   <v>       0.54980014       0.40181381       0.23238037 </v>
   <v>       0.00196107      -0.48021925       1.43124293 </v>
   <v>      -0.32550501       0.50579016      -0.06869807 </v>
  </varray>
  <varray name="stress" >
   <v>       1.88125138      -1.44572178       0.21481197 </v>
   <v>      -1.44572178       0.01714589      -0.45217689 </v>
   <v>       0.21481197      -0.45217689       1.68313841 </v>
  </varray>
  <energy>
   <i name="e_fr_energy">    -23.95157670 </i>
   <i name="e_wo_entrp">    -23.96328195 </i>
   <i name="e_0_energy">      0.03511575 </i>
   <i name="kinetic">      0.04054725 </i>
   <i name="lattice kinetic">      0.00000000 </i>
   <i name="nosepot">      0.00000000 </i>
   <i name="nosekinetic">      0.00002585 </i>
   <i name="total">    -23.91100360 </i>
  </energy>
  <dos>
   <i name="efermi">     -9.18795284 </i>
   <total>
    <array>
     <dimension dim="1">gridpoints</dimension>
     <dimension dim="2">spin</dimension>
     <field>energy</field>
     <field>total</field>
     <field>integrated</field>
     <set>
      <set comment="spin 1">
       <r>   -19.0301     0.0000     0.0000 </r>
       <r>   -18.9576     0.0000     0.0000 </r>
       <r>   -18.8850     0.0000     0.0000 </r>
       <r>   -18.8125     0.0000     0.0000 </r>
       <r>   -18.7399     0.0000     0.0000 </r>
       <r>   -18.6674    -0.0000    -0.0000 </r>
       <r>   -18.5948    -0.0000    -0.0000 </r>
       <r>   -18.5223    -0.0000    -0.0000 </r>
       <r>   -18.4497    -0.0000    -0.0000 </r>
       <r>   -18.3772    -0.0000    -0.0000 </r>
       <r>   -18.3046    -0.0000    -0.0000 </r>
       <r>   -18.2321    -0.0000    -0.0000 </r>
       <r>   -18.1595    -0.0000    -0.0000 </r>
       <r>   -18.0869    -0.0000    -0.0000 </r>
       <r>   -18.0144    -0.0000    -0.0000 </r>
       <r>   -17.9418    -0.0000    -0.0000 </r>
       <r>   -17.8693    -0.0000    -0.0000 </r>
       <r>   -17.7967    -0.0000    -0.0000 </r>
       <r>   -17.7242    -0.0001    -0.0000 </r>
       <r>   -17.6516    -0.0012    -0.0001 </r>
       <r>   -17.5791    -0.0086    -0.0007 </r>
       <r>   -17.5065    -0.0432    -0.0039 </r>
       <r>   -17.4340    -0.1538    -0.0150 </r>
       <r>   -17.3614    -0.3576    -0.0410 </r>
       <r>   -17.2889    -0.3945    -0.0696 </r>
       <r>   -17.2163     0.5072    -0.0328 </r>
       <r>   -17.1438     3.0649     0.1896 </r>
       <r>   -17.0712     6.4890     0.6604 </r>
       <r>   -16.9986     8.3025     1.2628 </r>
       <r>   -16.9261     6.8800     1.7619 </r>
       <r>   -16.8535     3.5108     2.0167 </r>
       <r>   -16.7810     0.7460     2.0708 </r>
       <r>   -16.7084    -0.3506     2.0453 </r>
       <r>   -16.6359    -0.3835     2.0175 </r>
       <r>   -16.5633    -0.1767     2.0047 </r>
       <r>   -16.4908    -0.0522     2.0009 </r>
       <r>   -16.4182    -0.0108     2.0001 </r>
       <r>   -16.3457    -0.0016     2.0000 </r>
       <r>   -16.2731    -0.0002     2.0000 </r>
       <r>   -16.2006    -0.0000     2.0000 </r>
       <r>   -16.1280    -0.0000     2.0000 </r>
       <r>   -16.0554    -0.0000     2.0000 </r>
       <r>   -15.9829    -0.0000     2.0000 </r>
       <r>   -15.9103    -0.0000     2.0000 </r>
       <r>   -15.8378    -0.0000     2.0000 </r>
       <r>   -15.7652    -0.0000     2.0000 </r>
       <r>   -15.6927     0.0000     2.0000 </r>
       <r>   -15.6201     0.0000     2.0000 </r>
       <r>   -15.5476     0.0000     2.0000 </r>
       <r>   -15.4750     0.0000     2.0000 </r>
       <r>   -15.4025     0.0000     2.0000 </r>
       <r>   -15.3299     0.0000     2.0000 </r>
       <r>   -15.2574     0.0000     2.0000 </r>
       <r>   -15.1848     0.0000     2.0000 </r>
       <r>   -15.1122     0.0000     2.0000 </r>
       <r>   -15.0397     0.0000     2.0000 </r>
       <r>   -14.9671     0.0000     2.0000 </r>
       <r>   -14.8946     0.0000     2.0000 </r>
       <r>   -14.8220     0.0000     2.0000 </r>
       <r>   -14.7495     0.0000     2.0000 </r>
       <r>   -14.6769     0.0000     2.0000 </r>
       <r>   -14.6044     0.0000     2.0000 </r>
       <r>   -14.5318     0.0000     2.0000 </r>
       <r>   -14.4593     0.0000     2.0000 </r>
       <r>   -14.3867     0.0000     2.0000 </r>
       <r>   -14.3142     0.0000     2.0000 </r>
       <r>   -14.2416     0.0000     2.0000 </r>
       <r>   -14.1691     0.0000     2.0000 </r>
       <r>   -14.0965     0.0000     2.0000 </r>
       <r>   -14.0239     0.0000     2.0000 </r>
       <r>   -13.9514     0.0000     2.0000 </r>
       <r>   -13.8788     0.0000     2.0000 </r>
       <r>   -13.8063     0.0000     2.0000 </r>
       <r>   -13.7337     0.0000     2.0000 </r>
       <r>   -13.6612     0.0000     2.0000 </r>
       <r>   -13.5886     0.0000     2.0000 </r>
       <r>   -13.5161     0.0000     2.0000 </r>
       <r>   -13.4435     0.0000     2.0000 </r>
       <r>   -13.3710     0.0000     2.0000 </r>
       <r>   -13.2984     0.0000     2.0000 </r>
       <r>   -13.2259     0.0000     2.0000 </r>
       <r>   -13.1533     0.0000     2.0000 </r>
       <r>   -13.0807     0.0000     2.0000 </r>
       <r>   -13.0082     0.0000     2.0000 </r>
       <r>   -12.9356     0.0000     2.0000 </r>
       <r>   -12.8631     0.0000     2.0000 </r>
       <r>   -12.7905     0.0000     2.0000 </r>
       <r>   -12.7180     0.0000     2.0000 </r>
       <r>   -12.6454     0.0000     2.0000 </r>
       <r>   -12.5729     0.0000     2.0000 </r>
       <r>   -12.5003     0.0000     2.0000 </r>
       <r>   -12.4278     0.0000     2.0000 </r>
       <r>   -12.3552     0.0000     2.0000 </r>
       <r>   -12.2827     0.0000     2.0000 </r>
       <r>   -12.2101     0.0000     2.0000 </r>
       <r>   -12.1376     0.0000     2.0000 </r>
       <r>   -12.0650     0.0000     2.0000 </r>
       <r>   -11.9924     0.0000     2.0000 </r>
       <r>   -11.9199     0.0000     2.0000 </r>
       <r>   -11.8473     0.0000     2.0000 </r>
       <r>   -11.7748     0.0000     2.0000 </r>
       <r>   -11.7022     0.0000     2.0000 </r>
       <r>   -11.6297     0.0000     2.0000 </r>
       <r>   -11.5571     0.0000     2.0000 </r>
       <r>   -11.4846     0.0000     2.0000 </r>
       <r>   -11.4120     0.0000     2.0000 </r>
       <r>   -11.3395     0.0000     2.0000 </r>
       <r>   -11.2669     0.0000     2.0000 </r>
       <r>   -11.1944     0.0000     2.0000 </r>
       <r>   -11.1218     0.0000     2.0000 </r>
       <r>   -11.0492     0.0000     2.0000 </r>
       <r>   -10.9767    -0.0000     2.0000 </r>
       <r>   -10.9041    -0.0000     2.0000 </r>
       <r>   -10.8316    -0.0000     2.0000 </r>
       <r>   -10.7590    -0.0000     2.0000 </r>
       <r>   -10.6865    -0.0000     2.0000 </r>
       <r>   -10.6139    -0.0000     2.0000 </r>
       <r>   -10.5414    -0.0000     2.0000 </r>
       <r>   -10.4688    -0.0000     2.0000 </r>
       <r>   -10.3963    -0.0000     2.0000 </r>
       <r>   -10.3237    -0.0000     2.0000 </r>
       <r>   -10.2512    -0.0000     2.0000 </r>
       <r>   -10.1786    -0.0000     2.0000 </r>
       <r>   -10.1060    -0.0001     2.0000 </r>
       <r>   -10.0335    -0.0008     1.9999 </r>
       <r>    -9.9609    -0.0065     1.9995 </r>
       <r>    -9.8884    -0.0407     1.9965 </r>
       <r>    -9.8158    -0.1866     1.9830 </r>
       <r>    -9.7433    -0.5975     1.9396 </r>
       <r>    -9.6707    -1.2012     1.8525 </r>
       <r>    -9.5982    -0.8528     1.7906 </r>
       <r>    -9.5256     2.9970     2.0080 </r>
       <r>    -9.4531    11.7420     2.8600 </r>
       <r>    -9.3805    21.4944     4.4195 </r>
       <r>    -9.3080    24.6467     6.2077 </r>
       <r>    -9.2354    18.3348     7.5379 </r>
       <r>    -9.1629     8.1174     8.1269 </r>
       <r>    -9.0903     1.0301     8.2016 </r>
       <r>    -9.0177    -1.2335     8.1121 </r>
       <r>    -8.9452    -0.9985     8.0397 </r>
       <r>    -8.8726    -0.4102     8.0099 </r>
       <r>    -8.8001    -0.1116     8.0018 </r>
       <r>    -8.7275    -0.0216     8.0002 </r>
       <r>    -8.6550    -0.0031     8.0000 </r>
       <r>    -8.5824    -0.0003     8.0000 </r>
       <r>    -8.5099    -0.0000     8.0000 </r>
       <r>    -8.4373    -0.0000     8.0000 </r>
       <r>    -8.3648    -0.0000     8.0000 </r>
       <r>    -8.2922    -0.0000     8.0000 </r>
       <r>    -8.2197    -0.0000     8.0000 </r>
       <r>    -8.1471    -0.0000     8.0000 </r>
       <r>    -8.0745    -0.0000     8.0000 </r>
       <r>    -8.0020     0.0000     8.0000 </r>
       <r>    -7.9294     0.0000     8.0000 </r>
       <r>    -7.8569     0.0000     8.0000 </r>
       <r>    -7.7843     0.0000     8.0000 </r>
       <r>    -7.7118     0.0000     8.0000 </r>
       <r>    -7.6392     0.0000     8.0000 </r>
       <r>    -7.5667     0.0000     8.0000 </r>
       <r>    -7.4941     0.0000     8.0000 </r>
       <r>    -7.4216     0.0000     8.0000 </r>
       <r>    -7.3490     0.0000     8.0000 </r>
       <r>    -7.2765     0.0000     8.0000 </r>
       <r>    -7.2039     0.0000     8.0000 </r>
       <r>    -7.1313     0.0000     8.0000 </r>
       <r>    -7.0588     0.0000     8.0000 </r>
       <r>    -6.9862     0.0000     8.0000 </r>
       <r>    -6.9137     0.0000     8.0000 </r>
       <r>    -6.8411     0.0000     8.0000 </r>
       <r>    -6.7686     0.0000     8.0000 </r>
       <r>    -6.6960     0.0000     8.0000 </r>
       <r>    -6.6235     0.0000     8.0000 </r>
       <r>    -6.5509     0.0000     8.0000 </r>
       <r>    -6.4784     0.0000     8.0000 </r>
       <r>    -6.4058     0.0000     8.0000 </r>
       <r>    -6.3333     0.0000     8.0000 </r>
       <r>    -6.2607     0.0000     8.0000 </r>
       <r>    -6.1882     0.0000     8.0000 </r>
       <r>    -6.1156     0.0000     8.0000 </r>
       <r>    -6.0430     0.0000     8.0000 </r>
       <r>    -5.9705     0.0000     8.0000 </r>
       <r>    -5.8979     0.0000     8.0000 </r>
       <r>    -5.8254     0.0000     8.0000 </r>
       <r>    -5.7528     0.0000     8.0000 </r>
       <r>    -5.6803     0.0000     8.0000 </r>
       <r>    -5.6077     0.0000     8.0000 </r>
       <r>    -5.5352     0.0000     8.0000 </r>
       <r>    -5.4626     0.0000     8.0000 </r>
       <r>    -5.3901     0.0000     8.0000 </r>
       <r>    -5.3175     0.0000     8.0000 </r>
       <r>    -5.2450     0.0000     8.0000 </r>
       <r>    -5.1724     0.0000     8.0000 </r>
       <r>    -5.0998     0.0000     8.0000 </r>
       <r>    -5.0273     0.0000     8.0000 </r>
       <r>    -4.9547     0.0000     8.0000 </r>
       <r>    -4.8822     0.0000     8.0000 </r>
       <r>    -4.8096     0.0000     8.0000 </r>
       <r>    -4.7371     0.0000     8.0000 </r>
       <r>    -4.6645     0.0000     8.0000 </r>
       <r>    -4.5920     0.0000     8.0000 </r>
       <r>    -4.5194     0.0000     8.0000 </r>
       <r>    -4.4469     0.0000     8.0000 </r>
       <r>    -4.3743     0.0000     8.0000 </r>
       <r>    -4.3018     0.0000     8.0000 </r>
       <r>    -4.2292     0.0000     8.0000 </r>
       <r>    -4.1567     0.0000     8.0000 </r>
       <r>    -4.0841     0.0000     8.0000 </r>
       <r>    -4.0115     0.0000     8.0000 </r>
       <r>    -3.9390     0.0000     8.0000 </r>
       <r>    -3.8664     0.0000     8.0000 </r>
       <r>    -3.7939     0.0000     8.0000 </r>
       <r>    -3.7213     0.0000     8.0000 </r>
       <r>    -3.6488     0.0000     8.0000 </r>
       <r>    -3.5762     0.0000     8.0000 </r>
       <r>    -3.5037     0.0000     8.0000 </r>
       <r>    -3.4311     0.0000     8.0000 </r>
       <r>    -3.3586     0.0000     8.0000 </r>
       <r>    -3.2860     0.0000     8.0000 </r>
       <r>    -3.2135     0.0000     8.0000 </r>
       <r>    -3.1409     0.0000     8.0000 </r>
       <r>    -3.0683     0.0000     8.0000 </r>
       <r>    -2.9958     0.0000     8.0000 </r>
       <r>    -2.9232     0.0000     8.0000 </r>
       <r>    -2.8507     0.0000     8.0000 </r>
       <r>    -2.7781     0.0000     8.0000 </r>
       <r>    -2.7056     0.0000     8.0000 </r>
       <r>    -2.6330     0.0000     8.0000 </r>
       <r>    -2.5605     0.0000     8.0000 </r>
       <r>    -2.4879     0.0000     8.0000 </r>
       <r>    -2.4154     0.0000     8.0000 </r>
       <r>    -2.3428     0.0000     8.0000 </r>
       <r>    -2.2703     0.0000     8.0000 </r>
       <r>    -2.1977     0.0000     8.0000 </r>
       <r>    -2.1251     0.0000     8.0000 </r>
       <r>    -2.0526     0.0000     8.0000 </r>
       <r>    -1.9800     0.0000     8.0000 </r>
       <r>    -1.9075    -0.0000     8.0000 </r>
       <r>    -1.8349    -0.0000     8.0000 </r>
       <r>    -1.7624    -0.0000     8.0000 </r>
       <r>    -1.6898    -0.0000     8.0000 </r>
       <r>    -1.6173    -0.0000     8.0000 </r>
       <r>    -1.5447    -0.0000     8.0000 </r>
       <r>    -1.4722    -0.0000     8.0000 </r>
       <r>    -1.3996    -0.0000     8.0000 </r>
       <r>    -1.3271    -0.0000     8.0000 </r>
       <r>    -1.2545    -0.0000     8.0000 </r>
       <r>    -1.1820    -0.0000     8.0000 </r>
       <r>    -1.1094    -0.0000     8.0000 </r>
       <r>    -1.0368    -0.0000     8.0000 </r>
       <r>    -0.9643    -0.0002     8.0000 </r>
       <r>    -0.8917    -0.0018     7.9998 </r>
       <r>    -0.8192    -0.0120     7.9990 </r>
       <r>    -0.7466    -0.0565     7.9949 </r>
       <r>    -0.6741    -0.1869     7.9813 </r>
       <r>    -0.6015    -0.3931     7.9528 </r>
       <r>    -0.5290    -0.3257     7.9292 </r>
       <r>    -0.4564     0.8569     7.9913 </r>
       <r>    -0.3839     3.7014     8.2599 </r>
       <r>    -0.3113     7.0302     8.7700 </r>
       <r>    -0.2388     8.2804     9.3707 </r>
       <r>    -0.1662     6.3154     9.8289 </r>
       <r>    -0.0936     2.8855    10.0383 </r>
       <r>    -0.0211     0.4177    10.0686 </r>
       <r>     0.0515    -0.4162    10.0384 </r>
       <r>     0.1240    -0.3948    10.0098 </r>
       <r>     0.1966    -0.3321     9.9857 </r>
       <r>     0.2691    -0.5443     9.9462 </r>
       <r>     0.3417    -0.8511     9.8844 </r>
       <r>     0.4142    -0.3323     9.8603 </r>
       <r>     0.4868     2.6511    10.0527 </r>
       <r>     0.5593     9.0681    10.7106 </r>
       <r>     0.6319    17.0360    11.9466 </r>
       <r>     0.7044    21.8134    13.5293 </r>
       <r>     0.7770    19.6983    14.9584 </r>
       <r>     0.8496    12.1105    15.8371 </r>
       <r>     0.9221     4.2856    16.1480 </r>
       <r>     0.9947    -0.0301    16.1458 </r>
       <r>     1.0672    -1.0219    16.0717 </r>
       <r>     1.1398    -0.6621    16.0237 </r>
       <r>     1.2123    -0.2486    16.0056 </r>
       <r>     1.2849    -0.0639    16.0010 </r>
       <r>     1.3574    -0.0119    16.0001 </r>
       <r>     1.4300    -0.0016    16.0000 </r>
       <r>     1.5025    -0.0002    16.0000 </r>
       <r>     1.5751    -0.0000    16.0000 </r>
       <r>     1.6476    -0.0000    16.0000 </r>
       <r>     1.7202    -0.0000    16.0000 </r>
       <r>     1.7927    -0.0000    16.0000 </r>
       <r>     1.8653    -0.0000    16.0000 </r>
       <r>     1.9379    -0.0000    16.0000 </r>
       <r>     2.0104    -0.0000    16.0000 </r>
       <r>     2.0830     0.0000    16.0000 </r>
       <r>     2.1555     0.0000    16.0000 </r>
       <r>     2.2281     0.0000    16.0000 </r>
       <r>     2.3006     0.0000    16.0000 </r>
       <r>     2.3732     0.0000    16.0000 </r>
       <r>     2.4457     0.0000    16.0000 </r>
       <r>     2.5183     0.0000    16.0000 </r>
       <r>     2.5908     0.0000    16.0000 </r>
       <r>     2.6634     0.0000    16.0000 </r>
       <r>     2.7359     0.0000    16.0000 </r>
      </set>
     </set>
    </array>
   </total>
  </dos>
  <time name="totalsc">   82.79   83.00</time>
 </calculation>
 <calculation>
  <scstep>
   <time name="dav">    1.69    1.70</time>
   <time name="total">    3.39    3.40</time>
   <energy>
    <i name="alphaZ">      0.25592358 </i>
    <i name="ewald">    122.91537780 </i>
    <i name="hartreedc">   -281.67509773 </i>
    <i name="XCdc">     24.72280245 </i>
    <i name="pawpsdc">    510.01192379 </i>
    <i name="pawaedc">   -510.81851179 </i>
    <i name="eentropy">      0.02975268 </i>
    <i name="bandstr">    -86.49768285 </i>
    <i name="atom">    197.04175453 </i>
    <i name="e_fr_energy">    -24.01375755 </i>
    <i name="e_wo_entrp">    -24.04351023 </i>
    <i name="e_0_energy">    -24.02367511 </i>
   </energy>
  </scstep>
  <scstep>
   <time name="diag">    0.36    0.36</time>
   <time name="diis">    1.21    1.21</time>
   <time name="orth">    0.01    0.01</time>
   <time name="total">    3.17    3.18</time>
   <energy>
    <i name="e_fr_energy">    -24.00674257 </i>
    <i name="e_wo_entrp">    -24.04529853 </i>
    <i name="e_0_energy">    -24.01959456 </i>
   </energy>
  </scstep>
  <scstep>
   <time name="diag">    0.33    0.34</time>
   <time name="diis">    1.18    1.19</time>
   <time name="orth">    0.01    0.01</time>
   <time name="total">    3.10    3.11</time>
   <energy>
    <i name="e_fr_energy">    -23.97261807 </i>
    <i name="e_wo_entrp">    -24.00925397 </i>
    <i name="e_0_energy">    -23.98483003 </i>
   </energy>
  </scstep>
  <scstep>
   <time name="diag">    0.37    0.37</time>
   <time name="diis">    1.19    1.19</time>
   <time name="orth">    0.01    0.01</time>
   <time name="total">    3.18    3.18</time>
   <energy>
    <i name="e_fr_energy">    -23.97069021 </i>
    <i name="e_wo_entrp">    -24.00734470 </i>
    <i name="e_0_energy">    -23.98290837 </i>
   </energy>
  </scstep>
  <scstep>
   <time name="diag">    0.37    0.37</time>
   <time name="diis">    1.30    1.30</time>
   <time name="orth">    0.01    0.01</time>
   <time name="total">    3.35    3.36</time>
   <energy>
    <i name="e_fr_energy">    -23.97046976 </i>
    <i name="e_wo_entrp">    -24.00713431 </i>
    <i name="e_0_energy">    -23.98269128 </i>
   </energy>
  </scstep>
  <scstep>
   <time name="diag">    0.39    0.39</time>
   <time name="diis">    1.33    1.33</time>
   <time name="orth">    0.01    0.01</time>
   <time name="total">    3.41    3.42</time>
   <energy>
    <i name="e_fr_energy">    -23.97062451 </i>
    <i name="e_wo_entrp">    -24.00701364 </i>
    <i name="e_0_energy">    -23.98275422 </i>
   </energy>
  </scstep>
  <scstep>
   <time name="diag">    0.37    0.37</time>
   <time name="diis">    1.33    1.33</time>
   <time name="orth">    0.01    0.01</time>
   <time name="total">    3.38    3.39</time>
   <energy>
    <i name="e_fr_energy">    -23.97082041 </i>
    <i name="e_wo_entrp">    -24.00741519 </i>
    <i name="e_0_energy">    -23.98301867 </i>
   </energy>
  </scstep>
  <scstep>
   <time name="diag">    0.36    0.36</time>
   <time name="diis">    1.26    1.27</time>
   <time name="orth">    0.01    0.01</time>
   <time name="total">    3.32    3.33</time>
   <energy>
    <i name="e_fr_energy">    -23.97084116 </i>
    <i name="e_wo_entrp">    -24.00743676 </i>
    <i name="e_0_energy">    -23.98303970 </i>
   </energy>
  </scstep>
  <scstep>
   <time name="diag">    0.37    0.37</time>
   <time name="diis">    1.26    1.27</time>
   <time name="orth">    0.01    0.01</time>
   <time name="total">    3.35    3.36</time>
   <energy>
    <i name="e_fr_energy">    -23.97092422 </i>
    <i name="e_wo_entrp">    -24.00743193 </i>
    <i name="e_0_energy">    -23.98309346 </i>
   </energy>
  </scstep>
  <scstep>
   <time name="diag">    0.40    0.40</time>
   <time name="diis">    1.30    1.30</time>
   <time name="orth">    0.01    0.01</time>
   <time name="total">    3.43    3.43</time>
   <energy>
    <i name="e_fr_energy">    -23.97095842 </i>
    <i name="e_wo_entrp">    -24.00744140 </i>
    <i name="e_0_energy">    -23.98311941 </i>
   </energy>
  </scstep>
  <scstep>
   <time name="diag">    0.39    0.39</time>
   <time name="diis">    1.09    1.09</time>
   <time name="orth">    0.01    0.01</time>
   <time name="total">    3.20    3.21</time>
   <energy>
    <i name="e_fr_energy">    -23.97097200 </i>
    <i name="e_wo_entrp">    -24.00747336 </i>
    <i name="e_0_energy">    -23.98313912 </i>
   </energy>
  </scstep>
  <scstep>
   <time name="diag">    0.36    0.36</time>
   <time name="diis">    1.29    1.29</time>
   <time name="orth">    0.01    0.01</time>
   <time name="total">    3.39    3.40</time>
   <energy>
    <i name="e_fr_energy">    -23.97098201 </i>
    <i name="e_wo_entrp">    -24.00748204 </i>
    <i name="e_0_energy">    -23.98314868 </i>
   </energy>
  </scstep>
  <scstep>
   <time name="diag">    0.35    0.35</time>
   <time name="diis">    1.00    1.00</time>
   <time name="orth">    0.01    0.01</time>
   <time name="total">    3.14    3.15</time>
   <energy>
    <i name="e_fr_energy">    -23.97098511 </i>
    <i name="e_wo_entrp">    -24.00748207 </i>
    <i name="e_0_energy">    -23.98315076 </i>
   </energy>
  </scstep>
  <scstep>
   <time name="diag">    0.35    0.35</time>
   <time name="diis">    0.96    0.96</time>
   <time name="orth">    0.01    0.01</time>
   <time name="total">    3.11    3.11</time>
   <energy>
    <i name="e_fr_energy">    -23.97098845 </i>
    <i name="e_wo_entrp">    -24.00748669 </i>
    <i name="e_0_energy">    -23.98315453 </i>
   </energy>
  </scstep>
  <scstep>
   <time name="diag">    0.39    0.39</time>
   <time name="diis">    0.93    0.93</time>
   <time name="orth">    0.01    0.01</time>
   <time name="total">    2.90    2.91</time>
   <energy>
    <i name="alphaZ">      0.25592358 </i>
    <i name="ewald">    122.91537780 </i>
    <i name="hartreedc">   -279.20016320 </i>
    <i name="XCdc">     24.58073333 </i>
    <i name="pawpsdc">    459.26770529 </i>
    <i name="pawaedc">   -460.04473926 </i>
    <i name="eentropy">      0.03649695 </i>
    <i name="bandstr">    -88.82407835 </i>
    <i name="atom">    197.04175453 </i>
    <i name="e_fr_energy">    -23.97098934 </i>
    <i name="e_wo_entrp">    -24.00748628 </i>
    <i name="e_0_energy">    -23.98315498 </i>
   </energy>
  </scstep>
  <structure>
   <crystal>
    <varray name="basis" >
     <v>       9.71982727       0.00000000       0.00000000 </v>
     <v>       0.27715855      10.03307619       0.00000000 </v>
     <v>      -0.10064359       0.17608811       9.70649084 </v>
    </varray>
    <i name="volume">    946.57472985 </i>
    <varray name="rec_basis" >
     <v>       0.10288249      -0.00284208       0.00111832 </v>
     <v>       0.00000000       0.09967033      -0.00180815 </v>
     <v>       0.00000000       0.00000000       0.10302384 </v>
    </varray>
   </crystal>
   <varray name="positions" >
    <v>       0.53942968       0.40433621       0.36044184 </v>
    <v>       0.38973186       0.48215696       0.43704056 </v>
    <v>       0.55426404       0.56806379       0.44283482 </v>
    <v>       0.52628065       0.41479109       0.54327982 </v>
    <v>       0.50383803       0.46714554       0.44524028 </v>
   </varray>
  </structure>
  <varray name="forces" >
   <v>      -0.18845913       0.21802396       1.06459886 </v>
   <v>       0.75451966      -0.03887839       0.18129010 </v>
   <v>      -0.62855923      -1.23953157       0.41377233 </v>
   <v>      -0.25264446       0.30275467      -0.48721604 </v>
   <v>      -0.30763444       0.46130805       0.31915595 </v>
  </varray>
  <varray name="stress" >
   <v>      -2.49304938      -2.05334832      -0.01202240 </v>
   <v>      -2.05334832      -3.63024415      -0.08593389 </v>
   <v>      -0.01202240      -0.08593389      -1.76811034 </v>
  </varray>
  <energy>
   <i name="e_fr_energy">    -23.97098934 </i>
   <i name="e_wo_entrp">    -23.98315498 </i>
   <i name="e_0_energy">      0.03649695 </i>
   <i name="kinetic">      0.05239188 </i>
   <i name="lattice kinetic">      0.00000000 </i>
   <i name="nosepot">      0.00036195 </i>
   <i name="nosekinetic">      0.00037617 </i>
   <i name="total">    -23.91785933 </i>
  </energy>
  <dos>
   <i name="efermi">     -9.04396410 </i>
   <total>
    <array>
     <dimension dim="1">gridpoints</dimension>
     <dimension dim="2">spin</dimension>
     <field>energy</field>
     <field>total</field>
     <field>integrated</field>
     <set>
      <set comment="spin 1">
       <r>   -18.7579     0.0000     0.0000 </r>
       <r>   -18.6863     0.0000     0.0000 </r>
       <r>   -18.6147     0.0000     0.0000 </r>
       <r>   -18.5430     0.0000     0.0000 </r>
       <r>   -18.4714     0.0000     0.0000 </r>
       <r>   -18.3998    -0.0000    -0.0000 </r>
       <r>   -18.3282    -0.0000    -0.0000 </r>
       <r>   -18.2566    -0.0000    -0.0000 </r>
       <r>   -18.1849    -0.0000    -0.0000 </r>
       <r>   -18.1133    -0.0000    -0.0000 </r>
       <r>   -18.0417    -0.0000    -0.0000 </r>
       <r>   -17.9701    -0.0000    -0.0000 </r>
       <r>   -17.8985    -0.0000    -0.0000 </r>
       <r>   -17.8269    -0.0000    -0.0000 </r>
       <r>   -17.7552    -0.0000    -0.0000 </r>
       <r>   -17.6836    -0.0000    -0.0000 </r>
       <r>   -17.6120    -0.0000    -0.0000 </r>
       <r>   -17.5404    -0.0000    -0.0000 </r>
       <r>   -17.4688    -0.0001    -0.0000 </r>
       <r>   -17.3972    -0.0007    -0.0001 </r>
       <r>   -17.3255    -0.0054    -0.0004 </r>
       <r>   -17.2539    -0.0290    -0.0025 </r>
       <r>   -17.1823    -0.1122    -0.0106 </r>
       <r>   -17.1107    -0.2951    -0.0317 </r>
       <r>   -17.0391    -0.4385    -0.0631 </r>
       <r>   -16.9674     0.0597    -0.0588 </r>
       <r>   -16.8958     2.0425     0.0875 </r>
       <r>   -16.8242     5.3597     0.4713 </r>
       <r>   -16.7526     8.0047     1.0446 </r>
       <r>   -16.6810     7.7614     1.6004 </r>
       <r>   -16.6094     4.8489     1.9477 </r>
       <r>   -16.5377     1.6425     2.0653 </r>
       <r>   -16.4661    -0.0898     2.0589 </r>
       <r>   -16.3945    -0.4371     2.0276 </r>
       <r>   -16.3229    -0.2633     2.0087 </r>
       <r>   -16.2513    -0.0940     2.0020 </r>
       <r>   -16.1797    -0.0231     2.0003 </r>
       <r>   -16.1080    -0.0041     2.0000 </r>
       <r>   -16.0364    -0.0005     2.0000 </r>
       <r>   -15.9648    -0.0001     2.0000 </r>
       <r>   -15.8932    -0.0000     2.0000 </r>
       <r>   -15.8216    -0.0000     2.0000 </r>
       <r>   -15.7499    -0.0000     2.0000 </r>
       <r>   -15.6783    -0.0000     2.0000 </r>
       <r>   -15.6067    -0.0000     2.0000 </r>
       <r>   -15.5351    -0.0000     2.0000 </r>
       <r>   -15.4635     0.0000     2.0000 </r>
       <r>   -15.3919     0.0000     2.0000 </r>
       <r>   -15.3202     0.0000     2.0000 </r>
       <r>   -15.2486     0.0000     2.0000 </r>
       <r>   -15.1770     0.0000     2.0000 </r>
       <r>   -15.1054     0.0000     2.0000 </r>
       <r>   -15.0338     0.0000     2.0000 </r>
       <r>   -14.9622     0.0000     2.0000 </r>
       <r>   -14.8905     0.0000     2.0000 </r>
       <r>   -14.8189     0.0000     2.0000 </r>
       <r>   -14.7473     0.0000     2.0000 </r>
       <r>   -14.6757     0.0000     2.0000 </r>
       <r>   -14.6041     0.0000     2.0000 </r>
       <r>   -14.5324     0.0000     2.0000 </r>
       <r>   -14.4608     0.0000     2.0000 </r>
       <r>   -14.3892     0.0000     2.0000 </r>
       <r>   -14.3176     0.0000     2.0000 </r>
       <r>   -14.2460     0.0000     2.0000 </r>
       <r>   -14.1744     0.0000     2.0000 </r>
       <r>   -14.1027     0.0000     2.0000 </r>
       <r>   -14.0311     0.0000     2.0000 </r>
       <r>   -13.9595     0.0000     2.0000 </r>
       <r>   -13.8879     0.0000     2.0000 </r>
       <r>   -13.8163     0.0000     2.0000 </r>
       <r>   -13.7446     0.0000     2.0000 </r>
       <r>   -13.6730     0.0000     2.0000 </r>
       <r>   -13.6014     0.0000     2.0000 </r>
       <r>   -13.5298     0.0000     2.0000 </r>
       <r>   -13.4582     0.0000     2.0000 </r>
       <r>   -13.3866     0.0000     2.0000 </r>
       <r>   -13.3149     0.0000     2.0000 </r>
       <r>   -13.2433     0.0000     2.0000 </r>
       <r>   -13.1717     0.0000     2.0000 </r>
       <r>   -13.1001     0.0000     2.0000 </r>
       <r>   -13.0285     0.0000     2.0000 </r>
       <r>   -12.9569     0.0000     2.0000 </r>
       <r>   -12.8852     0.0000     2.0000 </r>
       <r>   -12.8136     0.0000     2.0000 </r>
       <r>   -12.7420     0.0000     2.0000 </r>
       <r>   -12.6704     0.0000     2.0000 </r>
       <r>   -12.5988     0.0000     2.0000 </r>
       <r>   -12.5271     0.0000     2.0000 </r>
       <r>   -12.4555     0.0000     2.0000 </r>
       <r>   -12.3839     0.0000     2.0000 </r>
       <r>   -12.3123     0.0000     2.0000 </r>
       <r>   -12.2407     0.0000     2.0000 </r>
       <r>   -12.1691     0.0000     2.0000 </r>
       <r>   -12.0974     0.0000     2.0000 </r>
       <r>   -12.0258     0.0000     2.0000 </r>
       <r>   -11.9542     0.0000     2.0000 </r>
       <r>   -11.8826     0.0000     2.0000 </r>
       <r>   -11.8110     0.0000     2.0000 </r>
       <r>   -11.7394     0.0000     2.0000 </r>
       <r>   -11.6677     0.0000     2.0000 </r>
       <r>   -11.5961     0.0000     2.0000 </r>
       <r>   -11.5245     0.0000     2.0000 </r>
       <r>   -11.4529     0.0000     2.0000 </r>
       <r>   -11.3813     0.0000     2.0000 </r>
       <r>   -11.3096     0.0000     2.0000 </r>
       <r>   -11.2380     0.0000     2.0000 </r>
       <r>   -11.1664     0.0000     2.0000 </r>
       <r>   -11.0948     0.0000     2.0000 </r>
       <r>   -11.0232     0.0000     2.0000 </r>
       <r>   -10.9516     0.0000     2.0000 </r>
       <r>   -10.8799    -0.0000     2.0000 </r>
       <r>   -10.8083    -0.0000     2.0000 </r>
       <r>   -10.7367    -0.0000     2.0000 </r>
       <r>   -10.6651    -0.0000     2.0000 </r>
       <r>   -10.5935    -0.0000     2.0000 </r>
       <r>   -10.5219    -0.0000     2.0000 </r>
       <r>   -10.4502    -0.0000     2.0000 </r>
       <r>   -10.3786    -0.0000     2.0000 </r>
       <r>   -10.3070    -0.0000     2.0000 </r>
       <r>   -10.2354    -0.0000     2.0000 </r>
       <r>   -10.1638    -0.0000     2.0000 </r>
       <r>   -10.0921    -0.0000     2.0000 </r>
       <r>   -10.0205    -0.0000     2.0000 </r>
       <r>    -9.9489    -0.0001     2.0000 </r>
       <r>    -9.8773    -0.0015     1.9999 </r>
       <r>    -9.8057    -0.0111     1.9991 </r>
       <r>    -9.7341    -0.0619     1.9947 </r>
       <r>    -9.6624    -0.2519     1.9766 </r>
       <r>    -9.5908    -0.7135     1.9255 </r>
       <r>    -9.5192    -1.2258     1.8377 </r>
       <r>    -9.4476    -0.4129     1.8082 </r>
       <r>    -9.3760     4.1560     2.1058 </r>
       <r>    -9.3043    13.1198     3.0454 </r>
       <r>    -9.2327    22.0404     4.6239 </r>
       <r>    -9.1611    24.0108     6.3435 </r>
       <r>    -9.0895    17.3146     7.5835 </r>
       <r>    -9.0179     7.5484     8.1241 </r>
       <r>    -8.9463     0.9541     8.1925 </r>
       <r>    -8.8746    -1.1635     8.1091 </r>
       <r>    -8.8030    -0.9655     8.0400 </r>
       <r>    -8.7314    -0.4120     8.0105 </r>
       <r>    -8.6598    -0.1179     8.0020 </r>
       <r>    -8.5882    -0.0243     8.0003 </r>
       <r>    -8.5166    -0.0037     8.0000 </r>
       <r>    -8.4449    -0.0004     8.0000 </r>
       <r>    -8.3733    -0.0000     8.0000 </r>
       <r>    -8.3017    -0.0000     8.0000 </r>
       <r>    -8.2301    -0.0000     8.0000 </r>
       <r>    -8.1585    -0.0000     8.0000 </r>
       <r>    -8.0868    -0.0000     8.0000 </r>
       <r>    -8.0152    -0.0000     8.0000 </r>
       <r>    -7.9436    -0.0000     8.0000 </r>
       <r>    -7.8720     0.0000     8.0000 </r>
       <r>    -7.8004     0.0000     8.0000 </r>
       <r>    -7.7288     0.0000     8.0000 </r>
       <r>    -7.6571     0.0000     8.0000 </r>
       <r>    -7.5855     0.0000     8.0000 </r>
       <r>    -7.5139     0.0000     8.0000 </r>
       <r>    -7.4423     0.0000     8.0000 </r>
       <r>    -7.3707     0.0000     8.0000 </r>
       <r>    -7.2991     0.0000     8.0000 </r>
       <r>    -7.2274     0.0000     8.0000 </r>
       <r>    -7.1558     0.0000     8.0000 </r>
       <r>    -7.0842     0.0000     8.0000 </r>
       <r>    -7.0126     0.0000     8.0000 </r>
       <r>    -6.9410     0.0000     8.0000 </r>
       <r>    -6.8693     0.0000     8.0000 </r>
       <r>    -6.7977     0.0000     8.0000 </r>
       <r>    -6.7261     0.0000     8.0000 </r>
       <r>    -6.6545     0.0000     8.0000 </r>
       <r>    -6.5829     0.0000     8.0000 </r>
       <r>    -6.5113     0.0000     8.0000 </r>
       <r>    -6.4396     0.0000     8.0000 </r>
       <r>    -6.3680     0.0000     8.0000 </r>
       <r>    -6.2964     0.0000     8.0000 </r>
       <r>    -6.2248     0.0000     8.0000 </r>
       <r>    -6.1532     0.0000     8.0000 </r>
       <r>    -6.0816     0.0000     8.0000 </r>
       <r>    -6.0099     0.0000     8.0000 </r>
       <r>    -5.9383     0.0000     8.0000 </r>
       <r>    -5.8667     0.0000     8.0000 </r>
       <r>    -5.7951     0.0000     8.0000 </r>
       <r>    -5.7235     0.0000     8.0000 </r>
       <r>    -5.6518     0.0000     8.0000 </r>
       <r>    -5.5802     0.0000     8.0000 </r>
       <r>    -5.5086     0.0000     8.0000 </r>
       <r>    -5.4370     0.0000     8.0000 </r>
       <r>    -5.3654     0.0000     8.0000 </r>
       <r>    -5.2938     0.0000     8.0000 </r>
       <r>    -5.2221     0.0000     8.0000 </r>
       <r>    -5.1505     0.0000     8.0000 </r>
       <r>    -5.0789     0.0000     8.0000 </r>
       <r>    -5.0073     0.0000     8.0000 </r>
       <r>    -4.9357     0.0000     8.0000 </r>
       <r>    -4.8640     0.0000     8.0000 </r>
       <r>    -4.7924     0.0000     8.0000 </r>
       <r>    -4.7208     0.0000     8.0000 </r>
       <r>    -4.6492     0.0000     8.0000 </r>
       <r>    -4.5776     0.0000     8.0000 </r>
       <r>    -4.5060     0.0000     8.0000 </r>
       <r>    -4.4343     0.0000     8.0000 </r>
       <r>    -4.3627     0.0000     8.0000 </r>
       <r>    -4.2911     0.0000     8.0000 </r>
       <r>    -4.2195     0.0000     8.0000 </r>
       <r>    -4.1479     0.0000     8.0000 </r>
       <r>    -4.0763     0.0000     8.0000 </r>
       <r>    -4.0046     0.0000     8.0000 </r>
       <r>    -3.9330     0.0000     8.0000 </r>
       <r>    -3.8614     0.0000     8.0000 </r>
       <r>    -3.7898     0.0000     8.0000 </r>
       <r>    -3.7182     0.0000     8.0000 </r>
       <r>    -3.6465     0.0000     8.0000 </r>
       <r>    -3.5749     0.0000     8.0000 </r>
       <r>    -3.5033     0.0000     8.0000 </r>
       <r>    -3.4317     0.0000     8.0000 </r>
       <r>    -3.3601     0.0000     8.0000 </r>
       <r>    -3.2885     0.0000     8.0000 </r>
       <r>    -3.2168     0.0000     8.0000 </r>
       <r>    -3.1452     0.0000     8.0000 </r>
       <r>    -3.0736     0.0000     8.0000 </r>
       <r>    -3.0020     0.0000     8.0000 </r>
       <r>    -2.9304     0.0000     8.0000 </r>
       <r>    -2.8588     0.0000     8.0000 </r>
       <r>    -2.7871     0.0000     8.0000 </r>
       <r>    -2.7155     0.0000     8.0000 </r>
       <r>    -2.6439     0.0000     8.0000 </r>
       <r>    -2.5723     0.0000     8.0000 </r>
       <r>    -2.5007     0.0000     8.0000 </r>
       <r>    -2.4290     0.0000     8.0000 </r>
       <r>    -2.3574     0.0000     8.0000 </r>
       <r>    -2.2858     0.0000     8.0000 </r>
       <r>    -2.2142     0.0000     8.0000 </r>
       <r>    -2.1426     0.0000     8.0000 </r>
       <r>    -2.0710     0.0000     8.0000 </r>
       <r>    -1.9993    -0.0000     8.0000 </r>
       <r>    -1.9277    -0.0000     8.0000 </r>
       <r>    -1.8561    -0.0000     8.0000 </r>
       <r>    -1.7845    -0.0000     8.0000 </r>
       <r>    -1.7129    -0.0000     8.0000 </r>
       <r>    -1.6413    -0.0000     8.0000 </r>
       <r>    -1.5696    -0.0000     8.0000 </r>
       <r>    -1.4980    -0.0000     8.0000 </r>
       <r>    -1.4264    -0.0000     8.0000 </r>
       <r>    -1.3548    -0.0000     8.0000 </r>
       <r>    -1.2832    -0.0000     8.0000 </r>
       <r>    -1.2115    -0.0000     8.0000 </r>
       <r>    -1.1399    -0.0000     8.0000 </r>
       <r>    -1.0683    -0.0000     8.0000 </r>
       <r>    -0.9967    -0.0003     8.0000 </r>
       <r>    -0.9251    -0.0027     7.9998 </r>
       <r>    -0.8535    -0.0161     7.9986 </r>
       <r>    -0.7818    -0.0707     7.9936 </r>
       <r>    -0.7102    -0.2166     7.9780 </r>
       <r>    -0.6386    -0.4154     7.9483 </r>
       <r>    -0.5670    -0.2585     7.9298 </r>
       <r>    -0.4954     1.1004     8.0086 </r>
       <r>    -0.4237     4.0585     8.2993 </r>
       <r>    -0.3521     7.2661     8.8196 </r>
       <r>    -0.2805     8.2416     9.4099 </r>
       <r>    -0.2089     6.1128     9.8477 </r>
       <r>    -0.1373     2.7208    10.0425 </r>
       <r>    -0.0657     0.3574    10.0681 </r>
       <r>     0.0060    -0.4179    10.0382 </r>
       <r>     0.0776    -0.3711    10.0116 </r>
       <r>     0.1492    -0.2613     9.9929 </r>
       <r>     0.2208    -0.3950     9.9646 </r>
       <r>     0.2924    -0.7298     9.9123 </r>
       <r>     0.3640    -0.7095     9.8615 </r>
       <r>     0.4357     0.9771     9.9315 </r>
       <r>     0.5073     5.7135    10.3407 </r>
       <r>     0.5789    13.1088    11.2795 </r>
       <r>     0.6505    19.8174    12.6988 </r>
       <r>     0.7221    21.4062    14.2319 </r>
       <r>     0.7938    16.4832    15.4123 </r>
       <r>     0.8654     8.4280    16.0159 </r>
       <r>     0.9370     2.0582    16.1633 </r>
       <r>     1.0086    -0.6680    16.1155 </r>
       <r>     1.0802    -0.9254    16.0492 </r>
       <r>     1.1518    -0.4816    16.0147 </r>
       <r>     1.2235    -0.1604    16.0032 </r>
       <r>     1.2951    -0.0378    16.0005 </r>
       <r>     1.3667    -0.0066    16.0001 </r>
       <r>     1.4383    -0.0009    16.0000 </r>
       <r>     1.5099    -0.0001    16.0000 </r>
       <r>     1.5815    -0.0000    16.0000 </r>
       <r>     1.6532    -0.0000    16.0000 </r>
       <r>     1.7248    -0.0000    16.0000 </r>
       <r>     1.7964    -0.0000    16.0000 </r>
       <r>     1.8680    -0.0000    16.0000 </r>
       <r>     1.9396    -0.0000    16.0000 </r>
       <r>     2.0113    -0.0000    16.0000 </r>
       <r>     2.0829     0.0000    16.0000 </r>
       <r>     2.1545     0.0000    16.0000 </r>
       <r>     2.2261     0.0000    16.0000 </r>
       <r>     2.2977     0.0000    16.0000 </r>
       <r>     2.3693     0.0000    16.0000 </r>
       <r>     2.4410     0.0000    16.0000 </r>
       <r>     2.5126     0.0000    16.0000 </r>
       <r>     2.5842     0.0000    16.0000 </r>
       <r>     2.6558     0.0000    16.0000 </r>
       <r>     2.7274     0.0000    16.0000 </r>
      </set>
     </set>
    </array>
   </total>
  </dos>
  <time name="totalsc">   55.69   55.84</time>
 </calculation>
 <calculation>
  <scstep>
   <time name="dav">    1.74    1.74</time>
   <time name="total">    3.47    3.48</time>
   <energy>
    <i name="alphaZ">      0.25592358 </i>
    <i name="ewald">    123.01239509 </i>
    <i name="hartreedc">   -278.42824736 </i>
    <i name="XCdc">     24.53677723 </i>
    <i name="pawpsdc">    442.89816466 </i>
    <i name="pawaedc">   -443.66547775 </i>
    <i name="eentropy">      0.02287348 </i>
    <i name="bandstr">    -89.66310716 </i>
    <i name="atom">    197.04175453 </i>
    <i name="e_fr_energy">    -23.98894370 </i>
    <i name="e_wo_entrp">    -24.01181719 </i>
    <i name="e_0_energy">    -23.99656820 </i>
   </energy>
  </scstep>
  <scstep>
   <time name="diag">    0.36    0.36</time>
   <time name="diis">    1.25    1.25</time>
   <time name="orth">    0.01    0.01</time>
   <time name="total">    3.27    3.28</time>
   <energy>
    <i name="e_fr_energy">    -23.98612958 </i>
    <i name="e_wo_entrp">    -24.01138290 </i>
    <i name="e_0_energy">    -23.99454735 </i>
   </energy>
  </scstep>
  <scstep>
   <time name="diag">    0.37    0.37</time>
   <time name="diis">    1.24    1.24</time>
   <time name="orth">    0.01    0.01</time>
   <time name="total">    3.28    3.29</time>
   <energy>
    <i name="e_fr_energy">    -23.99018127 </i>
    <i name="e_wo_entrp">    -24.01714272 </i>
    <i name="e_0_energy">    -23.99916842 </i>
   </energy>
  </scstep>
  <scstep>
   <time name="diag">    0.37    0.37</time>
   <time name="diis">    1.26    1.26</time>
   <time name="orth">    0.01    0.01</time>
   <time name="total">    3.32    3.32</time>
   <energy>
    <i name="e_fr_energy">    -23.98511120 </i>
    <i name="e_wo_entrp">    -24.01102346 </i>
    <i name="e_0_energy">    -23.99374862 </i>
   </energy>
  </scstep>
  <scstep>
   <time name="diag">    0.34    0.34</time>
   <time name="diis">    1.21    1.22</time>
   <time name="orth">    0.01    0.01</time>
   <time name="total">    3.25    3.26</time>
   <energy>
    <i name="e_fr_energy">    -23.98559669 </i>
    <i name="e_wo_entrp">    -24.01078659 </i>
    <i name="e_0_energy">    -23.99399332 </i>
   </energy>
  </scstep>
  <scstep>
   <time name="diag">    0.37    0.37</time>
   <time name="diis">    1.25    1.25</time>
   <time name="orth">    0.01    0.01</time>
   <time name="total">    3.30    3.31</time>
   <energy>
    <i name="e_fr_energy">    -23.98530773 </i>
    <i name="e_wo_entrp">    -24.01050051 </i>
    <i name="e_0_energy">    -23.99370532 </i>
   </energy>
  </scstep>
  <scstep>
   <time name="diag">    0.38    0.38</time>
   <time name="diis">    1.24    1.25</time>
   <time name="orth">    0.01    0.01</time>
   <time name="total">    3.36    3.36</time>
   <energy>
    <i name="e_fr_energy">    -23.98490573 </i>
    <i name="e_wo_entrp">    -24.00972516 </i>
    <i name="e_0_energy">    -23.99317888 </i>
   </energy>
  </scstep>
  <scstep>
   <time name="diag">    0.37    0.37</time>
   <time name="diis">    1.31    1.31</time>
   <time name="orth">    0.01    0.01</time>
   <time name="total">    3.41    3.42</time>
   <energy>
    <i name="e_fr_energy">    -23.98482534 </i>
    <i name="e_wo_entrp">    -24.00935831 </i>
    <i name="e_0_energy">    -23.99300299 </i>
   </energy>
  </scstep>
  <scstep>
   <time name="diag">    0.38    0.38</time>
   <time name="diis">    1.25    1.25</time>
   <time name="orth">    0.01    0.01</time>
   <time name="total">    3.38    3.39</time>
   <energy>
    <i name="e_fr_energy">    -23.98475825 </i>
    <i name="e_wo_entrp">    -24.00893768 </i>
    <i name="e_0_energy">    -23.99281806 </i>
   </energy>
  </scstep>
  <scstep>
   <time name="diag">    0.36    0.36</time>
   <time name="diis">    1.26    1.26</time>
   <time name="orth">    0.01    0.01</time>
   <time name="total">    3.38    3.38</time>
   <energy>
    <i name="e_fr_energy">    -23.98466874 </i>
    <i name="e_wo_entrp">    -24.00837944 </i>
    <i name="e_0_energy">    -23.99257231 </i>
   </energy>
  </scstep>
  <scstep>
   <time name="diag">    0.35    0.35</time>
   <time name="diis">    1.24    1.24</time>
   <time name="orth">    0.01    0.01</time>
   <time name="total">    3.38    3.39</time>
   <energy>
    <i name="e_fr_energy">    -23.98464009 </i>
    <i name="e_wo_entrp">    -24.00816052 </i>
    <i name="e_0_energy">    -23.99248023 </i>
   </energy>
  </scstep>
  <scstep>
   <time name="diag">    0.37    0.37</time>
   <time name="diis">    1.23    1.23</time>
   <time name="orth">    0.01    0.01</time>
   <time name="total">    3.38    3.38</time>
   <energy>
    <i name="e_fr_energy">    -23.98462637 </i>
    <i name="e_wo_entrp">    -24.00803196 </i>
    <i name="e_0_energy">    -23.99242823 </i>
   </energy>
  </scstep>
  <scstep>
   <time name="diag">    0.39    0.39</time>
   <time name="diis">    1.24    1.25</time>
   <time name="orth">    0.01    0.01</time>
   <time name="total">    3.44    3.45</time>
   <energy>
    <i name="e_fr_energy">    -23.98462313 </i>
    <i name="e_wo_entrp">    -24.00801381 </i>
    <i name="e_0_energy">    -23.99242002 </i>
   </energy>
  </scstep>
  <scstep>
   <time name="diag">    0.38    0.38</time>
   <time name="diis">    1.18    1.18</time>
   <time name="orth">    0.01    0.01</time>
   <time name="total">    3.34    3.35</time>
   <energy>
    <i name="e_fr_energy">    -23.98462443 </i>
    <i name="e_wo_entrp">    -24.00805675 </i>
    <i name="e_0_energy">    -23.99243520 </i>
   </energy>
  </scstep>
  <scstep>
   <time name="diag">    0.39    0.39</time>
   <time name="diis">    1.27    1.27</time>
   <time name="orth">    0.01    0.01</time>
   <time name="total">    3.15    3.16</time>
   <energy>
    <i name="alphaZ">      0.25592358 </i>
    <i name="ewald">    123.01239509 </i>
    <i name="hartreedc">   -279.26220786 </i>
    <i name="XCdc">     24.58416146 </i>
    <i name="pawpsdc">    462.34371377 </i>
    <i name="pawaedc">   -463.12189747 </i>
    <i name="eentropy">      0.02348857 </i>
    <i name="bandstr">    -88.86195651 </i>
    <i name="atom">    197.04175453 </i>
    <i name="e_fr_energy">    -23.98462483 </i>
    <i name="e_wo_entrp">    -24.00811340 </i>
    <i name="e_0_energy">    -23.99245435 </i>
   </energy>
  </scstep>
  <structure>
   <crystal>
    <varray name="basis" >
     <v>       9.71982727       0.00000000       0.00000000 </v>
     <v>       0.27715855      10.03307619       0.00000000 </v>
     <v>      -0.10064359       0.17608811       9.70649084 </v>
    </varray>
    <i name="volume">    946.57472985 </i>
    <varray name="rec_basis" >
     <v>       0.10288249      -0.00284208       0.00111832 </v>
     <v>       0.00000000       0.09967033      -0.00180815 </v>
     <v>       0.00000000       0.00000000       0.10302384 </v>
    </varray>
   </crystal>
   <varray name="positions" >
    <v>       0.54026738       0.40273774       0.36413560 </v>
    <v>       0.38795635       0.48374041       0.43625979 </v>
    <v>       0.55373798       0.56638715       0.44413160 </v>
    <v>       0.52349785       0.41446576       0.54503240 </v>
    <v>       0.50419159       0.46731347       0.44474387 </v>
   </varray>
  </structure>
  <varray name="forces" >
   <v>       0.42377083      -0.18001026      -0.51189259 </v>
   <v>      -0.06448561      -0.25343263      -0.20132584 </v>
   <v>       0.31877510       0.72968617       0.67848580 </v>
   <v>      -0.07791419       0.34565372      -0.96819166 </v>
   <v>      -1.38218777       0.45718971       1.60157625 </v>
  </varray>
  <varray name="stress" >
   <v>      -1.41953166      -0.80512732      -0.57647879 </v>
   <v>      -0.80512732      -1.65430955       0.76336923 </v>
   <v>      -0.57647880       0.76336923      -0.26503261 </v>
  </varray>
  <energy>
   <i name="e_fr_energy">    -23.98462483 </i>
   <i name="e_wo_entrp">    -23.99245435 </i>
   <i name="e_0_energy">      0.02348857 </i>
   <i name="kinetic">      0.04367617 </i>
   <i name="lattice kinetic">      0.00000000 </i>
   <i name="nosepot">      0.00137675 </i>
   <i name="nosekinetic">      0.00120457 </i>
   <i name="total">    -23.93836734 </i>
  </energy>
  <dos>
   <i name="efermi">     -8.87896120 </i>
   <total>
    <array>
     <dimension dim="1">gridpoints</dimension>
     <dimension dim="2">spin</dimension>
     <field>energy</field>
     <field>total</field>
     <field>integrated</field>
     <set>
      <set comment="spin 1">
       <r>   -18.7619     0.0000     0.0000 </r>
       <r>   -18.6903     0.0000     0.0000 </r>
       <r>   -18.6187     0.0000     0.0000 </r>
       <r>   -18.5471     0.0000     0.0000 </r>
       <r>   -18.4754     0.0000     0.0000 </r>
       <r>   -18.4038    -0.0000    -0.0000 </r>
       <r>   -18.3322    -0.0000    -0.0000 </r>
       <r>   -18.2606    -0.0000    -0.0000 </r>
       <r>   -18.1890    -0.0000    -0.0000 </r>
       <r>   -18.1173    -0.0000    -0.0000 </r>
       <r>   -18.0457    -0.0000    -0.0000 </r>
       <r>   -17.9741    -0.0000    -0.0000 </r>
       <r>   -17.9025    -0.0000    -0.0000 </r>
       <r>   -17.8309    -0.0000    -0.0000 </r>
       <r>   -17.7592    -0.0000    -0.0000 </r>
       <r>   -17.6876    -0.0000    -0.0000 </r>
       <r>   -17.6160    -0.0000    -0.0000 </r>
       <r>   -17.5444    -0.0000    -0.0000 </r>
       <r>   -17.4728    -0.0001    -0.0000 </r>
       <r>   -17.4011    -0.0008    -0.0001 </r>
       <r>   -17.3295    -0.0054    -0.0004 </r>
       <r>   -17.2579    -0.0291    -0.0025 </r>
       <r>   -17.1863    -0.1123    -0.0106 </r>
       <r>   -17.1147    -0.2953    -0.0317 </r>
       <r>   -17.0430    -0.4385    -0.0631 </r>
       <r>   -16.9714     0.0607    -0.0588 </r>
       <r>   -16.8998     2.0450     0.0877 </r>
       <r>   -16.8282     5.3628     0.4718 </r>
       <r>   -16.7566     8.0060     1.0452 </r>
       <r>   -16.6849     7.7595     1.6009 </r>
       <r>   -16.6133     4.8454     1.9479 </r>
       <r>   -16.5417     1.6398     2.0654 </r>
       <r>   -16.4701    -0.0908     2.0589 </r>
       <r>   -16.3985    -0.4371     2.0276 </r>
       <r>   -16.3268    -0.2631     2.0087 </r>
       <r>   -16.2552    -0.0939     2.0020 </r>
       <r>   -16.1836    -0.0231     2.0003 </r>
       <r>   -16.1120    -0.0041     2.0000 </r>
       <r>   -16.0404    -0.0005     2.0000 </r>
       <r>   -15.9687    -0.0001     2.0000 </r>
       <r>   -15.8971    -0.0000     2.0000 </r>
       <r>   -15.8255    -0.0000     2.0000 </r>
       <r>   -15.7539    -0.0000     2.0000 </r>
       <r>   -15.6823    -0.0000     2.0000 </r>
       <r>   -15.6106    -0.0000     2.0000 </r>
       <r>   -15.5390    -0.0000     2.0000 </r>
       <r>   -15.4674     0.0000     2.0000 </r>
       <r>   -15.3958     0.0000     2.0000 </r>
       <r>   -15.3242     0.0000     2.0000 </r>
       <r>   -15.2525     0.0000     2.0000 </r>
       <r>   -15.1809     0.0000     2.0000 </r>
       <r>   -15.1093     0.0000     2.0000 </r>
       <r>   -15.0377     0.0000     2.0000 </r>
       <r>   -14.9661     0.0000     2.0000 </r>
       <r>   -14.8944     0.0000     2.0000 </r>
       <r>   -14.8228     0.0000     2.0000 </r>
       <r>   -14.7512     0.0000     2.0000 </r>
       <r>   -14.6796     0.0000     2.0000 </r>
       <r>   -14.6080     0.0000     2.0000 </r>
       <r>   -14.5363     0.0000     2.0000 </r>
       <r>   -14.4647     0.0000     2.0000 </r>
       <r>   -14.3931     0.0000     2.0000 </r>
       <r>   -14.3215     0.0000     2.0000 </r>
       <r>   -14.2499     0.0000     2.0000 </r>
       <r>   -14.1782     0.0000     2.0000 </r>
       <r>   -14.1066     0.0000     2.0000 </r>
       <r>   -14.0350     0.0000     2.0000 </r>
       <r>   -13.9634     0.0000     2.0000 </r>
[...]
       <r>     0.2827    -0.6211     9.9322 </r>
       <r>     0.3550    -0.8313     9.8721 </r>
       <r>     0.4273     0.1397     9.8822 </r>
       <r>     0.4996     3.8951    10.1637 </r>
       <r>     0.5718    10.8699    10.9494 </r>
       <r>     0.6441    18.4543    12.2833 </r>
       <r>     0.7164    21.8501    13.8626 </r>
       <r>     0.7887    18.3221    15.1868 </r>
       <r>     0.8610    10.3404    15.9342 </r>
       <r>     0.9332     3.1279    16.1603 </r>
       <r>     1.0055    -0.3993    16.1315 </r>
       <r>     1.0778    -0.9899    16.0599 </r>
       <r>     1.1501    -0.5694    16.0188 </r>
       <r>     1.2223    -0.2003    16.0043 </r>
       <r>     1.2946    -0.0491    16.0007 </r>
       <r>     1.3669    -0.0087    16.0001 </r>
       <r>     1.4392    -0.0012    16.0000 </r>
       <r>     1.5115    -0.0001    16.0000 </r>
       <r>     1.5837    -0.0000    16.0000 </r>
       <r>     1.6560    -0.0000    16.0000 </r>
       <r>     1.7283    -0.0000    16.0000 </r>
       <r>     1.8006    -0.0000    16.0000 </r>
       <r>     1.8729    -0.0000    16.0000 </r>
       <r>     1.9451    -0.0000    16.0000 </r>
       <r>     2.0174    -0.0000    16.0000 </r>
       <r>     2.0897     0.0000    16.0000 </r>
       <r>     2.1620     0.0000    16.0000 </r>
       <r>     2.2342     0.0000    16.0000 </r>
       <r>     2.3065     0.0000    16.0000 </r>
       <r>     2.3788     0.0000    16.0000 </r>
       <r>     2.4511     0.0000    16.0000 </r>
       <r>     2.5234     0.0000    16.0000 </r>
       <r>     2.5956     0.0000    16.0000 </r>
       <r>     2.6679     0.0000    16.0000 </r>
       <r>     2.7402     0.0000    16.0000 </r>
      </set>
     </set>
    </array>
   </total>
  </dos>
  <time name="totalsc">   55.13   55.27</time>
  <eigenvalues>
   <array>
    <dimension dim="1">band</dimension>
    <dimension dim="2">kpoint</dimension>
    <dimension dim="3">spin</dimension>
    <field>eigene</field>
    <field>occ</field>
    <set>
     <set comment="spin 1">
      <set comment="kpoint 1">
       <r>  -17.1162    1.0000 </r>
       <r>   -9.8351    1.0000 </r>
       <r>   -9.4352    1.0000 </r>
       <r>   -8.9702    0.9999 </r>
       <r>   -0.2922    0.0000 </r>
       <r>    0.5931    0.0000 </r>
       <r>    0.7231    0.0000 </r>
       <r>    0.7468    0.0000 </r>
      </set>
      <set comment="kpoint 2">
       <r>  -17.1162    1.0000 </r>
       <r>   -9.8349    1.0000 </r>
       <r>   -9.4350    1.0000 </r>
       <r>   -8.9703    1.0000 </r>
       <r>   -0.2898    0.0000 </r>
       <r>    0.5892    0.0000 </r>
       <r>    0.7033    0.0000 </r>
       <r>    0.7421    0.0000 </r>
      </set>
      <set comment="kpoint 3">
       <r>  -17.1162    1.0000 </r>
       <r>   -9.8347    1.0000 </r>
       <r>   -9.4349    1.0000 </r>
       <r>   -8.9702    0.9999 </r>
       <r>   -0.2822    0.0000 </r>
       <r>    0.5675    0.0000 </r>
       <r>    0.6906    0.0000 </r>
       <r>    0.7306    0.0000 </r>
      </set>
      <set comment="kpoint 4">
       <r>  -17.1161    1.0000 </r>
       <r>   -9.8350    1.0000 </r>
       <r>   -9.4350    1.0000 </r>
       <r>   -8.9702    1.0000 </r>
       <r>   -0.2904    0.0000 </r>
       <r>    0.5866    0.0000 </r>
       <r>    0.7179    0.0000 </r>
       <r>    0.7432    0.0000 </r>
      </set>
     </set>
    </set>
   </array>
  </eigenvalues>
  <separator name="orbital magnetization" >
   <v name="MAGDIPOLOUT">      0.00000000      0.00000000      0.00000000</v>
  </separator>
  <dos>
   <i name="efermi">     -8.80187985 </i>
   <total>
    <array>
     <dimension dim="1">gridpoints</dimension>
     <dimension dim="2">spin</dimension>
     <field>energy</field>
     <field>total</field>
     <field>integrated</field>
     <set>
      <set comment="spin 1">
       <r>   -19.1162     0.0000     0.0000 </r>
       <r>   -19.0433     0.0000     0.0000 </r>
       <r>   -18.9705     0.0000     0.0000 </r>
       <r>   -18.8976     0.0000     0.0000 </r>
       <r>   -18.8247     0.0000     0.0000 </r>
       <r>   -18.7518    -0.0000    -0.0000 </r>
       <r>   -18.6789    -0.0000    -0.0000 </r>
       <r>   -18.6061    -0.0000    -0.0000 </r>
       <r>   -18.5332    -0.0000    -0.0000 </r>
       <r>   -18.4603    -0.0000    -0.0000 </r>
       <r>   -18.3874    -0.0000    -0.0000 </r>
       <r>   -18.3146    -0.0000    -0.0000 </r>
       <r>   -18.2417    -0.0000    -0.0000 </r>
       <r>   -18.1688    -0.0000    -0.0000 </r>
       <r>   -18.0959    -0.0000    -0.0000 </r>
       <r>   -18.0231    -0.0000    -0.0000 </r>
       <r>   -17.9502    -0.0000    -0.0000 </r>
       <r>   -17.8773    -0.0000    -0.0000 </r>
       <r>   -17.8044    -0.0002    -0.0000 </r>
       <r>   -17.7316    -0.0015    -0.0001 </r>
       <r>   -17.6587    -0.0100    -0.0009 </r>
       <r>   -17.5858    -0.0493    -0.0044 </r>
       <r>   -17.5129    -0.1702    -0.0168 </r>
       <r>   -17.4400    -0.3773    -0.0443 </r>
       <r>   -17.3672    -0.3609    -0.0706 </r>
       <r>   -17.2943     0.7021    -0.0195 </r>
       <r>   -17.2214     3.4462     0.2317 </r>
       <r>   -17.1485     6.8380     0.7300 </r>
       <r>   -17.0757     8.3034     1.3351 </r>
       <r>   -17.0028     6.5057     1.8092 </r>
       <r>   -16.9299     3.0692     2.0329 </r>
       <r>   -16.8570     0.5024     2.0695 </r>
       <r>   -16.7842    -0.3962     2.0406 </r>
       <r>   -16.7113    -0.3550     2.0148 </r>
       <r>   -16.6384    -0.1511     2.0038 </r>
       <r>   -16.5655    -0.0419     2.0007 </r>
       <r>   -16.4927    -0.0082     2.0001 </r>
       <r>   -16.4198    -0.0012     2.0000 </r>
       <r>   -16.3469    -0.0001     2.0000 </r>
       <r>   -16.2740    -0.0000     2.0000 </r>
       <r>   -16.2011    -0.0000     2.0000 </r>
       <r>   -16.1283    -0.0000     2.0000 </r>
       <r>   -16.0554    -0.0000     2.0000 </r>
       <r>   -15.9825    -0.0000     2.0000 </r>
       <r>   -15.9096    -0.0000     2.0000 </r>
       <r>   -15.8368    -0.0000     2.0000 </r>
       <r>   -15.7639     0.0000     2.0000 </r>
       <r>   -15.6910     0.0000     2.0000 </r>
       <r>   -15.6181     0.0000     2.0000 </r>
       <r>   -15.5453     0.0000     2.0000 </r>
       <r>   -15.4724     0.0000     2.0000 </r>
       <r>   -15.3995     0.0000     2.0000 </r>
       <r>   -15.3266     0.0000     2.0000 </r>
       <r>   -15.2537     0.0000     2.0000 </r>
       <r>   -15.1809     0.0000     2.0000 </r>
       <r>   -15.1080     0.0000     2.0000 </r>
       <r>   -15.0351     0.0000     2.0000 </r>
       <r>   -14.9622     0.0000     2.0000 </r>
       <r>   -14.8894     0.0000     2.0000 </r>
       <r>   -14.8165     0.0000     2.0000 </r>
       <r>   -14.7436     0.0000     2.0000 </r>
       <r>   -14.6707     0.0000     2.0000 </r>
       <r>   -14.5979     0.0000     2.0000 </r>
       <r>   -14.5250     0.0000     2.0000 </r>
       <r>   -14.4521     0.0000     2.0000 </r>
       <r>   -14.3792     0.0000     2.0000 </r>
       <r>   -14.3064     0.0000     2.0000 </r>
       <r>   -14.2335     0.0000     2.0000 </r>
       <r>   -14.1606     0.0000     2.0000 </r>
       <r>   -14.0877     0.0000     2.0000 </r>
       <r>   -14.0148     0.0000     2.0000 </r>
       <r>   -13.9420     0.0000     2.0000 </r>
       <r>   -13.8691     0.0000     2.0000 </r>
       <r>   -13.7962     0.0000     2.0000 </r>
       <r>   -13.7233     0.0000     2.0000 </r>
       <r>   -13.6505     0.0000     2.0000 </r>
       <r>   -13.5776     0.0000     2.0000 </r>
       <r>   -13.5047     0.0000     2.0000 </r>
       <r>   -13.4318     0.0000     2.0000 </r>
       <r>   -13.3590     0.0000     2.0000 </r>
       <r>   -13.2861     0.0000     2.0000 </r>
       <r>   -13.2132     0.0000     2.0000 </r>
       <r>   -13.1403     0.0000     2.0000 </r>
       <r>   -13.0675     0.0000     2.0000 </r>
       <r>   -12.9946     0.0000     2.0000 </r>
       <r>   -12.9217     0.0000     2.0000 </r>
       <r>   -12.8488     0.0000     2.0000 </r>
       <r>   -12.7759     0.0000     2.0000 </r>
       <r>   -12.7031     0.0000     2.0000 </r>
       <r>   -12.6302     0.0000     2.0000 </r>
       <r>   -12.5573     0.0000     2.0000 </r>
       <r>   -12.4844     0.0000     2.0000 </r>
       <r>   -12.4116     0.0000     2.0000 </r>
       <r>   -12.3387     0.0000     2.0000 </r>
       <r>   -12.2658     0.0000     2.0000 </r>
       <r>   -12.1929     0.0000     2.0000 </r>
       <r>   -12.1201     0.0000     2.0000 </r>
       <r>   -12.0472     0.0000     2.0000 </r>
       <r>   -11.9743     0.0000     2.0000 </r>
       <r>   -11.9014     0.0000     2.0000 </r>
       <r>   -11.8286     0.0000     2.0000 </r>
       <r>   -11.7557     0.0000     2.0000 </r>
       <r>   -11.6828     0.0000     2.0000 </r>
       <r>   -11.6099     0.0000     2.0000 </r>
       <r>   -11.5370     0.0000     2.0000 </r>
       <r>   -11.4642    -0.0000     2.0000 </r>
       <r>   -11.3913    -0.0000     2.0000 </r>
       <r>   -11.3184    -0.0000     2.0000 </r>
       <r>   -11.2455    -0.0000     2.0000 </r>
       <r>   -11.1727    -0.0000     2.0000 </r>
       <r>   -11.0998    -0.0000     2.0000 </r>
       <r>   -11.0269    -0.0000     2.0000 </r>
       <r>   -10.9540    -0.0000     2.0000 </r>
       <r>   -10.8812    -0.0000     2.0000 </r>
       <r>   -10.8083    -0.0000     2.0000 </r>
       <r>   -10.7354    -0.0000     2.0000 </r>
       <r>   -10.6625    -0.0000     2.0000 </r>
       <r>   -10.5896    -0.0000     2.0000 </r>
       <r>   -10.5168    -0.0002     2.0000 </r>
       <r>   -10.4439    -0.0018     1.9999 </r>
       <r>   -10.3710    -0.0117     1.9990 </r>
       <r>   -10.2981    -0.0558     1.9949 </r>
       <r>   -10.2253    -0.1862     1.9814 </r>
       <r>   -10.1524    -0.3935     1.9527 </r>
       <r>   -10.0795    -0.3246     1.9290 </r>
       <r>   -10.0066     0.8708     1.9925 </r>
       <r>    -9.9338     3.7235     2.2639 </r>
       <r>    -9.8609     6.9735     2.7721 </r>
       <r>    -9.7880     7.9793     3.3536 </r>
       <r>    -9.7151     5.7911     3.7756 </r>
       <r>    -9.6423     2.8708     3.9848 </r>
       <r>    -9.5694     2.5229     4.1687 </r>
       <r>    -9.4965     5.1306     4.5426 </r>
       <r>    -9.4236     7.6968     5.1035 </r>
       <r>    -9.3507     7.2184     5.6295 </r>
       <r>    -9.2779     4.0049     5.9214 </r>
       <r>    -9.2050     1.0653     5.9990 </r>
       <r>    -9.1321     0.9619     6.0691 </r>
       <r>    -9.0592     3.8024     6.3462 </r>
       <r>    -8.9864     7.1957     6.8706 </r>
       <r>    -8.9135     8.0981     7.4608 </r>
       <r>    -8.8406     5.7666     7.8811 </r>
       <r>    -8.7677     2.3563     8.0528 </r>
       <r>    -8.6949     0.1702     8.0652 </r>
       <r>    -8.6220    -0.4335     8.0336 </r>
       <r>    -8.5491    -0.3071     8.0112 </r>
       <r>    -8.4762    -0.1174     8.0026 </r>
       <r>    -8.4034    -0.0300     8.0005 </r>
       <r>    -8.3305    -0.0055     8.0001 </r>
       <r>    -8.2576    -0.0007     8.0000 </r>
       <r>    -8.1847    -0.0001     8.0000 </r>
       <r>    -8.1118    -0.0000     8.0000 </r>
       <r>    -8.0390    -0.0000     8.0000 </r>
       <r>    -7.9661    -0.0000     8.0000 </r>
       <r>    -7.8932    -0.0000     8.0000 </r>
       <r>    -7.8203    -0.0000     8.0000 </r>
       <r>    -7.7475    -0.0000     8.0000 </r>
       <r>    -7.6746     0.0000     8.0000 </r>
       <r>    -7.6017     0.0000     8.0000 </r>
       <r>    -7.5288     0.0000     8.0000 </r>
       <r>    -7.4560     0.0000     8.0000 </r>
       <r>    -7.3831     0.0000     8.0000 </r>
       <r>    -7.3102     0.0000     8.0000 </r>
       <r>    -7.2373     0.0000     8.0000 </r>
       <r>    -7.1645     0.0000     8.0000 </r>
       <r>    -7.0916     0.0000     8.0000 </r>
       <r>    -7.0187     0.0000     8.0000 </r>
       <r>    -6.9458     0.0000     8.0000 </r>
       <r>    -6.8729     0.0000     8.0000 </r>
       <r>    -6.8001     0.0000     8.0000 </r>
       <r>    -6.7272     0.0000     8.0000 </r>
       <r>    -6.6543     0.0000     8.0000 </r>
       <r>    -6.5814     0.0000     8.0000 </r>
       <r>    -6.5086     0.0000     8.0000 </r>
       <r>    -6.4357     0.0000     8.0000 </r>
       <r>    -6.3628     0.0000     8.0000 </r>
       <r>    -6.2899     0.0000     8.0000 </r>
       <r>    -6.2171     0.0000     8.0000 </r>
       <r>    -6.1442     0.0000     8.0000 </r>
       <r>    -6.0713     0.0000     8.0000 </r>
       <r>    -5.9984     0.0000     8.0000 </r>
       <r>    -5.9255     0.0000     8.0000 </r>
       <r>    -5.8527     0.0000     8.0000 </r>
       <r>    -5.7798     0.0000     8.0000 </r>
       <r>    -5.7069     0.0000     8.0000 </r>
       <r>    -5.6340     0.0000     8.0000 </r>
       <r>    -5.5612     0.0000     8.0000 </r>
       <r>    -5.4883     0.0000     8.0000 </r>
       <r>    -5.4154     0.0000     8.0000 </r>
       <r>    -5.3425     0.0000     8.0000 </r>
       <r>    -5.2697     0.0000     8.0000 </r>
       <r>    -5.1968     0.0000     8.0000 </r>
       <r>    -5.1239     0.0000     8.0000 </r>
       <r>    -5.0510     0.0000     8.0000 </r>
       <r>    -4.9782     0.0000     8.0000 </r>
       <r>    -4.9053     0.0000     8.0000 </r>
       <r>    -4.8324     0.0000     8.0000 </r>
       <r>    -4.7595     0.0000     8.0000 </r>
       <r>    -4.6866     0.0000     8.0000 </r>
       <r>    -4.6138     0.0000     8.0000 </r>
       <r>    -4.5409     0.0000     8.0000 </r>
       <r>    -4.4680     0.0000     8.0000 </r>
       <r>    -4.3951     0.0000     8.0000 </r>
       <r>    -4.3223     0.0000     8.0000 </r>
       <r>    -4.2494     0.0000     8.0000 </r>
       <r>    -4.1765     0.0000     8.0000 </r>
       <r>    -4.1036     0.0000     8.0000 </r>
       <r>    -4.0308     0.0000     8.0000 </r>
       <r>    -3.9579     0.0000     8.0000 </r>
       <r>    -3.8850     0.0000     8.0000 </r>
       <r>    -3.8121     0.0000     8.0000 </r>
       <r>    -3.7393     0.0000     8.0000 </r>
       <r>    -3.6664     0.0000     8.0000 </r>
       <r>    -3.5935     0.0000     8.0000 </r>
       <r>    -3.5206     0.0000     8.0000 </r>
       <r>    -3.4477     0.0000     8.0000 </r>
       <r>    -3.3749     0.0000     8.0000 </r>
       <r>    -3.3020     0.0000     8.0000 </r>
       <r>    -3.2291     0.0000     8.0000 </r>
       <r>    -3.1562     0.0000     8.0000 </r>
       <r>    -3.0834     0.0000     8.0000 </r>
       <r>    -3.0105     0.0000     8.0000 </r>
       <r>    -2.9376     0.0000     8.0000 </r>
       <r>    -2.8647     0.0000     8.0000 </r>
       <r>    -2.7919     0.0000     8.0000 </r>
       <r>    -2.7190     0.0000     8.0000 </r>
       <r>    -2.6461     0.0000     8.0000 </r>
       <r>    -2.5732     0.0000     8.0000 </r>
       <r>    -2.5004     0.0000     8.0000 </r>
       <r>    -2.4275     0.0000     8.0000 </r>
       <r>    -2.3546     0.0000     8.0000 </r>
       <r>    -2.2817     0.0000     8.0000 </r>
       <r>    -2.2088     0.0000     8.0000 </r>
       <r>    -2.1360     0.0000     8.0000 </r>
       <r>    -2.0631     0.0000     8.0000 </r>
       <r>    -1.9902     0.0000     8.0000 </r>
       <r>    -1.9173    -0.0000     8.0000 </r>
       <r>    -1.8445    -0.0000     8.0000 </r>
       <r>    -1.7716    -0.0000     8.0000 </r>
       <r>    -1.6987    -0.0000     8.0000 </r>
       <r>    -1.6258    -0.0000     8.0000 </r>
       <r>    -1.5530    -0.0000     8.0000 </r>
       <r>    -1.4801    -0.0000     8.0000 </r>
       <r>    -1.4072    -0.0000     8.0000 </r>
       <r>    -1.3343    -0.0000     8.0000 </r>
       <r>    -1.2614    -0.0000     8.0000 </r>
       <r>    -1.1886    -0.0000     8.0000 </r>
       <r>    -1.1157    -0.0000     8.0000 </r>
       <r>    -1.0428    -0.0000     8.0000 </r>
       <r>    -0.9699    -0.0002     8.0000 </r>
       <r>    -0.8971    -0.0018     7.9999 </r>
       <r>    -0.8242    -0.0119     7.9990 </r>
       <r>    -0.7513    -0.0565     7.9949 </r>
       <r>    -0.6784    -0.1878     7.9812 </r>
       <r>    -0.6056    -0.3945     7.9524 </r>
       <r>    -0.5327    -0.3188     7.9292 </r>
       <r>    -0.4598     0.8942     7.9944 </r>
       <r>    -0.3869     3.7786     8.2697 </r>
       <r>    -0.3141     7.0998     8.7871 </r>
       <r>    -0.2412     8.2631     9.3893 </r>
       <r>    -0.1683     6.2014     9.8413 </r>
       <r>    -0.0954     2.7576    10.0422 </r>
       <r>    -0.0225     0.3494    10.0677 </r>
       <r>     0.0503    -0.4293    10.0364 </r>
       <r>     0.1232    -0.3988    10.0074 </r>
       <r>     0.1961    -0.3595     9.9812 </r>
       <r>     0.2690    -0.5679     9.9398 </r>
       <r>     0.3418    -0.7217     9.8872 </r>
       <r>     0.4147     0.1600     9.8988 </r>
       <r>     0.4876     3.4135    10.1476 </r>
       <r>     0.5605     9.4568    10.8368 </r>
       <r>     0.6333    16.4611    12.0364 </r>
       <r>     0.7062    20.6274    13.5397 </r>
       <r>     0.7791    18.8673    14.9146 </r>
       <r>     0.8520    12.0428    15.7923 </r>
       <r>     0.9248     4.5946    16.1271 </r>
       <r>     0.9977     0.2078    16.1423 </r>
       <r>     1.0706    -0.9482    16.0732 </r>
       <r>     1.1435    -0.6628    16.0249 </r>
       <r>     1.2164    -0.2582    16.0060 </r>
       <r>     1.2892    -0.0680    16.0011 </r>
       <r>     1.3621    -0.0129    16.0001 </r>
       <r>     1.4350    -0.0018    16.0000 </r>
       <r>     1.5079    -0.0002    16.0000 </r>
       <r>     1.5807    -0.0000    16.0000 </r>
       <r>     1.6536    -0.0000    16.0000 </r>
       <r>     1.7265    -0.0000    16.0000 </r>
       <r>     1.7994    -0.0000    16.0000 </r>
       <r>     1.8722    -0.0000    16.0000 </r>
       <r>     1.9451    -0.0000    16.0000 </r>
       <r>     2.0180    -0.0000    16.0000 </r>
       <r>     2.0909     0.0000    16.0000 </r>
       <r>     2.1637     0.0000    16.0000 </r>
       <r>     2.2366     0.0000    16.0000 </r>
       <r>     2.3095     0.0000    16.0000 </r>
       <r>     2.3824     0.0000    16.0000 </r>
       <r>     2.4553     0.0000    16.0000 </r>
       <r>     2.5281     0.0000    16.0000 </r>
       <r>     2.6010     0.0000    16.0000 </r>
       <r>     2.6739     0.0000    16.0000 </r>
       <r>     2.7468     0.0000    16.0000 </r>
      </set>
     </set>
    </array>
   </total>
  </dos>
 </calculation>
 <structure name="finalpos" >
  <crystal>
   <varray name="basis" >
    <v>       9.71982727       0.00000000       0.00000000 </v>
    <v>       0.27715855      10.03307619       0.00000000 </v>
    <v>      -0.10064359       0.17608811       9.70649084 </v>
   </varray>
   <i name="volume">    946.57472985 </i>
   <varray name="rec_basis" >
    <v>       0.10288249      -0.00284208       0.00111832 </v>
    <v>       0.00000000       0.09967033      -0.00180815 </v>
    <v>       0.00000000       0.00000000       0.10302384 </v>
   </varray>
  </crystal>
  <varray name="positions" >
   <v>       0.53663390       0.40136307       0.36599223 </v>
   <v>       0.39727644       0.48461527       0.43505207 </v>
   <v>       0.56349130       0.55807495       0.44627447 </v>
   <v>       0.52944581       0.41321443       0.54364471 </v>
   <v>       0.50241090       0.46815131       0.44462697 </v>
  </varray>
  <varray name="velocities" >
   <v>      -0.00091893       0.00147240       0.00044960 </v>
   <v>       0.00616708      -0.00123224       0.00256656 </v>
   <v>       0.00093703       0.00230889       0.00282508 </v>
   <v>      -0.00130541      -0.00096870       0.00202497 </v>
   <v>      -0.00040628      -0.00013158      -0.00065492 </v>
  </varray>
 </structure>
</modeling>
