unknown system                          
           1
     9.719827    0.000000    0.000000
     0.277159   10.033076    0.000000
    -0.100644    0.176088    9.706491
   H    C 
   4   1
Direct configuration=     1
   0.53799889  0.40680401  0.36058686
   0.39470903  0.48046708  0.43818464
   0.55258882  0.56501194  0.44280394
   0.52818585  0.41640570  0.53918039
   0.50352362  0.46720043  0.44547683
Direct configuration=     2
   0.53942968  0.40433621  0.36044184
   0.38973186  0.48215696  0.43704056
   0.55426404  0.56806379  0.44283482
   0.52628065  0.41479109  0.54327982
   0.50383803  0.46714554  0.44524028
Direct configuration=     3
   0.54026738  0.40273774  0.36413560
   0.38795635  0.48374041  0.43625979
   0.55373798  0.56638715  0.44413160
   0.52349785  0.41446576  0.54503240
   0.50419159  0.46731347  0.44474387
Direct configuration=     4
   0.54294313  0.40026983  0.36558370
   0.38618625  0.48407854  0.43455959
   0.55462248  0.56721873  0.44791653
   0.52059401  0.41527043  0.54279251
   0.50428431  0.46735456  0.44463622
Direct configuration=     5
   0.54481693  0.40061646  0.36535824
   0.38872581  0.48390786  0.43280068
   0.55405577  0.56526971  0.44804433
   0.51963561  0.41566603  0.54050789
   0.50404385  0.46746924  0.44498101
Direct configuration=     6
   0.54472483  0.40354091  0.36618338
   0.39503674  0.48335039  0.43060743
   0.55430809  0.56418930  0.44572215
   0.52077568  0.41230935  0.54487141
   0.50341016  0.46764159  0.44492496
Direct configuration=     7
   0.54271776  0.40451594  0.36504205
   0.39512667  0.48373033  0.42826845
   0.55915367  0.56423361  0.44247865
   0.52501795  0.41208489  0.54502460
   0.50281315  0.46754378  0.44547201
Direct configuration=     8
   0.54139233  0.40290084  0.36279617
   0.38880229  0.48606646  0.42566705
   0.56217311  0.56253019  0.44114416
   0.52904469  0.41356095  0.54141984
   0.50286340  0.46750268  0.44628680
Direct configuration=     9
   0.53910524  0.40087931  0.36370516
   0.38758372  0.48673831  0.42791985
   0.56252360  0.55901244  0.44082549
   0.53042340  0.41600369  0.53745589
   0.50301131  0.46770455  0.44638012
Direct configuration=    10
   0.53755283  0.39989067  0.36554263
   0.39110935  0.48584751  0.43248552
   0.56255427  0.55576606  0.44344939
   0.53075122  0.41418313  0.54161974
   0.50281717  0.46828289  0.44528189
