   5   5   0   0
  0.2118819E+03  0.1022071E-08  0.1009081E-08  0.1027544E-08  0.2000000E-14
   50.000000000000000     
  CAR 
 unknown system                          
      2.67785451    -18.73115632  301     -8.97980845      1.00000000
    -18.731  0.0000E+00  0.0000E+00
    -18.660  0.0000E+00  0.0000E+00
    -18.588  0.0000E+00  0.0000E+00
    -18.517  0.0000E+00  0.0000E+00
    -18.446  0.0000E+00  0.0000E+00
    -18.374 -0.3137E-27 -0.2239E-28
    -18.303 -0.9266E-25 -0.6635E-26
    -18.232 -0.2122E-22 -0.1521E-23
    -18.160 -0.3758E-20 -0.2697E-21
    -18.089 -0.5143E-18 -0.3698E-19
    -18.018 -0.5440E-16 -0.3919E-17
    -17.946 -0.4443E-14 -0.3210E-15
    -17.875 -0.2708E-12 -0.1965E-13
    -17.803 -0.1316E-10 -0.9586E-12
    -17.732 -0.4905E-09 -0.3596E-10
    -17.661 -0.1406E-07 -0.1039E-08
    -17.589 -0.3092E-06 -0.2311E-07
    -17.518 -0.5206E-05 -0.3946E-06
    -17.447 -0.6683E-04 -0.5164E-05
    -17.375 -0.6509E-03 -0.5161E-04
    -17.304 -0.4771E-02 -0.3921E-03
    -17.233 -0.2597E-01 -0.2245E-02
    -17.161 -0.1024E+00 -0.9556E-02
    -17.090 -0.2778E+00 -0.2938E-01
    -17.018 -0.4393E+00 -0.6073E-01
    -16.947 -0.3297E-01 -0.6308E-01
    -16.876  0.1792E+01  0.6480E-01
    -16.804  0.5035E+01  0.4241E+00
    -16.733  0.7852E+01  0.9844E+00
    -16.662  0.7937E+01  0.1551E+01
    -16.590  0.5213E+01  0.1923E+01
    -16.519  0.1933E+01  0.2061E+01
    -16.448  0.2027E-01  0.2062E+01
    -16.376 -0.4394E+00  0.2031E+01
    -16.305 -0.2889E+00  0.2010E+01
    -16.233 -0.1089E+00  0.2002E+01
    -16.162 -0.2810E-01  0.2000E+01
    -16.091 -0.5246E-02  0.2000E+01
    -16.019 -0.7265E-03  0.2000E+01
    -15.948 -0.7569E-04  0.2000E+01
    -15.877 -0.5979E-05  0.2000E+01
    -15.805 -0.3602E-06  0.2000E+01
    -15.734 -0.1660E-07  0.2000E+01
    -15.663 -0.5871E-09  0.2000E+01
    -15.591 -0.1597E-10  0.2000E+01
    -15.520 -0.3298E-12  0.2000E+01
    -15.448 -0.6223E-14  0.2000E+01
    -15.377  0.0000E+00  0.2000E+01
    -15.306  0.0000E+00  0.2000E+01
    -15.234  0.0000E+00  0.2000E+01
    -15.163  0.0000E+00  0.2000E+01
    -15.092  0.0000E+00  0.2000E+01
    -15.020  0.0000E+00  0.2000E+01
    -14.949  0.0000E+00  0.2000E+01
    -14.878  0.0000E+00  0.2000E+01
    -14.806  0.0000E+00  0.2000E+01
    -14.735  0.0000E+00  0.2000E+01
    -14.663  0.0000E+00  0.2000E+01
    -14.592  0.0000E+00  0.2000E+01
    -14.521  0.0000E+00  0.2000E+01
    -14.449  0.0000E+00  0.2000E+01
    -14.378  0.0000E+00  0.2000E+01
    -14.307  0.0000E+00  0.2000E+01
    -14.235  0.0000E+00  0.2000E+01
    -14.164  0.0000E+00  0.2000E+01
    -14.093  0.0000E+00  0.2000E+01
    -14.021  0.0000E+00  0.2000E+01
    -13.950  0.0000E+00  0.2000E+01
    -13.878  0.0000E+00  0.2000E+01
    -13.807  0.0000E+00  0.2000E+01
    -13.736  0.0000E+00  0.2000E+01
    -13.664  0.0000E+00  0.2000E+01
    -13.593  0.0000E+00  0.2000E+01
    -13.522  0.0000E+00  0.2000E+01
    -13.450  0.0000E+00  0.2000E+01
    -13.379  0.0000E+00  0.2000E+01
    -13.308  0.0000E+00  0.2000E+01
    -13.236  0.0000E+00  0.2000E+01
    -13.165  0.0000E+00  0.2000E+01
    -13.093  0.0000E+00  0.2000E+01
    -13.022  0.0000E+00  0.2000E+01
    -12.951  0.0000E+00  0.2000E+01
    -12.879  0.0000E+00  0.2000E+01
    -12.808  0.0000E+00  0.2000E+01
    -12.737  0.0000E+00  0.2000E+01
    -12.665  0.0000E+00  0.2000E+01
    -12.594  0.0000E+00  0.2000E+01
    -12.523  0.0000E+00  0.2000E+01
    -12.451  0.0000E+00  0.2000E+01
    -12.380  0.0000E+00  0.2000E+01
    -12.308  0.0000E+00  0.2000E+01
    -12.237  0.0000E+00  0.2000E+01
    -12.166  0.0000E+00  0.2000E+01
    -12.094  0.0000E+00  0.2000E+01
    -12.023  0.0000E+00  0.2000E+01
    -11.952  0.0000E+00  0.2000E+01
    -11.880  0.0000E+00  0.2000E+01
    -11.809  0.0000E+00  0.2000E+01
    -11.738  0.0000E+00  0.2000E+01
    -11.666  0.0000E+00  0.2000E+01
    -11.595  0.0000E+00  0.2000E+01
    -11.523  0.0000E+00  0.2000E+01
    -11.452  0.0000E+00  0.2000E+01
    -11.381  0.0000E+00  0.2000E+01
    -11.309  0.0000E+00  0.2000E+01
    -11.238  0.0000E+00  0.2000E+01
    -11.167  0.0000E+00  0.2000E+01
    -11.095  0.0000E+00  0.2000E+01
    -11.024  0.0000E+00  0.2000E+01
    -10.953 -0.1632E-27  0.2000E+01
    -10.881 -0.4961E-25  0.2000E+01
    -10.810 -0.1170E-22  0.2000E+01
    -10.738 -0.2133E-20  0.2000E+01
    -10.667 -0.3007E-18  0.2000E+01
    -10.596 -0.3275E-16  0.2000E+01
    -10.524 -0.2756E-14  0.2000E+01
    -10.453 -0.1744E-12  0.2000E+01
    -10.382 -0.8673E-11  0.2000E+01
    -10.310 -0.3337E-09  0.2000E+01
    -10.239 -0.9882E-08  0.2000E+01
    -10.168 -0.2249E-06  0.2000E+01
    -10.096 -0.3926E-05  0.2000E+01
    -10.025 -0.5244E-04  0.2000E+01
     -9.953 -0.5340E-03  0.2000E+01
     -9.882 -0.4123E-02  0.2000E+01
     -9.811 -0.2394E-01  0.1998E+01
     -9.739 -0.1030E+00  0.1991E+01
     -9.668 -0.3186E+00  0.1968E+01
     -9.597 -0.6572E+00  0.1921E+01
     -9.525 -0.6578E+00  0.1874E+01
     -9.454  0.8338E+00  0.1934E+01
     -9.383  0.4971E+01  0.2288E+01
     -9.311  0.1134E+02  0.3097E+01
     -9.240  0.1732E+02  0.4333E+01
     -9.168  0.1969E+02  0.5738E+01
     -9.097  0.1708E+02  0.6957E+01
     -9.026  0.1099E+02  0.7742E+01
     -8.954  0.4683E+01  0.8076E+01
     -8.883  0.6907E+00  0.8125E+01
     -8.812 -0.6856E+00  0.8076E+01
     -8.740 -0.6415E+00  0.8030E+01
     -8.669 -0.3027E+00  0.8009E+01
     -8.598 -0.9589E-01  0.8002E+01
     -8.526 -0.2190E-01  0.8000E+01
     -8.455 -0.3710E-02  0.8000E+01
     -8.383 -0.4729E-03  0.8000E+01
     -8.312 -0.4572E-04  0.8000E+01
     -8.241 -0.3372E-05  0.8000E+01
     -8.169 -0.1903E-06  0.8000E+01
     -8.098 -0.8237E-08  0.8000E+01
     -8.027 -0.2741E-09  0.8000E+01
     -7.955 -0.7024E-11  0.8000E+01
     -7.884 -0.1369E-12  0.8000E+01
     -7.813  0.0000E+00  0.8000E+01
     -7.741  0.0000E+00  0.8000E+01
     -7.670  0.0000E+00  0.8000E+01
     -7.598  0.0000E+00  0.8000E+01
     -7.527  0.0000E+00  0.8000E+01
     -7.456  0.0000E+00  0.8000E+01
     -7.384  0.0000E+00  0.8000E+01
     -7.313  0.0000E+00  0.8000E+01
     -7.242  0.0000E+00  0.8000E+01
     -7.170  0.0000E+00  0.8000E+01
     -7.099  0.0000E+00  0.8000E+01
     -7.028  0.0000E+00  0.8000E+01
     -6.956  0.0000E+00  0.8000E+01
     -6.885  0.0000E+00  0.8000E+01
     -6.813  0.0000E+00  0.8000E+01
     -6.742  0.0000E+00  0.8000E+01
     -6.671  0.0000E+00  0.8000E+01
     -6.599  0.0000E+00  0.8000E+01
     -6.528  0.0000E+00  0.8000E+01
     -6.457  0.0000E+00  0.8000E+01
     -6.385  0.0000E+00  0.8000E+01
     -6.314  0.0000E+00  0.8000E+01
     -6.243  0.0000E+00  0.8000E+01
     -6.171  0.0000E+00  0.8000E+01
     -6.100  0.0000E+00  0.8000E+01
     -6.028  0.0000E+00  0.8000E+01
     -5.957  0.0000E+00  0.8000E+01
     -5.886  0.0000E+00  0.8000E+01
     -5.814  0.0000E+00  0.8000E+01
     -5.743  0.0000E+00  0.8000E+01
     -5.672  0.0000E+00  0.8000E+01
     -5.600  0.0000E+00  0.8000E+01
     -5.529  0.0000E+00  0.8000E+01
     -5.458  0.0000E+00  0.8000E+01
     -5.386  0.0000E+00  0.8000E+01
     -5.315  0.0000E+00  0.8000E+01
     -5.243  0.0000E+00  0.8000E+01
     -5.172  0.0000E+00  0.8000E+01
     -5.101  0.0000E+00  0.8000E+01
     -5.029  0.0000E+00  0.8000E+01
     -4.958  0.0000E+00  0.8000E+01
     -4.887  0.0000E+00  0.8000E+01
     -4.815  0.0000E+00  0.8000E+01
     -4.744  0.0000E+00  0.8000E+01
     -4.673  0.0000E+00  0.8000E+01
     -4.601  0.0000E+00  0.8000E+01
     -4.530  0.0000E+00  0.8000E+01
     -4.458  0.0000E+00  0.8000E+01
     -4.387  0.0000E+00  0.8000E+01
     -4.316  0.0000E+00  0.8000E+01
     -4.244  0.0000E+00  0.8000E+01
     -4.173  0.0000E+00  0.8000E+01
     -4.102  0.0000E+00  0.8000E+01
     -4.030  0.0000E+00  0.8000E+01
     -3.959  0.0000E+00  0.8000E+01
     -3.888  0.0000E+00  0.8000E+01
     -3.816  0.0000E+00  0.8000E+01
     -3.745  0.0000E+00  0.8000E+01
     -3.673  0.0000E+00  0.8000E+01
     -3.602  0.0000E+00  0.8000E+01
     -3.531  0.0000E+00  0.8000E+01
     -3.459  0.0000E+00  0.8000E+01
     -3.388  0.0000E+00  0.8000E+01
     -3.317  0.0000E+00  0.8000E+01
     -3.245  0.0000E+00  0.8000E+01
     -3.174  0.0000E+00  0.8000E+01
     -3.103  0.0000E+00  0.8000E+01
     -3.031  0.0000E+00  0.8000E+01
     -2.960  0.0000E+00  0.8000E+01
     -2.888  0.0000E+00  0.8000E+01
     -2.817  0.0000E+00  0.8000E+01
     -2.746  0.0000E+00  0.8000E+01
     -2.674  0.0000E+00  0.8000E+01
     -2.603  0.0000E+00  0.8000E+01
     -2.532  0.0000E+00  0.8000E+01
     -2.460  0.0000E+00  0.8000E+01
     -2.389  0.0000E+00  0.8000E+01
     -2.318  0.0000E+00  0.8000E+01
     -2.246  0.0000E+00  0.8000E+01
     -2.175  0.0000E+00  0.8000E+01
     -2.103  0.0000E+00  0.8000E+01
     -2.032  0.0000E+00  0.8000E+01
     -1.961 -0.4313E-26  0.8000E+01
     -1.889 -0.1132E-23  0.8000E+01
     -1.818 -0.2306E-21  0.8000E+01
     -1.747 -0.3630E-19  0.8000E+01
     -1.675 -0.4417E-17  0.8000E+01
     -1.604 -0.4152E-15  0.8000E+01
     -1.533 -0.2936E-13  0.8000E+01
     -1.461 -0.1634E-11  0.8000E+01
     -1.390 -0.7026E-10  0.8000E+01
     -1.318 -0.2324E-08  0.8000E+01
     -1.247 -0.5907E-07  0.8000E+01
     -1.176 -0.1151E-05  0.8000E+01
     -1.104 -0.1714E-04  0.8000E+01
     -1.033 -0.1942E-03  0.8000E+01
     -0.962 -0.1664E-02  0.8000E+01
     -0.890 -0.1068E-01  0.7999E+01
     -0.819 -0.5043E-01  0.7996E+01
     -0.748 -0.1695E+00  0.7983E+01
     -0.676 -0.3729E+00  0.7957E+01
     -0.605 -0.3778E+00  0.7930E+01
     -0.533  0.5800E+00  0.7971E+01
     -0.462  0.3153E+01  0.8196E+01
     -0.391  0.6523E+01  0.8662E+01
     -0.319  0.8305E+01  0.9254E+01
     -0.248  0.6945E+01  0.9750E+01
     -0.177  0.3644E+01  0.1001E+02
     -0.105  0.8523E+00  0.1007E+02
     -0.034 -0.3278E+00  0.1005E+02
      0.037 -0.4389E+00  0.1002E+02
      0.109 -0.3493E+00  0.9991E+01
      0.180 -0.4824E+00  0.9957E+01
      0.251 -0.7579E+00  0.9903E+01
      0.323 -0.4764E+00  0.9869E+01
      0.394  0.1688E+01  0.9989E+01
      0.466  0.6791E+01  0.1047E+02
      0.537  0.1400E+02  0.1147E+02
      0.608  0.1997E+02  0.1290E+02
      0.680  0.2078E+02  0.1438E+02
      0.751  0.1554E+02  0.1549E+02
      0.822  0.7684E+01  0.1604E+02
      0.894  0.1709E+01  0.1616E+02
      0.965 -0.7327E+00  0.1611E+02
      1.036 -0.8904E+00  0.1605E+02
      1.108 -0.4476E+00  0.1601E+02
      1.179 -0.1458E+00  0.1600E+02
      1.251 -0.3375E-01  0.1600E+02
      1.322 -0.5757E-02  0.1600E+02
      1.393 -0.7364E-03  0.1600E+02
      1.465 -0.7136E-04  0.1600E+02
      1.536 -0.5272E-05  0.1600E+02
      1.607 -0.2982E-06  0.1600E+02
      1.679 -0.1295E-07  0.1600E+02
      1.750 -0.4328E-09  0.1600E+02
      1.821 -0.1115E-10  0.1600E+02
      1.893 -0.2225E-12  0.1600E+02
      1.964 -0.3111E-14  0.1600E+02
      2.036  0.0000E+00  0.1600E+02
      2.107  0.0000E+00  0.1600E+02
      2.178  0.0000E+00  0.1600E+02
      2.250  0.0000E+00  0.1600E+02
      2.321  0.0000E+00  0.1600E+02
      2.392  0.0000E+00  0.1600E+02
      2.464  0.0000E+00  0.1600E+02
      2.535  0.0000E+00  0.1600E+02
      2.606  0.0000E+00  0.1600E+02
      2.678  0.0000E+00  0.1600E+02
      2.68396642    -18.84881408  301     -9.03582702      1.00000000
    -18.849  0.0000E+00  0.0000E+00
    -18.777  0.0000E+00  0.0000E+00
    -18.705  0.0000E+00  0.0000E+00
    -18.633  0.0000E+00  0.0000E+00
    -18.562  0.0000E+00  0.0000E+00
    -18.490 -0.3691E-27 -0.2649E-28
    -18.418 -0.1117E-24 -0.8047E-26
    -18.346 -0.2615E-22 -0.1885E-23
    -18.275 -0.4719E-20 -0.3406E-21
    -18.203 -0.6562E-18 -0.4744E-19
    -18.131 -0.7029E-16 -0.5092E-17
    -18.059 -0.5797E-14 -0.4212E-15
    -17.988 -0.3571E-12 -0.2605E-13
    -17.916 -0.1734E-10 -0.1270E-11
    -17.844 -0.6467E-09 -0.4769E-10
    -17.772 -0.1849E-07 -0.1374E-08
    -17.700 -0.4042E-06 -0.3038E-07
    -17.629 -0.6741E-05 -0.5142E-06
    -17.557 -0.8543E-04 -0.6646E-05
    -17.485 -0.8182E-03 -0.6537E-04
    -17.413 -0.5872E-02 -0.4868E-03
    -17.342 -0.3112E-01 -0.2721E-02
    -17.270 -0.1186E+00 -0.1123E-01
    -17.198 -0.3059E+00 -0.3319E-01
    -17.126 -0.4358E+00 -0.6448E-01
    -17.054  0.1236E+00 -0.5560E-01
    -16.983  0.2205E+01  0.1027E+00
    -16.911  0.5560E+01  0.5018E+00
    -16.839  0.8085E+01  0.1082E+01
    -16.767  0.7637E+01  0.1630E+01
    -16.696  0.4620E+01  0.1962E+01
    -16.624  0.1471E+01  0.2067E+01
    -16.552 -0.1494E+00  0.2057E+01
    -16.480 -0.4325E+00  0.2026E+01
    -16.408 -0.2476E+00  0.2008E+01
    -16.337 -0.8553E-01  0.2002E+01
    -16.265 -0.2044E-01  0.2000E+01
    -16.193 -0.3547E-02  0.2000E+01
    -16.121 -0.4566E-03  0.2000E+01
    -16.050 -0.4416E-04  0.2000E+01
    -15.978 -0.3233E-05  0.2000E+01
    -15.906 -0.1801E-06  0.2000E+01
    -15.834 -0.7660E-08  0.2000E+01
    -15.762 -0.2493E-09  0.2000E+01
    -15.691 -0.6221E-11  0.2000E+01
    -15.619 -0.1237E-12  0.2000E+01
    -15.547  0.0000E+00  0.2000E+01
    -15.475  0.0000E+00  0.2000E+01
    -15.404  0.0000E+00  0.2000E+01
    -15.332  0.0000E+00  0.2000E+01
    -15.260  0.0000E+00  0.2000E+01
    -15.188  0.0000E+00  0.2000E+01
    -15.116  0.0000E+00  0.2000E+01
    -15.045  0.0000E+00  0.2000E+01
    -14.973  0.0000E+00  0.2000E+01
    -14.901  0.0000E+00  0.2000E+01
    -14.829  0.0000E+00  0.2000E+01
    -14.758  0.0000E+00  0.2000E+01
    -14.686  0.0000E+00  0.2000E+01
    -14.614  0.0000E+00  0.2000E+01
    -14.542  0.0000E+00  0.2000E+01
    -14.470  0.0000E+00  0.2000E+01
    -14.399  0.0000E+00  0.2000E+01
    -14.327  0.0000E+00  0.2000E+01
    -14.255  0.0000E+00  0.2000E+01
    -14.183  0.0000E+00  0.2000E+01
    -14.112  0.0000E+00  0.2000E+01
    -14.040  0.0000E+00  0.2000E+01
    -13.968  0.0000E+00  0.2000E+01
    -13.896  0.0000E+00  0.2000E+01
    -13.824  0.0000E+00  0.2000E+01
    -13.753  0.0000E+00  0.2000E+01
    -13.681  0.0000E+00  0.2000E+01
    -13.609  0.0000E+00  0.2000E+01
    -13.537  0.0000E+00  0.2000E+01
    -13.466  0.0000E+00  0.2000E+01
    -13.394  0.0000E+00  0.2000E+01
    -13.322  0.0000E+00  0.2000E+01
    -13.250  0.0000E+00  0.2000E+01
    -13.179  0.0000E+00  0.2000E+01
    -13.107  0.0000E+00  0.2000E+01
    -13.035  0.0000E+00  0.2000E+01
    -12.963  0.0000E+00  0.2000E+01
    -12.891  0.0000E+00  0.2000E+01
    -12.820  0.0000E+00  0.2000E+01
    -12.748  0.0000E+00  0.2000E+01
    -12.676  0.0000E+00  0.2000E+01
    -12.604  0.0000E+00  0.2000E+01
    -12.533  0.0000E+00  0.2000E+01
    -12.461  0.0000E+00  0.2000E+01
    -12.389  0.0000E+00  0.2000E+01
    -12.317  0.0000E+00  0.2000E+01
    -12.245  0.0000E+00  0.2000E+01
    -12.174  0.0000E+00  0.2000E+01
    -12.102  0.0000E+00  0.2000E+01
    -12.030  0.0000E+00  0.2000E+01
    -11.958  0.0000E+00  0.2000E+01
    -11.887  0.0000E+00  0.2000E+01
    -11.815  0.0000E+00  0.2000E+01
    -11.743  0.0000E+00  0.2000E+01
    -11.671  0.0000E+00  0.2000E+01
    -11.599  0.0000E+00  0.2000E+01
    -11.528  0.0000E+00  0.2000E+01
    -11.456  0.0000E+00  0.2000E+01
    -11.384  0.0000E+00  0.2000E+01
    -11.312  0.0000E+00  0.2000E+01
    -11.241  0.0000E+00  0.2000E+01
    -11.169  0.0000E+00  0.2000E+01
    -11.097  0.0000E+00  0.2000E+01
    -11.025 -0.1251E-26  0.2000E+01
    -10.953 -0.3586E-24  0.2000E+01
    -10.882 -0.7948E-22  0.2000E+01
    -10.810 -0.1358E-19  0.2000E+01
    -10.738 -0.1788E-17  0.2000E+01
    -10.666 -0.1813E-15  0.2000E+01
    -10.595 -0.1415E-13  0.2000E+01
    -10.523 -0.8239E-12  0.2000E+01
    -10.451 -0.3787E-10  0.2000E+01
    -10.379 -0.1336E-08  0.2000E+01
    -10.307 -0.3611E-07  0.2000E+01
    -10.236 -0.7463E-06  0.2000E+01
    -10.164 -0.1176E-04  0.2000E+01
    -10.092 -0.1407E-03  0.2000E+01
    -10.020 -0.1272E-02  0.2000E+01
     -9.949 -0.8606E-02  0.1999E+01
     -9.877 -0.4301E-01  0.1996E+01
     -9.805 -0.1548E+00  0.1985E+01
     -9.733 -0.3799E+00  0.1958E+01
     -9.661 -0.5343E+00  0.1919E+01
     -9.590  0.1914E-01  0.1921E+01
     -9.518  0.2071E+01  0.2069E+01
     -9.446  0.5704E+01  0.2479E+01
     -9.374  0.1016E+02  0.3208E+01
     -9.303  0.1458E+02  0.4255E+01
     -9.231  0.1771E+02  0.5526E+01
     -9.159  0.1730E+02  0.6768E+01
     -9.087  0.1243E+02  0.7660E+01
     -9.016  0.5739E+01  0.8072E+01
     -8.944  0.9514E+00  0.8140E+01
     -8.872 -0.7745E+00  0.8085E+01
     -8.800 -0.7286E+00  0.8033E+01
     -8.728 -0.3298E+00  0.8009E+01
     -8.657 -0.9851E-01  0.8002E+01
     -8.585 -0.2101E-01  0.8000E+01
     -8.513 -0.3304E-02  0.8000E+01
     -8.441 -0.3894E-03  0.8000E+01
     -8.370 -0.3472E-04  0.8000E+01
     -8.298 -0.2356E-05  0.8000E+01
     -8.226 -0.1222E-06  0.8000E+01
     -8.154 -0.4854E-08  0.8000E+01
     -8.082 -0.1480E-09  0.8000E+01
     -8.011 -0.3463E-11  0.8000E+01
     -7.939 -0.6806E-13  0.8000E+01
     -7.867  0.0000E+00  0.8000E+01
     -7.795  0.0000E+00  0.8000E+01
     -7.724  0.0000E+00  0.8000E+01
     -7.652  0.0000E+00  0.8000E+01
     -7.580  0.0000E+00  0.8000E+01
     -7.508  0.0000E+00  0.8000E+01
     -7.436  0.0000E+00  0.8000E+01
     -7.365  0.0000E+00  0.8000E+01
     -7.293  0.0000E+00  0.8000E+01
     -7.221  0.0000E+00  0.8000E+01
     -7.149  0.0000E+00  0.8000E+01
     -7.078  0.0000E+00  0.8000E+01
     -7.006  0.0000E+00  0.8000E+01
     -6.934  0.0000E+00  0.8000E+01
     -6.862  0.0000E+00  0.8000E+01
     -6.790  0.0000E+00  0.8000E+01
     -6.719  0.0000E+00  0.8000E+01
     -6.647  0.0000E+00  0.8000E+01
     -6.575  0.0000E+00  0.8000E+01
     -6.503  0.0000E+00  0.8000E+01
     -6.432  0.0000E+00  0.8000E+01
     -6.360  0.0000E+00  0.8000E+01
     -6.288  0.0000E+00  0.8000E+01
     -6.216  0.0000E+00  0.8000E+01
     -6.144  0.0000E+00  0.8000E+01
     -6.073  0.0000E+00  0.8000E+01
     -6.001  0.0000E+00  0.8000E+01
     -5.929  0.0000E+00  0.8000E+01
     -5.857  0.0000E+00  0.8000E+01
     -5.786  0.0000E+00  0.8000E+01
     -5.714  0.0000E+00  0.8000E+01
     -5.642  0.0000E+00  0.8000E+01
     -5.570  0.0000E+00  0.8000E+01
     -5.498  0.0000E+00  0.8000E+01
     -5.427  0.0000E+00  0.8000E+01
     -5.355  0.0000E+00  0.8000E+01
     -5.283  0.0000E+00  0.8000E+01
     -5.211  0.0000E+00  0.8000E+01
     -5.140  0.0000E+00  0.8000E+01
     -5.068  0.0000E+00  0.8000E+01
     -4.996  0.0000E+00  0.8000E+01
     -4.924  0.0000E+00  0.8000E+01
     -4.853  0.0000E+00  0.8000E+01
     -4.781  0.0000E+00  0.8000E+01
     -4.709  0.0000E+00  0.8000E+01
     -4.637  0.0000E+00  0.8000E+01
     -4.565  0.0000E+00  0.8000E+01
     -4.494  0.0000E+00  0.8000E+01
     -4.422  0.0000E+00  0.8000E+01
     -4.350  0.0000E+00  0.8000E+01
     -4.278  0.0000E+00  0.8000E+01
     -4.207  0.0000E+00  0.8000E+01
     -4.135  0.0000E+00  0.8000E+01
     -4.063  0.0000E+00  0.8000E+01
     -3.991  0.0000E+00  0.8000E+01
     -3.919  0.0000E+00  0.8000E+01
     -3.848  0.0000E+00  0.8000E+01
     -3.776  0.0000E+00  0.8000E+01
     -3.704  0.0000E+00  0.8000E+01
     -3.632  0.0000E+00  0.8000E+01
     -3.561  0.0000E+00  0.8000E+01
     -3.489  0.0000E+00  0.8000E+01
     -3.417  0.0000E+00  0.8000E+01
     -3.345  0.0000E+00  0.8000E+01
     -3.273  0.0000E+00  0.8000E+01
     -3.202  0.0000E+00  0.8000E+01
     -3.130  0.0000E+00  0.8000E+01
     -3.058  0.0000E+00  0.8000E+01
     -2.986  0.0000E+00  0.8000E+01
     -2.915  0.0000E+00  0.8000E+01
     -2.843  0.0000E+00  0.8000E+01
     -2.771  0.0000E+00  0.8000E+01
     -2.699  0.0000E+00  0.8000E+01
     -2.627  0.0000E+00  0.8000E+01
     -2.556  0.0000E+00  0.8000E+01
     -2.484  0.0000E+00  0.8000E+01
     -2.412  0.0000E+00  0.8000E+01
     -2.340  0.0000E+00  0.8000E+01
     -2.269  0.0000E+00  0.8000E+01
     -2.197  0.0000E+00  0.8000E+01
     -2.125  0.0000E+00  0.8000E+01
     -2.053  0.0000E+00  0.8000E+01
     -1.981 -0.1210E-27  0.8000E+01
     -1.910 -0.3847E-25  0.8000E+01
     -1.838 -0.9454E-23  0.8000E+01
     -1.766 -0.1791E-20  0.8000E+01
     -1.694 -0.2616E-18  0.8000E+01
     -1.623 -0.2943E-16  0.8000E+01
     -1.551 -0.2550E-14  0.8000E+01
     -1.479 -0.1651E-12  0.8000E+01
     -1.407 -0.8431E-11  0.8000E+01
     -1.335 -0.3306E-09  0.8000E+01
     -1.264 -0.9942E-08  0.8000E+01
     -1.192 -0.2288E-06  0.8000E+01
     -1.120 -0.4018E-05  0.8000E+01
     -1.048 -0.5367E-04  0.8000E+01
     -0.977 -0.5425E-03  0.8000E+01
     -0.905 -0.4117E-02  0.8000E+01
     -0.833 -0.2316E-01  0.7998E+01
     -0.761 -0.9430E-01  0.7991E+01
     -0.690 -0.2642E+00  0.7972E+01
     -0.618 -0.4371E+00  0.7941E+01
     -0.546 -0.8118E-01  0.7935E+01
     -0.474  0.1671E+01  0.8055E+01
     -0.402  0.4894E+01  0.8406E+01
     -0.331  0.7788E+01  0.8965E+01
     -0.259  0.7978E+01  0.9538E+01
     -0.187  0.5292E+01  0.9918E+01
     -0.115  0.1982E+01  0.1006E+02
     -0.044  0.2938E-01  0.1006E+02
      0.028 -0.4655E+00  0.1003E+02
      0.100 -0.4017E+00  0.1000E+02
      0.172 -0.4493E+00  0.9968E+01
      0.244 -0.7142E+00  0.9916E+01
      0.315 -0.6628E+00  0.9869E+01
      0.387  0.9528E+00  0.9937E+01
      0.459  0.5425E+01  0.1033E+02
      0.531  0.1247E+02  0.1122E+02
      0.602  0.1914E+02  0.1260E+02
      0.674  0.2122E+02  0.1412E+02
      0.746  0.1692E+02  0.1533E+02
      0.818  0.9068E+01  0.1598E+02
      0.890  0.2467E+01  0.1616E+02
      0.961 -0.5534E+00  0.1612E+02
      1.033 -0.9456E+00  0.1605E+02
      1.105 -0.5143E+00  0.1602E+02
      1.177 -0.1755E+00  0.1600E+02
      1.248 -0.4205E-01  0.1600E+02
      1.320 -0.7368E-02  0.1600E+02
      1.392 -0.9630E-03  0.1600E+02
      1.464 -0.9493E-04  0.1600E+02
      1.536 -0.7106E-05  0.1600E+02
      1.607 -0.4057E-06  0.1600E+02
      1.679 -0.1773E-07  0.1600E+02
      1.751 -0.5940E-09  0.1600E+02
      1.823 -0.1529E-10  0.1600E+02
      1.894 -0.3032E-12  0.1600E+02
      1.966 -0.3094E-14  0.1600E+02
      2.038  0.0000E+00  0.1600E+02
      2.110  0.0000E+00  0.1600E+02
      2.182  0.0000E+00  0.1600E+02
      2.253  0.0000E+00  0.1600E+02
      2.325  0.0000E+00  0.1600E+02
      2.397  0.0000E+00  0.1600E+02
      2.469  0.0000E+00  0.1600E+02
      2.540  0.0000E+00  0.1600E+02
      2.612  0.0000E+00  0.1600E+02
      2.684  0.0000E+00  0.1600E+02
      2.68518065    -18.90575777  301     -9.01561376      1.00000000
    -18.906  0.0000E+00  0.0000E+00
    -18.834  0.0000E+00  0.0000E+00
    -18.762  0.0000E+00  0.0000E+00
    -18.690  0.0000E+00  0.0000E+00
    -18.618  0.0000E+00  0.0000E+00
    -18.546 -0.3984E-27 -0.2868E-28
    -18.474 -0.1220E-24 -0.8811E-26
    -18.402 -0.2885E-22 -0.2085E-23
    -18.330 -0.5252E-20 -0.3800E-21
    -18.258 -0.7356E-18 -0.5332E-19
    -18.186 -0.7927E-16 -0.5758E-17
    -18.114 -0.6567E-14 -0.4784E-15
    -18.042 -0.4058E-12 -0.2968E-13
    -17.970 -0.1973E-10 -0.1450E-11
    -17.898 -0.7360E-09 -0.5442E-10
    -17.826 -0.2101E-07 -0.1566E-08
    -17.754 -0.4580E-06 -0.3453E-07
    -17.682 -0.7604E-05 -0.5818E-06
    -17.610 -0.9578E-04 -0.7475E-05
    -17.538 -0.9101E-03 -0.7297E-04
    -17.466 -0.6465E-02 -0.5383E-03
    -17.394 -0.3383E-01 -0.2973E-02
    -17.322 -0.1268E+00 -0.1210E-01
    -17.250 -0.3191E+00 -0.3507E-01
    -17.178 -0.4302E+00 -0.6603E-01
    -17.107  0.2082E+00 -0.5104E-01
    -17.035  0.2411E+01  0.1224E+00
    -16.963  0.5801E+01  0.5399E+00
    -16.891  0.8167E+01  0.1128E+01
    -16.819  0.7470E+01  0.1665E+01
    -16.747  0.4340E+01  0.1978E+01
    -16.675  0.1272E+01  0.2069E+01
    -16.603 -0.2131E+00  0.2054E+01
    -16.531 -0.4238E+00  0.2023E+01
    -16.459 -0.2289E+00  0.2007E+01
    -16.387 -0.7596E-01  0.2002E+01
    -16.315 -0.1753E-01  0.2000E+01
    -16.243 -0.2938E-02  0.2000E+01
    -16.171 -0.3654E-03  0.2000E+01
    -16.099 -0.3412E-04  0.2000E+01
    -16.027 -0.2411E-05  0.2000E+01
    -15.955 -0.1294E-06  0.2000E+01
    -15.883 -0.5298E-08  0.2000E+01
    -15.811 -0.1658E-09  0.2000E+01
    -15.739 -0.3975E-11  0.2000E+01
    -15.667 -0.7405E-13  0.2000E+01
    -15.595  0.0000E+00  0.2000E+01
    -15.523  0.0000E+00  0.2000E+01
    -15.451  0.0000E+00  0.2000E+01
    -15.379  0.0000E+00  0.2000E+01
    -15.307  0.0000E+00  0.2000E+01
    -15.235  0.0000E+00  0.2000E+01
    -15.163  0.0000E+00  0.2000E+01
    -15.091  0.0000E+00  0.2000E+01
    -15.019  0.0000E+00  0.2000E+01
    -14.947  0.0000E+00  0.2000E+01
    -14.875  0.0000E+00  0.2000E+01
    -14.803  0.0000E+00  0.2000E+01
    -14.732  0.0000E+00  0.2000E+01
    -14.660  0.0000E+00  0.2000E+01
    -14.588  0.0000E+00  0.2000E+01
    -14.516  0.0000E+00  0.2000E+01
    -14.444  0.0000E+00  0.2000E+01
    -14.372  0.0000E+00  0.2000E+01
    -14.300  0.0000E+00  0.2000E+01
    -14.228  0.0000E+00  0.2000E+01
    -14.156  0.0000E+00  0.2000E+01
    -14.084  0.0000E+00  0.2000E+01
    -14.012  0.0000E+00  0.2000E+01
    -13.940  0.0000E+00  0.2000E+01
    -13.868  0.0000E+00  0.2000E+01
    -13.796  0.0000E+00  0.2000E+01
    -13.724  0.0000E+00  0.2000E+01
    -13.652  0.0000E+00  0.2000E+01
    -13.580  0.0000E+00  0.2000E+01
    -13.508  0.0000E+00  0.2000E+01
    -13.436  0.0000E+00  0.2000E+01
    -13.364  0.0000E+00  0.2000E+01
    -13.292  0.0000E+00  0.2000E+01
    -13.220  0.0000E+00  0.2000E+01
    -13.148  0.0000E+00  0.2000E+01
    -13.076  0.0000E+00  0.2000E+01
    -13.004  0.0000E+00  0.2000E+01
    -12.932  0.0000E+00  0.2000E+01
    -12.860  0.0000E+00  0.2000E+01
    -12.788  0.0000E+00  0.2000E+01
    -12.716  0.0000E+00  0.2000E+01
    -12.644  0.0000E+00  0.2000E+01
    -12.572  0.0000E+00  0.2000E+01
    -12.500  0.0000E+00  0.2000E+01
    -12.428  0.0000E+00  0.2000E+01
    -12.357  0.0000E+00  0.2000E+01
    -12.285  0.0000E+00  0.2000E+01
    -12.213  0.0000E+00  0.2000E+01
    -12.141  0.0000E+00  0.2000E+01
    -12.069  0.0000E+00  0.2000E+01
    -11.997  0.0000E+00  0.2000E+01
    -11.925  0.0000E+00  0.2000E+01
    -11.853  0.0000E+00  0.2000E+01
    -11.781  0.0000E+00  0.2000E+01
    -11.709  0.0000E+00  0.2000E+01
    -11.637  0.0000E+00  0.2000E+01
    -11.565  0.0000E+00  0.2000E+01
    -11.493  0.0000E+00  0.2000E+01
    -11.421  0.0000E+00  0.2000E+01
    -11.349  0.0000E+00  0.2000E+01
    -11.277  0.0000E+00  0.2000E+01
    -11.205  0.0000E+00  0.2000E+01
    -11.133 -0.4673E-27  0.2000E+01
    -11.061 -0.1421E-24  0.2000E+01
    -10.989 -0.3336E-22  0.2000E+01
    -10.917 -0.6029E-20  0.2000E+01
    -10.845 -0.8385E-18  0.2000E+01
    -10.773 -0.8971E-16  0.2000E+01
    -10.701 -0.7379E-14  0.2000E+01
    -10.629 -0.4526E-12  0.2000E+01
    -10.557 -0.2185E-10  0.2000E+01
    -10.485 -0.8092E-09  0.2000E+01
    -10.413 -0.2293E-07  0.2000E+01
    -10.341 -0.4962E-06  0.2000E+01
    -10.269 -0.8177E-05  0.2000E+01
    -10.197 -0.1022E-03  0.2000E+01
    -10.125 -0.9637E-03  0.2000E+01
    -10.053 -0.6792E-02  0.1999E+01
     -9.982 -0.3524E-01  0.1997E+01
     -9.910 -0.1309E+00  0.1987E+01
     -9.838 -0.3263E+00  0.1964E+01
     -9.766 -0.4361E+00  0.1933E+01
     -9.694  0.1952E+00  0.1947E+01
     -9.622  0.2297E+01  0.2112E+01
     -9.550  0.5359E+01  0.2498E+01
     -9.478  0.7356E+01  0.3027E+01
     -9.406  0.7369E+01  0.3557E+01
     -9.334  0.7764E+01  0.4116E+01
     -9.262  0.1106E+02  0.4912E+01
     -9.190  0.1517E+02  0.6004E+01
     -9.118  0.1525E+02  0.7102E+01
     -9.046  0.1018E+02  0.7834E+01
     -8.974  0.3880E+01  0.8113E+01
     -8.902  0.1121E+00  0.8122E+01
     -8.830 -0.8379E+00  0.8061E+01
     -8.758 -0.5660E+00  0.8021E+01
     -8.686 -0.2164E+00  0.8005E+01
     -8.614 -0.5641E-01  0.8001E+01
     -8.542 -0.1062E-01  0.8000E+01
     -8.470 -0.1482E-02  0.8000E+01
     -8.398 -0.1554E-03  0.8000E+01
     -8.326 -0.1233E-04  0.8000E+01
     -8.254 -0.7452E-06  0.8000E+01
     -8.182 -0.3440E-07  0.8000E+01
     -8.110 -0.1216E-08  0.8000E+01
     -8.038 -0.3295E-10  0.8000E+01
     -7.966 -0.6880E-12  0.8000E+01
     -7.894 -0.1234E-13  0.8000E+01
     -7.822  0.0000E+00  0.8000E+01
     -7.750  0.0000E+00  0.8000E+01
     -7.678  0.0000E+00  0.8000E+01
     -7.606  0.0000E+00  0.8000E+01
     -7.535  0.0000E+00  0.8000E+01
     -7.463  0.0000E+00  0.8000E+01
     -7.391  0.0000E+00  0.8000E+01
     -7.319  0.0000E+00  0.8000E+01
     -7.247  0.0000E+00  0.8000E+01
     -7.175  0.0000E+00  0.8000E+01
     -7.103  0.0000E+00  0.8000E+01
     -7.031  0.0000E+00  0.8000E+01
     -6.959  0.0000E+00  0.8000E+01
     -6.887  0.0000E+00  0.8000E+01
     -6.815  0.0000E+00  0.8000E+01
     -6.743  0.0000E+00  0.8000E+01
     -6.671  0.0000E+00  0.8000E+01
     -6.599  0.0000E+00  0.8000E+01
     -6.527  0.0000E+00  0.8000E+01
     -6.455  0.0000E+00  0.8000E+01
     -6.383  0.0000E+00  0.8000E+01
     -6.311  0.0000E+00  0.8000E+01
     -6.239  0.0000E+00  0.8000E+01
     -6.167  0.0000E+00  0.8000E+01
     -6.095  0.0000E+00  0.8000E+01
     -6.023  0.0000E+00  0.8000E+01
     -5.951  0.0000E+00  0.8000E+01
     -5.879  0.0000E+00  0.8000E+01
     -5.807  0.0000E+00  0.8000E+01
     -5.735  0.0000E+00  0.8000E+01
     -5.663  0.0000E+00  0.8000E+01
     -5.591  0.0000E+00  0.8000E+01
     -5.519  0.0000E+00  0.8000E+01
     -5.447  0.0000E+00  0.8000E+01
     -5.375  0.0000E+00  0.8000E+01
     -5.303  0.0000E+00  0.8000E+01
     -5.231  0.0000E+00  0.8000E+01
     -5.160  0.0000E+00  0.8000E+01
     -5.088  0.0000E+00  0.8000E+01
     -5.016  0.0000E+00  0.8000E+01
     -4.944  0.0000E+00  0.8000E+01
     -4.872  0.0000E+00  0.8000E+01
     -4.800  0.0000E+00  0.8000E+01
     -4.728  0.0000E+00  0.8000E+01
     -4.656  0.0000E+00  0.8000E+01
     -4.584  0.0000E+00  0.8000E+01
     -4.512  0.0000E+00  0.8000E+01
     -4.440  0.0000E+00  0.8000E+01
     -4.368  0.0000E+00  0.8000E+01
     -4.296  0.0000E+00  0.8000E+01
     -4.224  0.0000E+00  0.8000E+01
     -4.152  0.0000E+00  0.8000E+01
     -4.080  0.0000E+00  0.8000E+01
     -4.008  0.0000E+00  0.8000E+01
     -3.936  0.0000E+00  0.8000E+01
     -3.864  0.0000E+00  0.8000E+01
     -3.792  0.0000E+00  0.8000E+01
     -3.720  0.0000E+00  0.8000E+01
     -3.648  0.0000E+00  0.8000E+01
     -3.576  0.0000E+00  0.8000E+01
     -3.504  0.0000E+00  0.8000E+01
     -3.432  0.0000E+00  0.8000E+01
     -3.360  0.0000E+00  0.8000E+01
     -3.288  0.0000E+00  0.8000E+01
     -3.216  0.0000E+00  0.8000E+01
     -3.144  0.0000E+00  0.8000E+01