    5    5    1    1
  0.2118819E+03  0.1022071E-08  0.1009081E-08  0.1027544E-08  0.2000000E-14
   50.000000000000000     
  CAR 
 unknown system                          
      8      4      8

  0.2500000E+00  0.2500000E+00  0.2500000E+00  0.2500000E+00
    1      -16.848981   1.000000
    2       -9.630742   1.000000
    3       -9.159849   1.005405
    4       -8.900410   0.994627
    5       -0.319752   0.000000
    6        0.526720   0.000000
    7        0.672512   0.000000
    8        0.697475   0.000000

 -0.2500000E+00  0.2500000E+00  0.2500000E+00  0.2500000E+00
    1      -16.849034   1.000000
    2       -9.630860   1.000000
    3       -9.159664   1.005422
    4       -8.900431   0.994652
    5       -0.314929   0.000000
    6        0.536975   0.000000
    7        0.629423   0.000000
    8        0.681580   0.000000

  0.2500000E+00 -0.2500000E+00  0.2500000E+00  0.2500000E+00
    1      -16.849021   1.000000
    2       -9.630789   1.000000
    3       -9.159835   1.005406
    4       -8.900298   0.994492
    5       -0.315303   0.000000
    6        0.531928   0.000000
    7        0.639325   0.000000
    8        0.680566   0.000000

 -0.2500000E+00 -0.2500000E+00  0.2500000E+00  0.2500000E+00
    1      -16.849027   1.000000
    2       -9.630824   1.000000
    3       -9.159745   1.005415
    4       -8.900371   0.994580
    5       -0.317998   0.000000
    6        0.544429   0.000000
    7        0.637376   0.000000
    8        0.690072   0.000000
