 vasp.5.4.4.18Apr17-6-g9f103f2a35 (build Jul 12 2018 13:43:46) complex           
 executed on             LinuxGNU date 2019.06.22  02:17:35
 running on    1 total cores
 distrk:  each k-point on    1 cores,    1 groups
 distr:  one band on NCORES_PER_BAND=   1 cores,    1 groups


--------------------------------------------------------------------------------------------------------


 INCAR:
 POTCAR:    PAW_PBE H 15Jun2001                   
 POTCAR:    PAW_PBE C 08Apr2002                   
 POTCAR:    PAW_PBE H 15Jun2001                   
   VRHFIN =H: ultrasoft test                                                    
   LEXCH  = PE                                                                  
   EATOM  =    12.4884 eV,    0.9179 Ry                                         
                                                                                
   TITEL  = PAW_PBE H 15Jun2001                                                 
   LULTRA =        F    use ultrasoft PP ?                                      
   IUNSCR =        0    unscreen: 0-lin 1-nonlin 2-no                           
   RPACOR =    0.000    partial core radius                                     
   POMASS =    1.000; ZVAL   =    1.000    mass and valenz                      
   RCORE  =    1.100    outmost cutoff radius                                   
   RWIGS  =    0.700; RWIGS  =    0.370    wigner-seitz radius (au A)           
   ENMAX  =  250.000; ENMIN  =  200.000 eV                                      
   RCLOC  =    0.701    cutoff for local pot                                    
   LCOR   =        T    correct aug charges                                     
   LPAW   =        T    paw PP                                                  
   EAUG   =  400.000                                                            
   RMAX   =    1.123    core radius for proj-oper                               
   RAUG   =    1.200    factor for augmentation sphere                          
   RDEP   =    1.112    radius for radial grids                                 
   RDEPT  =    0.926    core radius for aug-charge                              
                                                                                
   Atomic configuration                                                         
    2 entries                                                                   
     n  l   j            E        occ.                                          
     1  0  0.50        -6.4927   1.0000                                         
     2  1  0.50        -3.4015   0.0000                                         
   Description                                                                  
     l       E           TYP  RCUT    TYP  RCUT                                 
     0     -6.4927494     23  1.100                                             
     0      6.8029130     23  1.100                                             
     1     -4.0817478     23  1.100                                             
  local pseudopotential read in
  atomic valenz-charges read in
  non local Contribution for L=           0  read in
    real space projection operators read in
  non local Contribution for L=           0  read in
    real space projection operators read in
  non local Contribution for L=           1  read in
    real space projection operators read in
    PAW grid and wavefunctions read in

   number of l-projection  operators is LMAX  =           3
   number of lm-projection operators is LMMAX =           5

 POTCAR:    PAW_PBE C 08Apr2002                   
   VRHFIN =C: s2p2                                                              
   LEXCH  = PE                                                                  
   EATOM  =   147.1560 eV,   10.8157 Ry                                         
                                                                                
   TITEL  = PAW_PBE C 08Apr2002                                                 
   LULTRA =        F    use ultrasoft PP ?                                      
   IUNSCR =        1    unscreen: 0-lin 1-nonlin 2-no                           
   RPACOR =    1.200    partial core radius                                     
   POMASS =   12.011; ZVAL   =    4.000    mass and valenz                      
   RCORE  =    1.500    outmost cutoff radius                                   
   RWIGS  =    1.630; RWIGS  =    0.863    wigner-seitz radius (au A)           
   ENMAX  =  400.000; ENMIN  =  300.000 eV                                      
   ICORE  =        2    local potential                                         
   LCOR   =        T    correct aug charges                                     
   LPAW   =        T    paw PP                                                  
   EAUG   =  644.873                                                            
   DEXC   =    0.000                                                            
   RMAX   =    1.529    core radius for proj-oper                               
   RAUG   =    1.300    factor for augmentation sphere                          
   RDEP   =    1.501    radius for radial grids                                 
   RDEPT  =    1.300    core radius for aug-charge                              
                                                                                
   Atomic configuration                                                         
    4 entries                                                                   
     n  l   j            E        occ.                                          
     1  0  0.50      -273.3789   2.0000                                         
     2  0  0.50       -13.7508   2.0000                                         
     2  1  0.50        -5.2854   2.0000                                         
     3  2  1.50        -5.4423   0.0000                                         
   Description                                                                  
     l       E           TYP  RCUT    TYP  RCUT                                 
     0    -13.7508458     23  1.200                                             
     0     -8.2022199     23  1.200                                             
     1     -5.2854383     23  1.500                                             
     1     34.0145650     23  1.500                                             
     2     -5.4423304      7  1.500                                             
  local pseudopotential read in
  partial core-charges read in
  partial kinetic energy density read in
  atomic valenz-charges read in
  non local Contribution for L=           0  read in
    real space projection operators read in
  non local Contribution for L=           0  read in
    real space projection operators read in
  non local Contribution for L=           1  read in
    real space projection operators read in
  non local Contribution for L=           1  read in
    real space projection operators read in
    PAW grid and wavefunctions read in

   number of l-projection  operators is LMAX  =           4
   number of lm-projection operators is LMMAX =           8


 ----------------------------------------------------------------------------- 
|                                                                             |
|  ADVICE TO THIS USER RUNNING 'VASP/VAMP'   (HEAR YOUR MASTER'S VOICE ...):  |
|                                                                             |
|      You have a (more or less) 'small supercell' and for smaller cells      |
|      it is recommended  to use the reciprocal-space projection scheme!      |
|      The real space optimization is not  efficient for small cells and it   |
|      is also less accurate ...                                              |
|      Therefore set LREAL=.FALSE. in the  INCAR file                         |
|                                                                             |
 ----------------------------------------------------------------------------- 


 ----------------------------------------------------------------------------- 
|                                                                             |
|           W    W    AA    RRRRR   N    N  II  N    N   GGGG   !!!           |
|           W    W   A  A   R    R  NN   N  II  NN   N  G    G  !!!           |
|           W    W  A    A  R    R  N N  N  II  N N  N  G       !!!           |
|           W WW W  AAAAAA  RRRRR   N  N N  II  N  N N  G  GGG   !            |
|           WW  WW  A    A  R   R   N   NN  II  N   NN  G    G                |
|           W    W  A    A  R    R  N    N  II  N    N   GGGG   !!!           |
|                                                                             |
|     The real-space-projection scheme for the treatment of the nonlocal      |
|     pseudopotentials has been switched on -- but on file POTCAR I have      |
|     not found any entries signalling me that you have ever performed a      |
|     real-space optimization of all nonlocal projectors! BE WARNED that      |
|     a calculation using the real-space-projection scheme together with      |
|     nonlocal projectors which were not real-space-optimized (according      |
|     to the plane-wave-cutoff used in this calculation) might give more      |
|     or less inaccurate results                                              |
|     I hope you know what you are doing                                      |
|                                                                             |
 ----------------------------------------------------------------------------- 

  PAW_PBE H 15Jun2001                   :
 energy of atom  1       EATOM=  -12.4884
 kinetic energy error for atom=    0.0098 (will be added to EATOM!!)
  PAW_PBE C 08Apr2002                   :
 energy of atom  2       EATOM= -147.1560
 kinetic energy error for atom=    0.0288 (will be added to EATOM!!)


 POSCAR:  H  C                                   
  positions in cartesian coordinates
  No initial velocities read in
 exchange correlation table for  LEXCH =        8
   RHO(1)=    0.500       N(1)  =     2000
   RHO(2)=  100.500       N(2)  =     4000



--------------------------------------------------------------------------------------------------------


 ion  position               nearest neighbor table
   1  0.538  0.407  0.361-   5 1.11
   2  0.395  0.480  0.438-   5 1.11
   3  0.553  0.566  0.443-   5 1.12
   4  0.528  0.417  0.539-   5 1.12
   5  0.503  0.467  0.445-   1 1.11   2 1.11   4 1.12   3 1.12


IMPORTANT INFORMATION: All symmetrisations will be switched off!
NOSYMM: (Re-)initialisation of all symmetry stuff for point group C_1.




Automatic generation of k-mesh.
 generate k-points for:    2    2    2
Space group operators:
 irot       det(A)        alpha          n_x          n_y          n_z        tau_x        tau_y        tau_z
    1     1.000000     0.000000     1.000000     0.000000     0.000000     0.000000     0.000000     0.000000
 
 Subroutine IBZKPT returns following result:
 ===========================================
 
 Found      4 irreducible k-points:
 
 Following reciprocal coordinates:
            Coordinates               Weight
  0.250000  0.250000  0.250000      2.000000
 -0.250000  0.250000  0.250000      2.000000
  0.250000 -0.250000  0.250000      2.000000
 -0.250000 -0.250000  0.250000      2.000000
 
 Following cartesian coordinates:
            Coordinates               Weight
  0.024460  0.024198  0.024008      2.000000
 -0.024460  0.025366  0.024391      2.000000
  0.024460 -0.025366  0.024271      2.000000
 -0.024460 -0.024198  0.024654      2.000000
 


--------------------------------------------------------------------------------------------------------




 Dimension of arrays:
   k-points           NKPTS =      4   k-points in BZ     NKDIM =      4   number of bands    NBANDS=      8
   number of dos      NEDOS =    301   number of ions     NIONS =      5
   non local maximal  LDIM  =      4   non local SUM 2l+1 LMDIM =      8
   total plane-waves  NPLWV = 343000
   max r-space proj   IRMAX =    768   max aug-charges    IRDMAX=   4020
   dimension x,y,z NGX =    70 NGY =   70 NGZ =   70
   dimension x,y,z NGXF=   140 NGYF=  140 NGZF=  140
   support grid    NGXF=   140 NGYF=  140 NGZF=  140
   ions per type =               4   1
   NGX,Y,Z   is equivalent  to a cutoff of  11.39, 11.53, 11.33 a.u.
   NGXF,Y,Z  is equivalent  to a cutoff of  22.77, 23.06, 22.65 a.u.

 SYSTEM =  unknown system                          
 POSCAR =   H  C                                   

 Startparameter for this run:
   NWRITE =      2    write-flag & timer
   PREC   = a         normal or accurate (medium, high low for compatibility)
   ISTART =      0    job   : 0-new  1-cont  2-samecut
   ICHARG =      2    charge: 1-file 2-atom 10-const
   ISPIN  =      1    spin polarized calculation?
   LNONCOLLINEAR =      F non collinear calculations
   LSORBIT =      F    spin-orbit coupling
   INIWAV =      1    electr: 0-lowe 1-rand  2-diag
   LASPH  =      F    aspherical Exc in radial PAW
   METAGGA=      F    non-selfconsistent MetaGGA calc.

 Electronic Relaxation 1
   ENCUT  =  400.0 eV  29.40 Ry    5.42 a.u.  16.67 16.46 16.76*2*pi/ulx,y,z
   ENINI  =  400.0     initial cutoff
   ENAUG  =  644.9 eV  augmentation charge cutoff
   NELM   =     60;   NELMIN=  2; NELMDL= -5     # of ELM steps 
   EDIFF  = 0.1E-05   stopping-criterion for ELM
   LREAL  =      T    real-space projection
   NLSPLINE    = F    spline interpolate recip. space projectors
   LCOMPAT=      F    compatible to vasp.4.4
   GGA_COMPAT  = T    GGA compatible to vasp.4.4-vasp.4.6
   LMAXPAW     = -100 max onsite density
   LMAXMIX     =    2 max onsite mixed and CHGCAR
   VOSKOWN=      0    Vosko Wilk Nusair interpolation
   ROPT   =    0.00000   0.00000
 Ionic relaxation
   EDIFFG = 0.1E-04   stopping-criterion for IOM
   NSW    =     10    number of steps for IOM
   NBLOCK =      1;   KBLOCK =      1    inner block; outer block 
   IBRION =      0    ionic relax: 0-MD 1-quasi-New 2-CG
   NFREE  =      0    steps in history (QN), initial steepest desc. (CG)
   ISIF   =      2    stress and relaxation
   IWAVPR =     12    prediction:  0-non 1-charg 2-wave 3-comb
   ISYM   =      0    0-nonsym 1-usesym 2-fastsym
   LCORR  =      T    Harris-Foulkes like correction to forces

   POTIM  = 2.0000    time-step for ionic-motion
   TEIN   =   50.0    initial temperature
   TEBEG  =   50.0;   TEEND  =  50.0 temperature during run
   SMASS  =   0.00    Nose mass-parameter (am)
   estimated Nose-frequenzy (Omega)   =  0.79E+14 period in steps = 40.00 mass=   0.123E-29a.u.
   SCALEE = 1.0000    scale energy and forces
   NPACO  =    256;   APACO  = 16.0  distance and # of slots for P.C.
   PSTRESS=    0.0 pullay stress

  Mass of Ions in am
   POMASS =   1.00 12.01
  Ionic Valenz
   ZVAL   =   1.00  4.00
  Atomic Wigner-Seitz radii
   RWIGS  =  -1.00 -1.00
  virtual crystal weights 
   VCA    =   1.00  1.00
   NELECT =       8.0000    total number of electrons
   NUPDOWN=      -1.0000    fix difference up-down

 DOS related values:
   EMIN   =  10.00;   EMAX   =-10.00  energy-range for DOS
   EFERMI =   0.00
   ISMEAR =     1;   SIGMA  =   0.20  broadening in eV -4-tet -1-fermi 0-gaus

 Electronic relaxation 2 (details)
   IALGO  =     68    algorithm
   LDIAG  =      T    sub-space diagonalisation (order eigenvalues)
   LSUBROT=      F    optimize rotation matrix (better conditioning)
   TURBO    =      0    0=normal 1=particle mesh
   IRESTART =      0    0=no restart 2=restart with 2 vectors
   NREBOOT  =      0    no. of reboots
   NMIN     =      0    reboot dimension
   EREF     =   0.00    reference energy to select bands
   IMIX   =      4    mixing-type and parameters
     AMIX     =   0.40;   BMIX     =  1.00
     AMIX_MAG =   1.60;   BMIX_MAG =  1.00
     AMIN     =   0.10
     WC   =   100.;   INIMIX=   1;  MIXPRE=   1;  MAXMIX=  50

 Intra band minimization:
   WEIMIN = 0.0010     energy-eigenvalue tresh-hold
   EBREAK =  0.31E-07  absolut break condition
   DEPER  =   0.30     relativ break condition  

   TIME   =   0.40     timestep for ELM

  volume/ion in A,a.u.               =     211.88      1429.85
  Fermi-wavevector in a.u.,A,eV,Ry     =   0.321181  0.606945  1.403542  0.103157
  Thomas-Fermi vector in A             =   1.208451

 Write flags
   LWAVE        =      F    write WAVECAR
   LDOWNSAMPLE  =      F    k-point downsampling of WAVECAR
   LCHARG       =      F    write CHGCAR
   LVTOT        =      F    write LOCPOT, total local potential
   LVHAR        =      F    write LOCPOT, Hartree potential only
   LELF         =      F    write electronic localiz. function (ELF)
   LORBIT       =      0    0 simple, 1 ext, 2 COOP (PROOUT), +10 PAW based schemes


 Dipole corrections
   LMONO  =      F    monopole corrections only (constant potential shift)
   LDIPOL =      F    correct potential (dipole corrections)
   IDIPOL =      0    1-x, 2-y, 3-z, 4-all directions 
   EPSILON=  1.0000000 bulk dielectric constant

 Exchange correlation treatment:
   GGA     =    --    GGA type
   LEXCH   =     8    internal setting for exchange type
   VOSKOWN=      0    Vosko Wilk Nusair interpolation
   LHFCALC =     F    Hartree Fock is set to
   LHFONE  =     F    Hartree Fock one center treatment
   AEXX    =    0.0000 exact exchange contribution

 Linear response parameters
   LEPSILON=     F    determine dielectric tensor
   LRPA    =     F    only Hartree local field effects (RPA)
   LNABLA  =     F    use nabla operator in PAW spheres
   LVEL    =     F    velocity operator in full k-point grid
   LINTERFAST=   F  fast interpolation
   KINTER  =     0    interpolate to denser k-point grid
   CSHIFT  =0.1000    complex shift for real part using Kramers Kronig
   OMEGAMAX=  -1.0    maximum frequency
   DEG_THRESHOLD= 0.2000000E-02 threshold for treating states as degnerate
   RTIME   =   -0.100 relaxation time in fs
  (WPLASMAI=    0.000 imaginary part of plasma frequency in eV, 0.658/RTIME)
   DFIELD  = 0.0000000 0.0000000 0.0000000 field for delta impulse in time

 Orbital magnetization related:
   ORBITALMAG=     F  switch on orbital magnetization
   LCHIMAG   =     F  perturbation theory with respect to B field
   DQ        =  0.001000  dq finite difference perturbation B field
   LLRAUG    =     F  two centre corrections for induced B field



--------------------------------------------------------------------------------------------------------


 molecular dynamics for ions
   using nose mass (canonical ensemble)
 charge density and potential will be updated during run
 non-spin polarized calculation
 RMM-DIIS sequential band-by-band and
  variant of blocked Davidson during initial phase
 perform sub-space diagonalisation
    before iterative eigenvector-optimisation
 modified Broyden-mixing scheme, WC =      100.0
 initial mixing is a Kerker type mixing with AMIX =  0.4000 and BMIX =      1.0000
 Hartree-type preconditioning will be used
 using additional bands            4
 real space projection scheme for non local part
 use partial core corrections
 calculate Harris-corrections to forces   (improved forces if not selfconsistent)
 use gradient corrections 
 use of overlap-Matrix (Vanderbilt PP)
 Methfessel and Paxton  Order N= 1 SIGMA  =   0.20


--------------------------------------------------------------------------------------------------------


  energy-cutoff  :      400.00
  volume of cell :     1059.41
      direct lattice vectors                 reciprocal lattice vectors
    10.220707294  0.000000000  0.000000000     0.097840587 -0.002335771 -0.000765380
     0.240831700 10.087937087  0.000000000     0.000000000  0.099128295 -0.000525389
     0.081678382  0.054458287 10.274971222     0.000000000  0.000000000  0.097323874

  length of vectors
    10.220707294 10.090811393 10.275440170     0.097871457  0.099129687  0.097323874



 k-points in units of 2pi/SCALE and weight: read from INCAR                         
   0.02446015  0.02419813  0.02400828       0.250
  -0.02446015  0.02536602  0.02439097       0.250
   0.02446015 -0.02536602  0.02427097       0.250
  -0.02446015 -0.02419813  0.02465366       0.250

 k-points in reciprocal lattice and weights: read from INCAR                         
   0.25000000  0.25000000  0.25000000       0.250
  -0.25000000  0.25000000  0.25000000       0.250
   0.25000000 -0.25000000  0.25000000       0.250
  -0.25000000 -0.25000000  0.25000000       0.250

 position of ions in fractional coordinates (direct lattice) 
   0.53849615  0.40699992  0.36102966
   0.39492389  0.47999858  0.43833334
   0.55284506  0.56552381  0.44331281
   0.52838924  0.41650890  0.53944096
   0.50321821  0.46723974  0.44522165

 position of ions in cartesian coordinates  (Angst):
   5.63131834  4.12545068  3.70956932
   4.18780268  4.86606640  4.50386243
   5.82287266  5.72911064  4.55502639
   5.54488094  4.23109262  5.54274036
   5.29213713  4.73773107  4.57463968



--------------------------------------------------------------------------------------------------------


 k-point  1 :   0.2500 0.2500 0.2500  plane waves:   19247
 k-point  2 :  -0.2500 0.2500 0.2500  plane waves:   19252
 k-point  3 :   0.2500-0.2500 0.2500  plane waves:   19235
 k-point  4 :  -0.2500-0.2500 0.2500  plane waves:   19235

 maximum and minimum number of plane-waves per node :     19252    19235

 maximum number of plane-waves:     19252
 maximum index in each direction: 
   IXMAX=   16   IYMAX=   16   IZMAX=   16
   IXMIN=  -16   IYMIN=  -16   IZMIN=  -17


 serial   3D FFT for wavefunctions
 parallel 3D FFT for charge:
    minimum data exchange during FFTs selected (reduces bandwidth)


 total amount of memory used by VASP MPI-rank0   303776. kBytes
=======================================================================

   base      :      30000. kBytes
   nonlr-proj:        160. kBytes
   fftplans  :      94700. kBytes
   grid      :     169030. kBytes
   one-center:         15. kBytes
   wavefun   :       9871. kBytes

     INWAV:  cpu time    0.0000: real time    0.0000
 Broyden mixing: mesh for mixing (old mesh)
   NGX = 33   NGY = 33   NGZ = 33
  (NGX  =140   NGY  =140   NGZ  =140)
  gives a total of  35937 points

 initial charge density was supplied:
 charge density of overlapping atoms calculated
 number of electron       8.0000000 magnetization 
 keeping initial charge density in first step


--------------------------------------------------------------------------------------------------------


 Maximum index for non-local projection operator          708
 Maximum index for augmentation-charges         3707 (set IRDMAX)


--------------------------------------------------------------------------------------------------------


 First call to EWALD:  gamma=   0.174
 Maximum number of real-space cells 3x 3x 3
 Maximum number of reciprocal cells 3x 3x 3

    FEWALD:  cpu time    0.0007: real time    0.0007


--------------------------------------- Iteration      1(   1)  ---------------------------------------


    POTLOK:  cpu time    1.7899: real time    1.7943
    SETDIJ:  cpu time    0.0064: real time    0.0064
     EDDAV:  cpu time    2.7975: real time    2.8042
       DOS:  cpu time    0.0003: real time    0.0003
    --------------------------------------------
      LOOP:  cpu time    4.5940: real time    4.6051

 eigenvalue-minimisations  :    96
 total energy-change (2. order) : 0.1868804E+02  (-0.1977263E+03)
 number of electron       8.0000000 magnetization 
 augmentation part        8.0000000 magnetization 

 Free energy of the ion-electron system (eV)
  ---------------------------------------------------
  alpha Z        PSCENC =         0.22866583
  Ewald energy   TEWEN  =       126.25558699
  -Hartree energ DENC   =      -243.76834029
  -exchange      EXHF   =         0.00000000
  -V(xc)+E(xc)   XCENC  =        21.89182345
  PAW double counting   =       117.05815612     -117.66307307
  entropy T*S    EENTRO =         0.00452708
  eigenvalues    EBANDS =       -82.36106314
  atomic energy  EATOM  =       197.04175453
  Solvation  Ediel_sol  =         0.00000000
  ---------------------------------------------------
  free energy    TOTEN  =        18.68803751 eV

  energy without entropy =       18.68351043  energy(sigma->0) =       18.68652848


--------------------------------------------------------------------------------------------------------




--------------------------------------- Iteration      1(   2)  ---------------------------------------


     EDDAV:  cpu time    2.0616: real time    2.0666
       DOS:  cpu time    0.0002: real time    0.0002
    --------------------------------------------
      LOOP:  cpu time    2.0618: real time    2.0668

 eigenvalue-minimisations  :    64
 total energy-change (2. order) :-0.3985153E+02  (-0.3985395E+02)
 number of electron       8.0000000 magnetization 
 augmentation part        8.0000000 magnetization 

 Free energy of the ion-electron system (eV)
  ---------------------------------------------------
  alpha Z        PSCENC =         0.22866583
  Ewald energy   TEWEN  =       126.25558699
  -Hartree energ DENC   =      -243.76834029
  -exchange      EXHF   =         0.00000000
  -V(xc)+E(xc)   XCENC  =        21.89182345
  PAW double counting   =       117.05815612     -117.66307307
  entropy T*S    EENTRO =         0.00935178
  eigenvalues    EBANDS =      -122.21741597
  atomic energy  EATOM  =       197.04175453
  Solvation  Ediel_sol  =         0.00000000
  ---------------------------------------------------
  free energy    TOTEN  =       -21.16349062 eV

  energy without entropy =      -21.17284240  energy(sigma->0) =      -21.16660788


--------------------------------------------------------------------------------------------------------




--------------------------------------- Iteration      1(   3)  ---------------------------------------


     EDDAV:  cpu time    1.9623: real time    1.9669
       DOS:  cpu time    0.0002: real time    0.0002
    --------------------------------------------
      LOOP:  cpu time    1.9625: real time    1.9671

 eigenvalue-minimisations  :    64
 total energy-change (2. order) :-0.5795575E+01  (-0.5799907E+01)
 number of electron       8.0000000 magnetization 
 augmentation part        8.0000000 magnetization 

 Free energy of the ion-electron system (eV)
  ---------------------------------------------------
  alpha Z        PSCENC =         0.22866583
  Ewald energy   TEWEN  =       126.25558699
  -Hartree energ DENC   =      -243.76834029
  -exchange      EXHF   =         0.00000000
  -V(xc)+E(xc)   XCENC  =        21.89182345
  PAW double counting   =       117.05815612     -117.66307307
  entropy T*S    EENTRO =         0.02357212
  eigenvalues    EBANDS =      -128.02721157
  atomic energy  EATOM  =       197.04175453
  Solvation  Ediel_sol  =         0.00000000
  ---------------------------------------------------
  free energy    TOTEN  =       -26.95906588 eV

  energy without entropy =      -26.98263800  energy(sigma->0) =      -26.96692325


--------------------------------------------------------------------------------------------------------




--------------------------------------- Iteration      1(   4)  ---------------------------------------


     EDDAV:  cpu time    3.6146: real time    3.6231
       DOS:  cpu time    0.0002: real time    0.0002
    --------------------------------------------
      LOOP:  cpu time    3.6148: real time    3.6233

 eigenvalue-minimisations  :   128
 total energy-change (2. order) :-0.2700329E+00  (-0.2697060E+00)
 number of electron       8.0000000 magnetization 
 augmentation part        8.0000000 magnetization 

 Free energy of the ion-electron system (eV)
  ---------------------------------------------------
  alpha Z        PSCENC =         0.22866583
  Ewald energy   TEWEN  =       126.25558699
  -Hartree energ DENC   =      -243.76834029
  -exchange      EXHF   =         0.00000000
  -V(xc)+E(xc)   XCENC  =        21.89182345
  PAW double counting   =       117.05815612     -117.66307307
  entropy T*S    EENTRO =         0.02464373
  eigenvalues    EBANDS =      -128.29831604
  atomic energy  EATOM  =       197.04175453
  Solvation  Ediel_sol  =         0.00000000
  ---------------------------------------------------
  free energy    TOTEN  =       -27.22909874 eV

  energy without entropy =      -27.25374247  energy(sigma->0) =      -27.23731332


--------------------------------------------------------------------------------------------------------




--------------------------------------- Iteration      1(   5)  ---------------------------------------


     EDDAV:  cpu time    2.7840: real time    2.7906
       DOS:  cpu time    0.0002: real time    0.0002
    CHARGE:  cpu time    0.1803: real time    0.1808
    MIXING:  cpu time    0.0404: real time    0.0405
    --------------------------------------------
      LOOP:  cpu time    3.0050: real time    3.0121

 eigenvalue-minimisations  :    96
 total energy-change (2. order) :-0.1069310E-03  (-0.1069320E-03)
 number of electron       8.0000001 magnetization 
 augmentation part        0.2168170 magnetization 

 Broyden mixing:
  rms(total) = 0.83419E+00    rms(broyden)= 0.83396E+00
  rms(prec ) = 0.11788E+01
  weight for this iteration     100.00

 Free energy of the ion-electron system (eV)
  ---------------------------------------------------
  alpha Z        PSCENC =         0.22866583
  Ewald energy   TEWEN  =       126.25558699
  -Hartree energ DENC   =      -243.76834029
  -exchange      EXHF   =         0.00000000
  -V(xc)+E(xc)   XCENC  =        21.89182345
  PAW double counting   =       117.05815612     -117.66307307
  entropy T*S    EENTRO =         0.02464368
  eigenvalues    EBANDS =      -128.29842292
  atomic energy  EATOM  =       197.04175453
  Solvation  Ediel_sol  =         0.00000000
  ---------------------------------------------------
  free energy    TOTEN  =       -27.22920567 eV

  energy without entropy =      -27.25384936  energy(sigma->0) =      -27.23742023


--------------------------------------------------------------------------------------------------------




--------------------------------------- Iteration      1(   6)  ---------------------------------------


    POTLOK:  cpu time    1.7563: real time    1.7605
    SETDIJ:  cpu time    0.0063: real time    0.0063
    EDDIAG:  cpu time    0.3831: real time    0.3840
  RMM-DIIS:  cpu time    1.3990: real time    1.4024
    ORTHCH:  cpu time    0.0116: real time    0.0116
       DOS:  cpu time    0.0002: real time    0.0002
    CHARGE:  cpu time    0.1803: real time    0.1807
    MIXING:  cpu time    0.0418: real time    0.0419
    --------------------------------------------
      LOOP:  cpu time    3.7786: real time    3.7876

 eigenvalue-minimisations  :    64
 total energy-change (2. order) : 0.2657016E+01  (-0.4818613E+00)
 number of electron       8.0000001 magnetization 
 augmentation part        0.1909715 magnetization 

 Broyden mixing:
  rms(total) = 0.41163E+00    rms(broyden)= 0.41153E+00
  rms(prec ) = 0.53211E+00
  weight for this iteration     100.00

 eigenvalues of (default mixing * dielectric matrix)
  average eigenvalue GAMMA=   1.2901
  1.2901

 Free energy of the ion-electron system (eV)
  ---------------------------------------------------
  alpha Z        PSCENC =         0.22866583
  Ewald energy   TEWEN  =       126.25558699
  -Hartree energ DENC   =      -262.66914631
  -exchange      EXHF   =         0.00000000
  -V(xc)+E(xc)   XCENC  =        23.03964357
  PAW double counting   =       228.70159828     -229.47043970
  entropy T*S    EENTRO =         0.03018094
  eigenvalues    EBANDS =      -107.73003332
  atomic energy  EATOM  =       197.04175453
  Solvation  Ediel_sol  =         0.00000000
  ---------------------------------------------------
  free energy    TOTEN  =       -24.57218918 eV

  energy without entropy =      -24.60237012  energy(sigma->0) =      -24.58224950


--------------------------------------------------------------------------------------------------------




--------------------------------------- Iteration      1(   7)  ---------------------------------------


    POTLOK:  cpu time    1.7632: real time    1.7674
    SETDIJ:  cpu time    0.0062: real time    0.0062
    EDDIAG:  cpu time    0.4097: real time    0.4106
  RMM-DIIS:  cpu time    1.3826: real time    1.3859
    ORTHCH:  cpu time    0.0117: real time    0.0117
       DOS:  cpu time    0.0002: real time    0.0002
    CHARGE:  cpu time    0.1705: real time    0.1709
    MIXING:  cpu time    0.0426: real time    0.0427
    --------------------------------------------
      LOOP:  cpu time    3.7867: real time    3.7957

 eigenvalue-minimisations  :    64
 total energy-change (2. order) : 0.4502680E+00  (-0.1009291E+00)
 number of electron       8.0000001 magnetization 
 augmentation part        0.1813378 magnetization 

 Broyden mixing:
  rms(total) = 0.22027E+00    rms(broyden)= 0.22021E+00
  rms(prec ) = 0.26745E+00
  weight for this iteration     100.00

 eigenvalues of (default mixing * dielectric matrix)
  average eigenvalue GAMMA=   1.8331
  1.4316  2.2346

 Free energy of the ion-electron system (eV)
  ---------------------------------------------------
  alpha Z        PSCENC =         0.22866583
  Ewald energy   TEWEN  =       126.25558699
  -Hartree energ DENC   =      -273.53722840
  -exchange      EXHF   =         0.00000000
  -V(xc)+E(xc)   XCENC  =        23.84525545
  PAW double counting   =       339.76243377     -340.56442667
  entropy T*S    EENTRO =         0.03399744
  eigenvalues    EBANDS =       -97.18796010
  atomic energy  EATOM  =       197.04175453
  Solvation  Ediel_sol  =         0.00000000
  ---------------------------------------------------
  free energy    TOTEN  =       -24.12192117 eV

  energy without entropy =      -24.15591860  energy(sigma->0) =      -24.13325365


--------------------------------------------------------------------------------------------------------




--------------------------------------- Iteration      1(   8)  ---------------------------------------


    POTLOK:  cpu time    1.7505: real time    1.7546
    SETDIJ:  cpu time    0.0064: real time    0.0064
    EDDIAG:  cpu time    0.4168: real time    0.4177
  RMM-DIIS:  cpu time    1.4071: real time    1.4104
    ORTHCH:  cpu time    0.0116: real time    0.0116
       DOS:  cpu time    0.0002: real time    0.0002
    CHARGE:  cpu time    0.1634: real time    0.1638
    MIXING:  cpu time    0.0431: real time    0.0432
    --------------------------------------------
      LOOP:  cpu time    3.7991: real time    3.8081

 eigenvalue-minimisations  :    64
 total energy-change (2. order) : 0.1430081E+00  (-0.1639691E-01)
 number of electron       8.0000001 magnetization 
 augmentation part        0.1800447 magnetization 

 Broyden mixing:
  rms(total) = 0.26149E-01    rms(broyden)= 0.26122E-01
  rms(prec ) = 0.54359E-01
  weight for this iteration     100.00

 eigenvalues of (default mixing * dielectric matrix)
  average eigenvalue GAMMA=   1.4898
  2.2538  1.3962  0.8196

 Free energy of the ion-electron system (eV)
  ---------------------------------------------------
  alpha Z        PSCENC =         0.22866583
  Ewald energy   TEWEN  =       126.25558699
  -Hartree energ DENC   =      -278.91357353
  -exchange      EXHF   =         0.00000000
  -V(xc)+E(xc)   XCENC  =        24.37807456
  PAW double counting   =       436.10044962     -436.87180351
  entropy T*S    EENTRO =         0.03625876
  eigenvalues    EBANDS =       -92.23432633
  atomic energy  EATOM  =       197.04175453
  Solvation  Ediel_sol  =         0.00000000
  ---------------------------------------------------
  free energy    TOTEN  =       -23.97891308 eV

  energy without entropy =      -24.01517184  energy(sigma->0) =      -23.99099933


--------------------------------------------------------------------------------------------------------




--------------------------------------- Iteration      1(   9)  ---------------------------------------


    POTLOK:  cpu time    1.7601: real time    1.7642
    SETDIJ:  cpu time    0.0064: real time    0.0064
    EDDIAG:  cpu time    0.4119: real time    0.4129
  RMM-DIIS:  cpu time    1.3993: real time    1.4026
    ORTHCH:  cpu time    0.0115: real time    0.0115
       DOS:  cpu time    0.0002: real time    0.0002
    CHARGE:  cpu time    0.1727: real time    0.1731
    MIXING:  cpu time    0.0439: real time    0.0440
    --------------------------------------------
      LOOP:  cpu time    3.8060: real time    3.8150

 eigenvalue-minimisations  :    64
 total energy-change (2. order) : 0.4892865E-02  (-0.9013864E-03)
 number of electron       8.0000001 magnetization 
 augmentation part        0.1796329 magnetization 

 Broyden mixing:
  rms(total) = 0.21282E-01    rms(broyden)= 0.21272E-01
  rms(prec ) = 0.42848E-01
  weight for this iteration     100.00

 eigenvalues of (default mixing * dielectric matrix)
  average eigenvalue GAMMA=   1.3558
  2.1562  1.3741  1.1825  0.7105

 Free energy of the ion-electron system (eV)
  ---------------------------------------------------
  alpha Z        PSCENC =         0.22866583
  Ewald energy   TEWEN  =       126.25558699
  -Hartree energ DENC   =      -279.88472090
  -exchange      EXHF   =         0.00000000
  -V(xc)+E(xc)   XCENC  =        24.43141450
  PAW double counting   =       438.15362510     -438.92713897
  entropy T*S    EENTRO =         0.03653865
  eigenvalues    EBANDS =       -91.30974594
  atomic energy  EATOM  =       197.04175453
  Solvation  Ediel_sol  =         0.00000000
  ---------------------------------------------------
  free energy    TOTEN  =       -23.97402021 eV

  energy without entropy =      -24.01055886  energy(sigma->0) =      -23.98619976


--------------------------------------------------------------------------------------------------------




--------------------------------------- Iteration      1(  10)  ---------------------------------------


    POTLOK:  cpu time    1.7574: real time    1.7617
    SETDIJ:  cpu time    0.0064: real time    0.0064
    EDDIAG:  cpu time    0.4199: real time    0.4209
  RMM-DIIS:  cpu time    1.3943: real time    1.3976
    ORTHCH:  cpu time    0.0115: real time    0.0115
       DOS:  cpu time    0.0002: real time    0.0002
    CHARGE:  cpu time    0.1726: real time    0.1730
    MIXING:  cpu time    0.0446: real time    0.0447
    --------------------------------------------
      LOOP:  cpu time    3.8070: real time    3.8161

 eigenvalue-minimisations  :    64
 total energy-change (2. order) : 0.1563152E-02  (-0.8821474E-03)
 number of electron       8.0000001 magnetization 
 augmentation part        0.1788553 magnetization 

 Broyden mixing:
  rms(total) = 0.14103E-01    rms(broyden)= 0.14099E-01
  rms(prec ) = 0.29215E-01
  weight for this iteration     100.00

 eigenvalues of (default mixing * dielectric matrix)
  average eigenvalue GAMMA=   1.7243
  3.0186  2.6992  1.2521  1.0503  0.6015

 Free energy of the ion-electron system (eV)
  ---------------------------------------------------
  alpha Z        PSCENC =         0.22866583
  Ewald energy   TEWEN  =       126.25558699
  -Hartree energ DENC   =      -281.07122937
  -exchange      EXHF   =         0.00000000
  -V(xc)+E(xc)   XCENC  =        24.47764076
  PAW double counting   =       434.01807004     -434.79432802
  entropy T*S    EENTRO =         0.03679968
  eigenvalues    EBANDS =       -90.16541751
  atomic energy  EATOM  =       197.04175453
  Solvation  Ediel_sol  =         0.00000000
  ---------------------------------------------------
  free energy    TOTEN  =       -23.97245706 eV

  energy without entropy =      -24.00925674  energy(sigma->0) =      -23.98472362


--------------------------------------------------------------------------------------------------------




--------------------------------------- Iteration      1(  11)  ---------------------------------------


    POTLOK:  cpu time    1.6610: real time    1.6649
    SETDIJ:  cpu time    0.0065: real time    0.0065
    EDDIAG:  cpu time    0.4184: real time    0.4194
  RMM-DIIS:  cpu time    1.3980: real time    1.4013
    ORTHCH:  cpu time    0.0118: real time    0.0118
       DOS:  cpu time    0.0002: real time    0.0002
    CHARGE:  cpu time    0.1667: real time    0.1671
    MIXING:  cpu time    0.0439: real time    0.0440
    --------------------------------------------
      LOOP:  cpu time    3.7065: real time    3.7153

 eigenvalue-minimisations  :    64
 total energy-change (2. order) : 0.6157075E-02  (-0.3400603E-03)
 number of electron       8.0000001 magnetization 
 augmentation part        0.1787507 magnetization 

 Broyden mixing:
  rms(total) = 0.10859E-01    rms(broyden)= 0.10859E-01
  rms(prec ) = 0.17045E-01
  weight for this iteration     100.00

 eigenvalues of (default mixing * dielectric matrix)
  average eigenvalue GAMMA=   1.6497
  3.1267  2.0305  0.6079  1.0241  1.5544  1.5544

 Free energy of the ion-electron system (eV)
  ---------------------------------------------------
  alpha Z        PSCENC =         0.22866583
  Ewald energy   TEWEN  =       126.25558699
  -Hartree energ DENC   =      -282.11614028
  -exchange      EXHF   =         0.00000000
  -V(xc)+E(xc)   XCENC  =        24.51405129
  PAW double counting   =       427.30094453     -428.07416688
  entropy T*S    EENTRO =         0.03712623
  eigenvalues    EBANDS =       -89.15412223
  atomic energy  EATOM  =       197.04175453
  Solvation  Ediel_sol  =         0.00000000
  ---------------------------------------------------
  free energy    TOTEN  =       -23.96629998 eV

  energy without entropy =      -24.00342621  energy(sigma->0) =      -23.97867539


--------------------------------------------------------------------------------------------------------




--------------------------------------- Iteration      1(  12)  ---------------------------------------


    POTLOK:  cpu time    1.6084: real time    1.6122
    SETDIJ:  cpu time    0.0062: real time    0.0062
    EDDIAG:  cpu time    0.4068: real time    0.4078
  RMM-DIIS:  cpu time    1.3942: real time    1.3975
    ORTHCH:  cpu time    0.0115: real time    0.0115
       DOS:  cpu time    0.0002: real time    0.0002
    CHARGE:  cpu time    0.1764: real time    0.1768
    MIXING:  cpu time    0.0447: real time    0.0448
    --------------------------------------------
      LOOP:  cpu time    3.6484: real time    3.6570

 eigenvalue-minimisations  :    64
 total energy-change (2. order) :-0.6657461E-02  (-0.7015432E-03)
 number of electron       8.0000001 magnetization 
 augmentation part        0.1789503 magnetization 

 Broyden mixing:
  rms(total) = 0.20183E-01    rms(broyden)= 0.20180E-01
  rms(prec ) = 0.24432E-01
  weight for this iteration     100.00

 eigenvalues of (default mixing * dielectric matrix)
  average eigenvalue GAMMA=   2.0099
  4.9507  2.8274  2.4795  0.6107  1.2103  0.9953  0.9953

 Free energy of the ion-electron system (eV)
  ---------------------------------------------------
  alpha Z        PSCENC =         0.22866583
  Ewald energy   TEWEN  =       126.25558699
  -Hartree energ DENC   =      -282.51954944
  -exchange      EXHF   =         0.00000000
  -V(xc)+E(xc)   XCENC  =        24.54625778
  PAW double counting   =       435.47337767     -436.24188784
  entropy T*S    EENTRO =         0.03713422
  eigenvalues    EBANDS =       -88.79429719
  atomic energy  EATOM  =       197.04175453
  Solvation  Ediel_sol  =         0.00000000
  ---------------------------------------------------
  free energy    TOTEN  =       -23.97295744 eV

  energy without entropy =      -24.01009166  energy(sigma->0) =      -23.98533552


--------------------------------------------------------------------------------------------------------




--------------------------------------- Iteration      1(  13)  ---------------------------------------


    POTLOK:  cpu time    1.5219: real time    1.5255
    SETDIJ:  cpu time    0.0063: real time    0.0063
    EDDIAG:  cpu time    0.4137: real time    0.4146
  RMM-DIIS:  cpu time    1.3898: real time    1.3931
    ORTHCH:  cpu time    0.0119: real time    0.0120
       DOS:  cpu time    0.0002: real time    0.0002
    CHARGE:  cpu time    0.1695: real time    0.1699
    MIXING:  cpu time    0.0463: real time    0.0464
    --------------------------------------------
      LOOP:  cpu time    3.5596: real time    3.5680

 eigenvalue-minimisations  :    64
 total energy-change (2. order) :-0.3681064E-02  (-0.1285250E-03)
 number of electron       8.0000001 magnetization 
 augmentation part        0.1788796 magnetization 

 Broyden mixing:
  rms(total) = 0.64936E-02    rms(broyden)= 0.64934E-02
  rms(prec ) = 0.85433E-02
  weight for this iteration     100.00

 eigenvalues of (default mixing * dielectric matrix)
  average eigenvalue GAMMA=   1.9179
  4.8942  2.8594  2.3711  0.6101  1.1688  1.1688  1.1979  1.0724

 Free energy of the ion-electron system (eV)
  ---------------------------------------------------
  alpha Z        PSCENC =         0.22866583
  Ewald energy   TEWEN  =       126.25558699
  -Hartree energ DENC   =      -282.60025523
  -exchange      EXHF   =         0.00000000
  -V(xc)+E(xc)   XCENC  =        24.52766587
  PAW double counting   =       429.58765722     -430.35902008
  entropy T*S    EENTRO =         0.03705446
  eigenvalues    EBANDS =       -88.69574810
  atomic energy  EATOM  =       197.04175453
  Solvation  Ediel_sol  =         0.00000000
  ---------------------------------------------------
  free energy    TOTEN  =       -23.97663851 eV

  energy without entropy =      -24.01369296  energy(sigma->0) =      -23.98898999


--------------------------------------------------------------------------------------------------------




--------------------------------------- Iteration      1(  14)  ---------------------------------------


    POTLOK:  cpu time    1.5188: real time    1.5224
    SETDIJ:  cpu time    0.0064: real time    0.0065
    EDDIAG:  cpu time    0.4261: real time    0.4271
  RMM-DIIS:  cpu time    1.3815: real time    1.3848
    ORTHCH:  cpu time    0.0118: real time    0.0119
       DOS:  cpu time    0.0002: real time    0.0002
    CHARGE:  cpu time    0.1609: real time    0.1613
    MIXING:  cpu time    0.0467: real time    0.0468
    --------------------------------------------
      LOOP:  cpu time    3.5524: real time    3.5608

 eigenvalue-minimisations  :    64
 total energy-change (2. order) :-0.2563976E-02  (-0.2800022E-03)
 number of electron       8.0000001 magnetization 
 augmentation part        0.1785939 magnetization 

 Broyden mixing:
  rms(total) = 0.65501E-02    rms(broyden)= 0.65475E-02
  rms(prec ) = 0.84972E-02
  weight for this iteration     100.00

 eigenvalues of (default mixing * dielectric matrix)
  average eigenvalue GAMMA=   2.2136
  6.0546  4.1749  2.4087  2.4087  1.1530  1.1530  0.6106  1.0234  0.9357

 Free energy of the ion-electron system (eV)
  ---------------------------------------------------
  alpha Z        PSCENC =         0.22866583
  Ewald energy   TEWEN  =       126.25558699
  -Hartree energ DENC   =      -282.66476263
  -exchange      EXHF   =         0.00000000
  -V(xc)+E(xc)   XCENC  =        24.52083391
  PAW double counting   =       427.78706908     -428.56074508
  entropy T*S    EENTRO =         0.03702396
  eigenvalues    EBANDS =       -88.62462908
  atomic energy  EATOM  =       197.04175453
  Solvation  Ediel_sol  =         0.00000000
  ---------------------------------------------------
  free energy    TOTEN  =       -23.97920248 eV

  energy without entropy =      -24.01622645  energy(sigma->0) =      -23.99154380


--------------------------------------------------------------------------------------------------------




--------------------------------------- Iteration      1(  15)  ---------------------------------------


    POTLOK:  cpu time    1.5009: real time    1.5044
    SETDIJ:  cpu time    0.0063: real time    0.0063
    EDDIAG:  cpu time    0.4255: real time    0.4265
  RMM-DIIS:  cpu time    1.5242: real time    1.5278
    ORTHCH:  cpu time    0.0127: real time    0.0127
       DOS:  cpu time    0.0002: real time    0.0002
    CHARGE:  cpu time    0.2804: real time    0.2811
    MIXING:  cpu time    0.0491: real time    0.0492
    --------------------------------------------
      LOOP:  cpu time    3.7992: real time    3.8082

 eigenvalue-minimisations  :    64
 total energy-change (2. order) :-0.9906832E-03  (-0.4703482E-04)
 number of electron       8.0000001 magnetization 
 augmentation part        0.1786176 magnetization 

 Broyden mixing:
  rms(total) = 0.29531E-02    rms(broyden)= 0.29529E-02
  rms(prec ) = 0.37202E-02
  weight for this iteration     100.00

 eigenvalues of (default mixing * dielectric matrix)
  average eigenvalue GAMMA=   2.2278
  6.7944  4.3012  2.5006  2.5006  1.1665  1.1665  0.6107  1.2059  1.0906  0.9417

 Free energy of the ion-electron system (eV)
  ---------------------------------------------------
  alpha Z        PSCENC =         0.22866583
  Ewald energy   TEWEN  =       126.25558699
  -Hartree energ DENC   =      -282.55227665
  -exchange      EXHF   =         0.00000000
  -V(xc)+E(xc)   XCENC  =        24.51402374
  PAW double counting   =       428.33569124     -429.10800677
  entropy T*S    EENTRO =         0.03700499
  eigenvalues    EBANDS =       -88.73263708
  atomic energy  EATOM  =       197.04175453
  Solvation  Ediel_sol  =         0.00000000
  ---------------------------------------------------
  free energy    TOTEN  =       -23.98019317 eV

  energy without entropy =      -24.01719816  energy(sigma->0) =      -23.99252816


--------------------------------------------------------------------------------------------------------




--------------------------------------- Iteration      1(  16)  ---------------------------------------


    POTLOK:  cpu time    1.5195: real time    1.5231
    SETDIJ:  cpu time    0.0066: real time    0.0066
    EDDIAG:  cpu time    0.4184: real time    0.4194
  RMM-DIIS:  cpu time    1.3838: real time    1.3870
    ORTHCH:  cpu time    0.0122: real time    0.0122
       DOS:  cpu time    0.0002: real time    0.0002
    CHARGE:  cpu time    0.1779: real time    0.1785
    MIXING:  cpu time    0.0510: real time    0.0511
    --------------------------------------------
      LOOP:  cpu time    3.5695: real time    3.5781

 eigenvalue-minimisations  :    64
 total energy-change (2. order) :-0.2126986E-03  (-0.1440717E-04)
 number of electron       8.0000001 magnetization 
 augmentation part        0.1786912 magnetization 

 Broyden mixing:
  rms(total) = 0.81882E-03    rms(broyden)= 0.81771E-03
  rms(prec ) = 0.10779E-02
  weight for this iteration     100.00

 eigenvalues of (default mixing * dielectric matrix)
  average eigenvalue GAMMA=   2.3861
  7.5207  4.6090  3.3138  2.3819  2.3819  0.6107  1.1913  1.1913  1.0544  1.0544
  0.9377

 Free energy of the ion-electron system (eV)
  ---------------------------------------------------
  alpha Z        PSCENC =         0.22866583
  Ewald energy   TEWEN  =       126.25558699
  -Hartree energ DENC   =      -282.54129944
  -exchange      EXHF   =         0.00000000
  -V(xc)+E(xc)   XCENC  =        24.51414003
  PAW double counting   =       428.47058779     -429.24236055
  entropy T*S    EENTRO =         0.03702335
  eigenvalues    EBANDS =       -88.74450441
  atomic energy  EATOM  =       197.04175453
  Solvation  Ediel_sol  =         0.00000000
  ---------------------------------------------------
  free energy    TOTEN  =       -23.98040587 eV

  energy without entropy =      -24.01742922  energy(sigma->0) =      -23.99274698


--------------------------------------------------------------------------------------------------------




--------------------------------------- Iteration      1(  17)  ---------------------------------------


    POTLOK:  cpu time    1.6291: real time    1.6330
    SETDIJ:  cpu time    0.0066: real time    0.0066
    EDDIAG:  cpu time    0.3954: real time    0.3963
  RMM-DIIS:  cpu time    1.3783: real time    1.3816
    ORTHCH:  cpu time    0.0118: real time    0.0119
       DOS:  cpu time    0.0002: real time    0.0002
    CHARGE:  cpu time    0.1739: real time    0.1744
    MIXING:  cpu time    0.0516: real time    0.0518
    --------------------------------------------
      LOOP:  cpu time    3.6470: real time    3.6558

 eigenvalue-minimisations  :    64
 total energy-change (2. order) :-0.1585728E-03  (-0.1444040E-05)
 number of electron       8.0000001 magnetization 
 augmentation part        0.1786746 magnetization 

 Broyden mixing:
  rms(total) = 0.39272E-03    rms(broyden)= 0.39247E-03
  rms(prec ) = 0.55297E-03
  weight for this iteration     100.00

 eigenvalues of (default mixing * dielectric matrix)
  average eigenvalue GAMMA=   2.4002
  8.1827  5.0273  3.6151  2.4301  2.4301  0.6107  1.1799  1.1799  1.2246  1.0803
  0.9210  0.9210

 Free energy of the ion-electron system (eV)
  ---------------------------------------------------
  alpha Z        PSCENC =         0.22866583
  Ewald energy   TEWEN  =       126.25558699
  -Hartree energ DENC   =      -282.59289188
  -exchange      EXHF   =         0.00000000
  -V(xc)+E(xc)   XCENC  =        24.51781894
  PAW double counting   =       428.88498253     -429.65689329
  entropy T*S    EENTRO =         0.03704101
  eigenvalues    EBANDS =       -88.69662910
  atomic energy  EATOM  =       197.04175453
  Solvation  Ediel_sol  =         0.00000000
  ---------------------------------------------------
  free energy    TOTEN  =       -23.98056444 eV

  energy without entropy =      -24.01760545  energy(sigma->0) =      -23.99291144


--------------------------------------------------------------------------------------------------------




--------------------------------------- Iteration      1(  18)  ---------------------------------------


    POTLOK:  cpu time    1.6361: real time    1.6401
    SETDIJ:  cpu time    0.0062: real time    0.0062
    EDDIAG:  cpu time    0.3969: real time    0.3978
  RMM-DIIS:  cpu time    1.3639: real time    1.3673
    ORTHCH:  cpu time    0.0116: real time    0.0116
       DOS:  cpu time    0.0002: real time    0.0002
    CHARGE:  cpu time    0.1733: real time    0.1737
    MIXING:  cpu time    0.0508: real time    0.0510
    --------------------------------------------
      LOOP:  cpu time    3.6391: real time    3.6479

 eigenvalue-minimisations  :    64
 total energy-change (2. order) :-0.2033155E-04  (-0.8710315E-06)
 number of electron       8.0000001 magnetization 
 augmentation part        0.1786935 magnetization 

 Broyden mixing:
  rms(total) = 0.47712E-03    rms(broyden)= 0.47696E-03
  rms(prec ) = 0.58801E-03
  weight for this iteration     100.00

 eigenvalues of (default mixing * dielectric matrix)
  average eigenvalue GAMMA=   2.5115
  8.6264  5.4404  3.8559  2.9786  2.4048  2.3573  0.6107  1.1860  1.1860  1.0570
  1.0570  0.9450  0.9450

 Free energy of the ion-electron system (eV)
  ---------------------------------------------------
  alpha Z        PSCENC =         0.22866583
  Ewald energy   TEWEN  =       126.25558699
  -Hartree energ DENC   =      -282.57215407
  -exchange      EXHF   =         0.00000000
  -V(xc)+E(xc)   XCENC  =        24.51653778
  PAW double counting   =       428.77972753     -429.55149018
  entropy T*S    EENTRO =         0.03703955
  eigenvalues    EBANDS =       -88.71625273
  atomic energy  EATOM  =       197.04175453
  Solvation  Ediel_sol  =         0.00000000
  ---------------------------------------------------
  free energy    TOTEN  =       -23.98058477 eV

  energy without entropy =      -24.01762432  energy(sigma->0) =      -23.99293129


--------------------------------------------------------------------------------------------------------




--------------------------------------- Iteration      1(  19)  ---------------------------------------


    POTLOK:  cpu time    1.7286: real time    1.7328
    SETDIJ:  cpu time    0.0065: real time    0.0065
    EDDIAG:  cpu time    0.4199: real time    0.4209
  RMM-DIIS:  cpu time    1.1057: real time    1.1083
    ORTHCH:  cpu time    0.0122: real time    0.0122
       DOS:  cpu time    0.0002: real time    0.0002
    CHARGE:  cpu time    0.1766: real time    0.1770
    MIXING:  cpu time    0.0536: real time    0.0537
    --------------------------------------------
      LOOP:  cpu time    3.5032: real time    3.5116

 eigenvalue-minimisations  :    48
 total energy-change (2. order) :-0.1231512E-04  (-0.1102618E-06)
 number of electron       8.0000001 magnetization 
 augmentation part        0.1786946 magnetization 

 Broyden mixing:
  rms(total) = 0.17671E-03    rms(broyden)= 0.17670E-03
  rms(prec ) = 0.23979E-03
  weight for this iteration     100.00

 eigenvalues of (default mixing * dielectric matrix)
  average eigenvalue GAMMA=   2.4132
  8.6468  5.4740  3.9956  2.9488  2.4965  2.2959  0.6107  1.1674  1.1674  1.1302
  1.1302  0.9517  0.8845  0.8845

 Free energy of the ion-electron system (eV)
  ---------------------------------------------------
  alpha Z        PSCENC =         0.22866583
  Ewald energy   TEWEN  =       126.25558699
  -Hartree energ DENC   =      -282.57001311
  -exchange      EXHF   =         0.00000000
  -V(xc)+E(xc)   XCENC  =        24.51597909
  PAW double counting   =       428.68595773     -429.45781241
  entropy T*S    EENTRO =         0.03703531
  eigenvalues    EBANDS =       -88.71775106
  atomic energy  EATOM  =       197.04175453
  Solvation  Ediel_sol  =         0.00000000
  ---------------------------------------------------
  free energy    TOTEN  =       -23.98059709 eV

  energy without entropy =      -24.01763240  energy(sigma->0) =      -23.99294219


--------------------------------------------------------------------------------------------------------




--------------------------------------- Iteration      1(  20)  ---------------------------------------


    POTLOK:  cpu time    1.9047: real time    1.9093
    SETDIJ:  cpu time    0.0064: real time    0.0064
    EDDIAG:  cpu time    0.4222: real time    0.4232
  RMM-DIIS:  cpu time    1.0919: real time    1.0944
    ORTHCH:  cpu time    0.0117: real time    0.0117
       DOS:  cpu time    0.0002: real time    0.0002
    CHARGE:  cpu time    0.1712: real time    0.1716
    MIXING:  cpu time    0.0545: real time    0.0547
    --------------------------------------------
      LOOP:  cpu time    3.6629: real time    3.6716

 eigenvalue-minimisations  :    48
 total energy-change (2. order) :-0.1110991E-05  (-0.1843026E-06)
 number of electron       8.0000001 magnetization 
 augmentation part        0.1786873 magnetization 

 Broyden mixing:
  rms(total) = 0.77547E-04    rms(broyden)= 0.77490E-04
  rms(prec ) = 0.10274E-03
  weight for this iteration     100.00

 eigenvalues of (default mixing * dielectric matrix)
  average eigenvalue GAMMA=   2.4193
  8.7509  5.3251  4.4678  2.7120  2.7120  2.1626  2.1626  0.6107  1.1796  1.1796
  1.1165  1.0714  0.9236  0.9575  0.9575

 Free energy of the ion-electron system (eV)
  ---------------------------------------------------
  alpha Z        PSCENC =         0.22866583
  Ewald energy   TEWEN  =       126.25558699
  -Hartree energ DENC   =      -282.57643446
  -exchange      EXHF   =         0.00000000
  -V(xc)+E(xc)   XCENC  =        24.51629337
  PAW double counting   =       428.68901488     -429.46093482
  entropy T*S    EENTRO =         0.03703542
  eigenvalues    EBANDS =       -88.71157995
  atomic energy  EATOM  =       197.04175453
  Solvation  Ediel_sol  =         0.00000000
  ---------------------------------------------------
  free energy    TOTEN  =       -23.98059820 eV

  energy without entropy =      -24.01763361  energy(sigma->0) =      -23.99294334


--------------------------------------------------------------------------------------------------------




--------------------------------------- Iteration      1(  21)  ---------------------------------------


    POTLOK:  cpu time    1.7608: real time    1.7650
    SETDIJ:  cpu time    0.0066: real time    0.0066
    EDDIAG:  cpu time    0.4235: real time    0.4245
  RMM-DIIS:  cpu time    1.0865: real time    1.0891
    ORTHCH:  cpu time    0.0119: real time    0.0119
       DOS:  cpu time    0.0002: real time    0.0002
    CHARGE:  cpu time    0.1717: real time    0.1722
    MIXING:  cpu time    0.0562: real time    0.0563
    --------------------------------------------
      LOOP:  cpu time    3.5174: real time    3.5257

 eigenvalue-minimisations  :    48
 total energy-change (2. order) :-0.1188559E-05  (-0.2600215E-07)
 number of electron       8.0000001 magnetization 
 augmentation part        0.1786854 magnetization 

 Broyden mixing:
  rms(total) = 0.72276E-04    rms(broyden)= 0.72254E-04
  rms(prec ) = 0.96867E-04
  weight for this iteration     100.00

 eigenvalues of (default mixing * dielectric matrix)
  average eigenvalue GAMMA=   2.3942
  8.7764  5.6129  3.9262  3.9262  2.5083  2.5083  2.1961  0.6107  1.1692  1.1692
  1.1147  1.0096  1.0096  0.9128  0.9288  0.9288

 Free energy of the ion-electron system (eV)
  ---------------------------------------------------
  alpha Z        PSCENC =         0.22866583
  Ewald energy   TEWEN  =       126.25558699
  -Hartree energ DENC   =      -282.57706922
  -exchange      EXHF   =         0.00000000
  -V(xc)+E(xc)   XCENC  =        24.51636778
  PAW double counting   =       428.68857164     -429.46048184
  entropy T*S    EENTRO =         0.03703553
  eigenvalues    EBANDS =       -88.71103063
  atomic energy  EATOM  =       197.04175453
  Solvation  Ediel_sol  =         0.00000000
  ---------------------------------------------------
  free energy    TOTEN  =       -23.98059938 eV

  energy without entropy =      -24.01763492  energy(sigma->0) =      -23.99294456


--------------------------------------------------------------------------------------------------------




--------------------------------------- Iteration      1(  22)  ---------------------------------------


    POTLOK:  cpu time    1.6958: real time    1.6998
    SETDIJ:  cpu time    0.0064: real time    0.0064
    EDDIAG:  cpu time    0.3998: real time    0.4008
  RMM-DIIS:  cpu time    1.0354: real time    1.0378
    ORTHCH:  cpu time    0.0119: real time    0.0120
       DOS:  cpu time    0.0002: real time    0.0002
    --------------------------------------------
      LOOP:  cpu time    3.1495: real time    3.1570

 eigenvalue-minimisations  :    44
 total energy-change (2. order) :-0.3575034E-06  (-0.4625677E-08)
 number of electron       8.0000001 magnetization 
 augmentation part        0.1786854 magnetization 

 Free energy of the ion-electron system (eV)
  ---------------------------------------------------
  alpha Z        PSCENC =         0.22866583
  Ewald energy   TEWEN  =       126.25558699
  -Hartree energ DENC   =      -282.57446196
  -exchange      EXHF   =         0.00000000
  -V(xc)+E(xc)   XCENC  =        24.51623039
  PAW double counting   =       428.68183530     -429.45372747
  entropy T*S    EENTRO =         0.03703497
  eigenvalues    EBANDS =       -88.71351832
  atomic energy  EATOM  =       197.04175453
  Solvation  Ediel_sol  =         0.00000000
  ---------------------------------------------------
  free energy    TOTEN  =       -23.98059974 eV

  energy without entropy =      -24.01763471  energy(sigma->0) =      -23.99294473


--------------------------------------------------------------------------------------------------------




 average (electrostatic) potential at core
  the test charge radii are     0.5201  0.6991
  (the norm of the test charge is              1.0000)
       1 -41.3487       2 -41.3636       3 -41.3855       4 -41.3830       5 -58.0927



 E-fermi :  -8.9798     XC(G=0):  -0.6718     alpha+bet : -0.1989


 k-point     1 :       0.2500    0.2500    0.2500
  band No.  band energies     occupation 
      1     -16.7312      2.00000
      2      -9.3013      2.04542
      3      -9.2058      2.06778
      4      -9.1109      1.88687
      5      -0.3529      0.00000
      6       0.5295      0.00000
      7       0.6507      0.00000
      8       0.6779      0.00000

 k-point     2 :      -0.2500    0.2500    0.2500
  band No.  band energies     occupation 
      1     -16.7312      2.00000
      2      -9.3014      2.04540
      3      -9.2058      2.06779
      4      -9.1109      1.88687
      5      -0.3479      0.00000
      6       0.5194      0.00000
      7       0.6288      0.00000
      8       0.6663      0.00000

 k-point     3 :       0.2500   -0.2500    0.2500
  band No.  band energies     occupation 
      1     -16.7311      2.00000
      2      -9.3013      2.04543
      3      -9.2058      2.06777
      4      -9.1109      1.88680
      5      -0.3480      0.00000
      6       0.5180      0.00000
      7       0.6339      0.00000
      8       0.6660      0.00000

 k-point     4 :      -0.2500   -0.2500    0.2500
  band No.  band energies     occupation 
      1     -16.7311      2.00000
      2      -9.3014      2.04542
      3      -9.2058      2.06776
      4      -9.1109      1.88669
      5      -0.3506      0.00000
      6       0.5240      0.00000
      7       0.6438      0.00000
      8       0.6722      0.00000


--------------------------------------------------------------------------------------------------------


 soft charge-density along one line, spin component           1
         0         1         2         3         4         5         6         7         8         9
 total charge-density along one line

 pseudopotential strength for first ion, spin component:           1
 -2.339  -4.031  -0.001  -0.002   0.001
 -4.031  -6.859  -0.003  -0.004   0.002
 -0.001  -0.003  -0.337   0.002  -0.001
 -0.002  -0.004   0.002  -0.336  -0.001
  0.001   0.002  -0.001  -0.001  -0.338
 total augmentation occupancy for first ion, spin component:           1
  3.521  -0.639   0.225   0.388  -0.174
 -0.639   0.129  -0.043  -0.071   0.032
  0.225  -0.043   0.019   0.021  -0.010
  0.388  -0.071   0.021   0.047  -0.018
 -0.174   0.032  -0.010  -0.018   0.017


------------------------ aborting loop because EDIFF is reached ----------------------------------------


    CHARGE:  cpu time    0.1684: real time    0.1688
    FORLOC:  cpu time    0.1145: real time    0.1148
    FORNL :  cpu time    0.6197: real time    0.6212
    STRESS:  cpu time    1.9780: real time    1.9827
    FORCOR:  cpu time    1.7453: real time    1.7494
    FORHAR:  cpu time    0.5735: real time    0.5749
    MIXING:  cpu time    0.0562: real time    0.0563
    OFIELD:  cpu time    0.0000: real time    0.0000

  FORCE on cell =-STRESS in cart. coord.  units (eV):
  Direction    XX          YY          ZZ          XY          YZ          ZX
  --------------------------------------------------------------------------------------
  Alpha Z     0.22867     0.22867     0.22867
  Ewald      42.81319    41.07730    42.36506     2.07650     1.09250     0.75558
  Hartree    94.32180    94.35647    93.89463     1.21663     0.40613     0.22041
  E(xc)     -26.96150   -26.98031   -26.95922     0.01212     0.00519     0.00398
  Local    -196.18441  -194.16138  -195.53761    -3.51982    -1.46324    -0.71435
  n-local   -16.15804   -15.02222   -15.57332    -0.02601    -0.13187     0.04956
  augment     0.12520     0.11890     0.12545     0.00378     0.00019    -0.00160
  Kinetic    99.96557    98.77211   100.32082     0.46047     0.06372    -0.54309
  Fock        0.00000     0.00000     0.00000     0.00000     0.00000     0.00000
  -------------------------------------------------------------------------------------
  Total      -1.84952    -1.61046    -1.13552     0.22366    -0.02738    -0.22951
  in kB      -2.79708    -2.43555    -1.71728     0.33825    -0.04140    -0.34710
  external pressure =       -2.32 kB  Pullay stress =        0.00 kB

  kinetic pressure (ideal gas correction) =      0.03 kB
  total pressure  =     -2.29 kB
  Total+kin.    -2.775      -2.400      -1.696       0.319      -0.054      -0.351

 VOLUME and BASIS-vectors are now :
 -----------------------------------------------------------------------------
  energy-cutoff  :      400.00
  volume of cell :     1059.41
      direct lattice vectors                 reciprocal lattice vectors
    10.220707294  0.000000000  0.000000000     0.097840587 -0.002335771 -0.000765380
     0.240831700 10.087937087  0.000000000     0.000000000  0.099128295 -0.000525389
     0.081678382  0.054458287 10.274971222     0.000000000  0.000000000  0.097323874

  length of vectors
    10.220707294 10.090811393 10.275440170     0.097871457  0.099129687  0.097323874


 FORCES acting on ions
    electron-ion (+dipol)            ewald-force                    non-local-force                 convergence-correction
 -----------------------------------------------------------------------------------------------
   -.159E+02 0.287E+02 0.402E+02   0.173E+02 -.312E+02 -.440E+02   -.158E+01 0.269E+01 0.422E+01   -.612E-04 0.117E-03 0.175E-03
   0.512E+02 -.629E+01 0.333E+01   -.560E+02 0.665E+01 -.356E+01   0.546E+01 -.384E+00 0.814E+00   0.212E-03 -.170E-04 0.158E-04
   -.239E+02 -.453E+02 0.940E+00   0.261E+02 0.490E+02 -.104E+01   -.241E+01 -.426E+01 0.155E+00   -.102E-03 -.188E-03 0.116E-04
   -.117E+02 0.235E+02 -.443E+02   0.126E+02 -.253E+02 0.482E+02   -.142E+01 0.217E+01 -.462E+01   -.391E-04 0.986E-04 -.183E-03
   -.213E-01 -.871E+00 -.435E+00   0.698E-02 0.806E+00 0.380E+00   -.684E+00 0.161E+01 -.574E+00   0.690E-04 0.463E-04 0.101E-03
 -----------------------------------------------------------------------------------------------
   -.269E+00 -.271E+00 -.256E+00   -.354E-14 0.355E-14 0.000E+00   -.630E+00 0.182E+01 -.570E-02   0.792E-04 0.576E-04 0.120E-03


 POSITION                                       TOTAL-FORCE (eV/Angst)
 -----------------------------------------------------------------------------------
      5.63132      4.12545      3.70957        -0.151106      0.255958      0.433356
      4.18780      4.86607      4.50386         0.733312     -0.023258      0.583265
      5.82287      5.72911      4.55503        -0.222812     -0.566877      0.058657
      5.54488      4.23109      5.54274        -0.559505      0.344768     -0.707736
      5.29214      4.73773      4.57464        -0.698214      1.541451     -0.629371
 -----------------------------------------------------------------------------------
    total drift:                               -0.898324      1.552043     -0.261829


--------------------------------------------------------------------------------------------------------



  FREE ENERGIE OF THE ION-ELECTRON SYSTEM (eV)
  ---------------------------------------------------
  free  energy   TOTEN  =       -23.98059974 eV

  energy  without entropy=      -24.01763471  energy(sigma->0) =      -23.99294473



--------------------------------------------------------------------------------------------------------


    POTLOK:  cpu time    1.7268: real time    1.7309


--------------------------------------------------------------------------------------------------------


           RANDOM_SEED =         578495987                0                0
           RANDOM_SEED =         578495987               30                0
   IONSTEP:  cpu time    0.0016: real time    0.0018

  ENERGY OF THE ELECTRON-ION-THERMOSTAT SYSTEM (eV)
  ---------------------------------------------------
% ion-electron   TOTEN  =       -23.980600  see above
  kinetic energy EKIN   =         0.021625
  kin. lattice  EKIN_LAT=         0.000000  (temperature   41.82 K)
  nose potential ES     =         0.000000
  nose kinetic   EPS    =         0.000002
  ---------------------------------------------------
  total energy   ETOTAL =       -23.958973 eV

  maximum distance moved by ions :      0.39E-02


 mean value of Nose-termostat <S>:     0.998 mean value of <T> :    41.824
 mean temperature <T/S>/<1/S>  :    41.824

    WAVPRE:  cpu time    0.4581: real time    0.4636
    FEWALD:  cpu time    0.0003: real time    0.0003
    ORTHCH:  cpu time    0.2186: real time    0.2192
     LOOP+:  cpu time   84.8411: real time   85.0497


--------------------------------------- Iteration      2(   1)  ---------------------------------------


    POTLOK:  cpu time    1.6942: real time    1.6983
    SETDIJ:  cpu time    0.0062: real time    0.0063
     EDDAV:  cpu time    2.0727: real time    2.0776
       DOS:  cpu time    0.0002: real time    0.0002
    CHARGE:  cpu time    0.1746: real time    0.1750
    MIXING:  cpu time    0.0447: real time    0.0448
    --------------------------------------------
      LOOP:  cpu time    3.9928: real time    4.0023

 eigenvalue-minimisations  :    64
 total energy-change (2. order) :-0.2719104E-01  (-0.1247903E+00)
 number of electron       8.0000002 magnetization 
 augmentation part        0.1840430 magnetization 

 Broyden mixing:
  rms(total) = 0.67112E-01    rms(broyden)= 0.67006E-01
  rms(prec ) = 0.82938E-01
  weight for this iteration     100.00

 Free energy of the ion-electron system (eV)
  ---------------------------------------------------
  alpha Z        PSCENC =         0.22866583
  Ewald energy   TEWEN  =       129.80001632
  -Hartree energ DENC   =      -284.64398199
  -exchange      EXHF   =         0.00000000
  -V(xc)+E(xc)   XCENC  =        24.62048962
  PAW double counting   =       428.69111182     -429.46298573
  entropy T*S    EENTRO =         0.03184712
  eigenvalues    EBANDS =       -90.31470794
  atomic energy  EATOM  =       197.04175453
  Solvation  Ediel_sol  =         0.00000000
  ---------------------------------------------------
  free energy    TOTEN  =       -24.00779043 eV

  energy without entropy =      -24.03963755  energy(sigma->0) =      -24.01840613


--------------------------------------------------------------------------------------------------------




--------------------------------------- Iteration      2(   2)  ---------------------------------------


    POTLOK:  cpu time    1.4593: real time    1.4627
    SETDIJ:  cpu time    0.0062: real time    0.0062
    EDDIAG:  cpu time    0.4303: real time    0.4313
  RMM-DIIS:  cpu time    1.5089: real time    1.5124
    ORTHCH:  cpu time    0.0114: real time    0.0115
       DOS:  cpu time    0.0002: real time    0.0002
    CHARGE:  cpu time    0.1626: real time    0.1630
    MIXING:  cpu time    0.0567: real time    0.0569
    --------------------------------------------
      LOOP:  cpu time    3.6357: real time    3.6442

 eigenvalue-minimisations  :    64
 total energy-change (2. order) : 0.7721345E-02  (-0.1652091E-02)
 number of electron       8.0000002 magnetization 
 augmentation part        0.1841314 magnetization 

 Broyden mixing:
  rms(total) = 0.44706E-01    rms(broyden)= 0.44637E-01
  rms(prec ) = 0.54802E-01
  weight for this iteration     100.00

 eigenvalues of (default mixing * dielectric matrix)
  average eigenvalue GAMMA=   2.2808
  8.7911  5.5396  4.2589  3.2749  2.7667  2.3715  2.3715  1.4077  1.4077  0.6107
  1.1956  1.1956  1.1246  1.0105  0.9969  0.9541  0.9541  0.8226

 Free energy of the ion-electron system (eV)
  ---------------------------------------------------
  alpha Z        PSCENC =         0.22866583
  Ewald energy   TEWEN  =       129.80001632
  -Hartree energ DENC   =      -285.10212465
  -exchange      EXHF   =         0.00000000
  -V(xc)+E(xc)   XCENC  =        24.65123396
  PAW double counting   =       431.41046009     -432.18805825
  entropy T*S    EENTRO =         0.03132581
  eigenvalues    EBANDS =       -89.87334271
  atomic energy  EATOM  =       197.04175453
  Solvation  Ediel_sol  =         0.00000000
  ---------------------------------------------------
  free energy    TOTEN  =       -24.00006908 eV

  energy without entropy =      -24.03139489  energy(sigma->0) =      -24.01051102


--------------------------------------------------------------------------------------------------------




--------------------------------------- Iteration      2(   3)  ---------------------------------------


    POTLOK:  cpu time    1.5251: real time    1.5287
    SETDIJ:  cpu time    0.0064: real time    0.0064
    EDDIAG:  cpu time    0.4188: real time    0.4198
  RMM-DIIS:  cpu time    1.4862: real time    1.4897
    ORTHCH:  cpu time    0.0118: real time    0.0118
       DOS:  cpu time    0.0002: real time    0.0002
    CHARGE:  cpu time    0.1758: real time    0.1762
    MIXING:  cpu time    0.0578: real time    0.0579
    --------------------------------------------
      LOOP:  cpu time    3.6821: real time    3.6908

 eigenvalue-minimisations  :    64
 total energy-change (2. order) :-0.3828003E-01  (-0.2860546E-01)
 number of electron       8.0000002 magnetization 
 augmentation part        0.1802541 magnetization 

 Broyden mixing:
  rms(total) = 0.12063E+00    rms(broyden)= 0.12060E+00
  rms(prec ) = 0.15169E+00
  weight for this iteration     100.00

 eigenvalues of (default mixing * dielectric matrix)
  average eigenvalue GAMMA=   2.2367
  8.7910  5.5344  4.2846  3.1804  2.8208  2.3885  2.3885  1.8805  1.4064  1.4064
  1.1984  1.1984  1.0662  1.0002  0.9611  0.9611  0.6107  0.8148  0.6053

 Free energy of the ion-electron system (eV)
  ---------------------------------------------------
  alpha Z        PSCENC =         0.22866583
  Ewald energy   TEWEN  =       129.80001632
  -Hartree energ DENC   =      -286.97203854
  -exchange      EXHF   =         0.00000000
  -V(xc)+E(xc)   XCENC  =        24.69817354
  PAW double counting   =       435.52905432     -436.34202200
  entropy T*S    EENTRO =         0.03214489
  eigenvalues    EBANDS =       -88.05409801
  atomic energy  EATOM  =       197.04175453
  Solvation  Ediel_sol  =         0.00000000
  ---------------------------------------------------
  free energy    TOTEN  =       -24.03834911 eV

  energy without entropy =      -24.07049400  energy(sigma->0) =      -24.04906407


--------------------------------------------------------------------------------------------------------




--------------------------------------- Iteration      2(   4)  ---------------------------------------


    POTLOK:  cpu time    1.5275: real time    1.5311
    SETDIJ:  cpu time    0.0064: real time    0.0064
    EDDIAG:  cpu time    0.4057: real time    0.4066
  RMM-DIIS:  cpu time    1.4941: real time    1.4976
    ORTHCH:  cpu time    0.0115: real time    0.0115
       DOS:  cpu time    0.0002: real time    0.0002
    CHARGE:  cpu time    0.1786: real time    0.1791
    MIXING:  cpu time    0.0602: real time    0.0604
    --------------------------------------------
      LOOP:  cpu time    3.6842: real time    3.6929

 eigenvalue-minimisations  :    64
 total energy-change (2. order) : 0.4244759E-01  (-0.2272817E-01)
 number of electron       8.0000002 magnetization 
 augmentation part        0.1837425 magnetization 

 Broyden mixing:
  rms(total) = 0.22353E-01    rms(broyden)= 0.22294E-01
  rms(prec ) = 0.29074E-01
  weight for this iteration     100.00

 eigenvalues of (default mixing * dielectric matrix)
  average eigenvalue GAMMA=   2.2057
  8.7880  5.5576  4.2209  3.4747  2.8111  2.4897  2.3230  2.3230  1.5184  1.5184
  1.1920  1.1920  0.6107  1.0399  1.0024  0.9632  0.9632  0.8197  0.8197  0.4871

 Free energy of the ion-electron system (eV)
  ---------------------------------------------------
  alpha Z        PSCENC =         0.22866583
[...]
  rms(prec ) = 0.15327E-03
  weight for this iteration     100.00

 eigenvalues of (default mixing * dielectric matrix)
  average eigenvalue GAMMA=   2.8027
  8.4381  7.7976  5.7408  5.2142  4.6393  0.7900  1.0481  1.0481  3.7768  1.3339
  1.4522  3.3319  1.7375  1.7375  2.0091  2.1475  2.1475  2.8668  2.8668  2.9939
  2.9173  2.8684  2.8684  2.1735  2.2258  2.2258  2.2854  2.2854  2.3171  2.7832
  2.5457  2.5457  2.5004  2.5004  2.6953  2.6953  2.4496  2.5557  2.5557  2.4786
  2.5168  2.5168  2.6367  2.6367  2.5359  2.6456  2.6456

 Free energy of the ion-electron system (eV)
  ---------------------------------------------------
  alpha Z        PSCENC =         0.22866583
  Ewald energy   TEWEN  =       130.59124300
  -Hartree energ DENC   =      -286.27864083
  -exchange      EXHF   =         0.00000000
  -V(xc)+E(xc)   XCENC  =        24.71302712
  PAW double counting   =       432.92408294     -433.71188086
  entropy T*S    EENTRO =         0.01159898
  eigenvalues    EBANDS =       -89.48262454
  atomic energy  EATOM  =       197.04175453
  Solvation  Ediel_sol  =         0.00000000
  ---------------------------------------------------
  free energy    TOTEN  =       -23.96277384 eV

  energy without entropy =      -23.97437282  energy(sigma->0) =      -23.96664016


--------------------------------------------------------------------------------------------------------




--------------------------------------- Iteration     10(  11)  ---------------------------------------


    POTLOK:  cpu time    1.5241: real time    1.5277
    SETDIJ:  cpu time    0.0057: real time    0.0057
    EDDIAG:  cpu time    0.3285: real time    0.3293
  RMM-DIIS:  cpu time    1.0002: real time    1.0026
    ORTHCH:  cpu time    0.0110: real time    0.0110
       DOS:  cpu time    0.0002: real time    0.0002
    CHARGE:  cpu time    0.1523: real time    0.1527
    MIXING:  cpu time    0.1143: real time    0.1146
    --------------------------------------------
      LOOP:  cpu time    3.1364: real time    3.1438

 eigenvalue-minimisations  :    48
 total energy-change (2. order) :-0.8974987E-05  (-0.6517314E-07)
 number of electron       8.0000000 magnetization 
 augmentation part        0.1845034 magnetization 

 Broyden mixing:
  rms(total) = 0.51109E-04    rms(broyden)= 0.51106E-04
  rms(prec ) = 0.69736E-04
  weight for this iteration     100.00

 eigenvalues of (default mixing * dielectric matrix)
  average eigenvalue GAMMA=   2.8000
  8.4399  7.8899  5.7574  5.5236  4.6790  0.8662  0.8662  3.8506  1.0202  1.1869
  3.4812  1.5699  1.5699  1.6165  1.8744  2.8912  2.8912  2.0779  2.9754  2.9754
  2.2074  2.2074  2.9247  2.8384  2.8384  2.2200  2.2200  2.2780  2.2780  2.4280
  2.4280  2.3450  2.3450  2.5634  2.5634  2.6393  2.6393  2.7141  2.6740  2.6355
  2.6355  2.5581  2.5581  2.6359  2.5935  2.4978  2.4775  2.4534

 Free energy of the ion-electron system (eV)
  ---------------------------------------------------
  alpha Z        PSCENC =         0.22866583
  Ewald energy   TEWEN  =       130.59124300
  -Hartree energ DENC   =      -286.28304440
  -exchange      EXHF   =         0.00000000
  -V(xc)+E(xc)   XCENC  =        24.71319444
  PAW double counting   =       432.87652204     -433.66438719
  entropy T*S    EENTRO =         0.01159899
  eigenvalues    EBANDS =       -89.47833005
  atomic energy  EATOM  =       197.04175453
  Solvation  Ediel_sol  =         0.00000000
  ---------------------------------------------------
  free energy    TOTEN  =       -23.96278281 eV

  energy without entropy =      -23.97438180  energy(sigma->0) =      -23.96664914


--------------------------------------------------------------------------------------------------------




--------------------------------------- Iteration     10(  12)  ---------------------------------------


    POTLOK:  cpu time    1.5106: real time    1.5141
    SETDIJ:  cpu time    0.0062: real time    0.0062
    EDDIAG:  cpu time    0.3214: real time    0.3221
  RMM-DIIS:  cpu time    0.9647: real time    0.9670
    ORTHCH:  cpu time    0.0116: real time    0.0117
       DOS:  cpu time    0.0002: real time    0.0002
    CHARGE:  cpu time    0.1485: real time    0.1489
    MIXING:  cpu time    0.1145: real time    0.1148
    --------------------------------------------
      LOOP:  cpu time    3.0777: real time    3.0849

 eigenvalue-minimisations  :    44
 total energy-change (2. order) :-0.2629288E-05  (-0.1641176E-07)
 number of electron       8.0000000 magnetization 
 augmentation part        0.1845031 magnetization 

 Broyden mixing:
  rms(total) = 0.35034E-04    rms(broyden)= 0.35033E-04
  rms(prec ) = 0.48463E-04
  weight for this iteration     100.00

 eigenvalues of (default mixing * dielectric matrix)
  average eigenvalue GAMMA=   2.8033
  8.4645  8.0717  6.3264  5.6289  4.6772  0.9993  0.9993  0.9108  0.9340  3.9894
  1.2285  1.4298  3.4230  1.6996  1.6996  3.1739  1.9566  2.1573  2.1573  3.0154
  2.8766  2.8766  2.1856  2.2616  2.2616  2.2368  2.9453  2.2739  2.8621  2.8621
  2.6054  2.6054  2.4625  2.4625  2.4184  2.4184  2.5602  2.5602  2.4759  2.4882
  2.5638  2.5638  2.5709  2.6571  2.6571  2.7000  2.7000  2.6356  2.6729

 Free energy of the ion-electron system (eV)
  ---------------------------------------------------
  alpha Z        PSCENC =         0.22866583
  Ewald energy   TEWEN  =       130.59124300
  -Hartree energ DENC   =      -286.28206312
  -exchange      EXHF   =         0.00000000
  -V(xc)+E(xc)   XCENC  =        24.71313263
  PAW double counting   =       432.88549524     -433.67335093
  entropy T*S    EENTRO =         0.01159898
  eigenvalues    EBANDS =       -89.47926161
  atomic energy  EATOM  =       197.04175453
  Solvation  Ediel_sol  =         0.00000000
  ---------------------------------------------------
  free energy    TOTEN  =       -23.96278544 eV

  energy without entropy =      -23.97438443  energy(sigma->0) =      -23.96665177


--------------------------------------------------------------------------------------------------------




--------------------------------------- Iteration     10(  13)  ---------------------------------------


    POTLOK:  cpu time    1.5381: real time    1.5417
    SETDIJ:  cpu time    0.0062: real time    0.0062
    EDDIAG:  cpu time    0.3404: real time    0.3413
  RMM-DIIS:  cpu time    0.9705: real time    0.9728
    ORTHCH:  cpu time    0.0108: real time    0.0109
       DOS:  cpu time    0.0002: real time    0.0002
    CHARGE:  cpu time    0.1452: real time    0.1456
    MIXING:  cpu time    0.1203: real time    0.1206
    --------------------------------------------
      LOOP:  cpu time    3.1319: real time    3.1393

 eigenvalue-minimisations  :    44
 total energy-change (2. order) :-0.1152522E-05  (-0.9125640E-08)
 number of electron       8.0000000 magnetization 
 augmentation part        0.1845046 magnetization 

 Broyden mixing:
  rms(total) = 0.98619E-05    rms(broyden)= 0.98571E-05
  rms(prec ) = 0.14657E-04
  weight for this iteration     100.00

 eigenvalues of (default mixing * dielectric matrix)
  average eigenvalue GAMMA=   2.8600
  8.1750  8.0117  6.5015  4.7298  4.4878  0.9054  1.1363  3.8090  3.8602  1.2564
  1.5455  1.5455  1.8825  1.9504  3.0835  3.0835  2.0307  2.2091  2.2091  2.1388
  2.1388  2.3705  2.3705  2.9417  2.2801  2.3156  2.6565  2.6565  2.8125  2.7707
  2.7707  2.3758  2.5361  2.5361  2.4726  2.4726  2.6091  2.6091  2.7115  2.7115
  2.7047  2.6024  2.5387  2.5387  2.6430

 Free energy of the ion-electron system (eV)
  ---------------------------------------------------
  alpha Z        PSCENC =         0.22866583
  Ewald energy   TEWEN  =       130.59124300
  -Hartree energ DENC   =      -286.28082247
  -exchange      EXHF   =         0.00000000
  -V(xc)+E(xc)   XCENC  =        24.71308584
  PAW double counting   =       432.88516998     -433.67300886
  entropy T*S    EENTRO =         0.01159899
  eigenvalues    EBANDS =       -89.48047343
  atomic energy  EATOM  =       197.04175453
  Solvation  Ediel_sol  =         0.00000000
  ---------------------------------------------------
  free energy    TOTEN  =       -23.96278659 eV

  energy without entropy =      -23.97438558  energy(sigma->0) =      -23.96665292


--------------------------------------------------------------------------------------------------------




--------------------------------------- Iteration     10(  14)  ---------------------------------------


    POTLOK:  cpu time    1.5608: real time    1.5645
    SETDIJ:  cpu time    0.0057: real time    0.0057
    EDDIAG:  cpu time    0.3268: real time    0.3276
  RMM-DIIS:  cpu time    0.8504: real time    0.8524
    ORTHCH:  cpu time    0.0108: real time    0.0109
       DOS:  cpu time    0.0002: real time    0.0002
    --------------------------------------------
      LOOP:  cpu time    2.7548: real time    2.7613

 eigenvalue-minimisations  :    32
 total energy-change (2. order) :-0.3885312E-06  ( 0.0000000E+00)
 number of electron       8.0000000 magnetization 
 augmentation part        0.1845046 magnetization 

 Free energy of the ion-electron system (eV)
  ---------------------------------------------------
  alpha Z        PSCENC =         0.22866583
  Ewald energy   TEWEN  =       130.59124300
  -Hartree energ DENC   =      -286.28053712
  -exchange      EXHF   =         0.00000000
  -V(xc)+E(xc)   XCENC  =        24.71307310
  PAW double counting   =       432.88983508     -433.67766996
  entropy T*S    EENTRO =         0.01159899
  eigenvalues    EBANDS =       -89.48075043
  atomic energy  EATOM  =       197.04175453
  Solvation  Ediel_sol  =         0.00000000
  ---------------------------------------------------
  free energy    TOTEN  =       -23.96278698 eV

  energy without entropy =      -23.97438597  energy(sigma->0) =      -23.96665331


--------------------------------------------------------------------------------------------------------




 average (electrostatic) potential at core
  the test charge radii are     0.5201  0.6991
  (the norm of the test charge is              1.0000)
       1 -41.7922       2 -41.7483       3 -41.3174       4 -41.1618       5 -57.9920



 E-fermi :  -8.6854     XC(G=0):  -0.6650     alpha+bet : -0.1989


 k-point     1 :       0.2500    0.2500    0.2500
  band No.  band energies     occupation 
      1     -16.8968      2.00000
      2      -9.5908      2.00000
      3      -9.3990      2.00001
      4      -8.8538      2.00001
      5      -0.3304      0.00000
      6       0.5323      0.00000
      7       0.6647      0.00000
      8       0.6858      0.00000

 k-point     2 :      -0.2500    0.2500    0.2500
  band No.  band energies     occupation 
      1     -16.8968      2.00000
      2      -9.5909      2.00000
      3      -9.3989      2.00001
      4      -8.8539      2.00014
      5      -0.3261      0.00000
      6       0.5350      0.00000
      7       0.6336      0.00000
      8       0.6720      0.00000

 k-point     3 :       0.2500   -0.2500    0.2500
  band No.  band energies     occupation 
      1     -16.8968      2.00000
      2      -9.5908      2.00000
      3      -9.3989      2.00001
      4      -8.8537      1.99985
      5      -0.3248      0.00000
      6       0.5204      0.00000
      7       0.6402      0.00000
      8       0.6756      0.00000

 k-point     4 :      -0.2500   -0.2500    0.2500
  band No.  band energies     occupation 
      1     -16.8968      2.00000
      2      -9.5909      2.00000
      3      -9.3988      2.00001
      4      -8.8538      1.99997
      5      -0.3280      0.00000
      6       0.5366      0.00000
      7       0.6447      0.00000
      8       0.6777      0.00000


--------------------------------------------------------------------------------------------------------


 soft charge-density along one line, spin component           1
         0         1         2         3         4         5         6         7         8         9
 total charge-density along one line

 pseudopotential strength for first ion, spin component:           1
 -2.343  -4.039  -0.001  -0.001   0.001
 -4.039  -6.875  -0.004  -0.005   0.002
 -0.001  -0.004  -0.335   0.003  -0.001
 -0.001  -0.005   0.003  -0.333  -0.001
  0.001   0.002  -0.001  -0.001  -0.336
 total augmentation occupancy for first ion, spin component:           1
  3.597  -0.629   0.315   0.362  -0.152
 -0.629   0.125  -0.055  -0.066   0.026
  0.315  -0.055   0.034   0.027  -0.013
  0.362  -0.066   0.027   0.040  -0.014
 -0.152   0.026  -0.013  -0.014   0.017


------------------------ aborting loop because EDIFF is reached ----------------------------------------


    CHARGE:  cpu time    0.1488: real time    0.1491
    FORLOC:  cpu time    0.1118: real time    0.1121
    FORNL :  cpu time    0.5074: real time    0.5086
    STRESS:  cpu time    1.6437: real time    1.6476
    FORCOR:  cpu time    1.6149: real time    1.6188
    FORHAR:  cpu time    0.5205: real time    0.5217
    MIXING:  cpu time    0.1087: real time    0.1090
    OFIELD:  cpu time    0.0000: real time    0.0000

  FORCE on cell =-STRESS in cart. coord.  units (eV):
  Direction    XX          YY          ZZ          XY          YZ          ZX
  --------------------------------------------------------------------------------------
  Alpha Z     0.22867     0.22867     0.22867
  Ewald      46.33653    43.97009    40.28458     1.02377     6.25418     3.95195
  Hartree    95.43082    96.80422    94.04642     0.87083     0.93789     1.64724
  E(xc)     -27.17398   -27.17833   -27.18851     0.01051     0.01737     0.03006
  Local    -199.57654  -199.93263  -193.62201    -2.03792    -5.50857    -5.26067
  n-local   -16.52055   -15.77811   -15.44320     0.29448     0.05785    -0.06316
  augment     0.11278     0.12475     0.12479     0.00264    -0.01439    -0.00086
  Kinetic   100.65744   100.89143   101.41608    -0.55725    -0.86689    -1.43840
  Fock        0.00000     0.00000     0.00000     0.00000     0.00000     0.00000
  -------------------------------------------------------------------------------------
  Total      -0.50483    -0.86991    -0.15317    -0.39294     0.87744    -1.13384
  in kB      -0.76347    -1.31560    -0.23165    -0.59426     1.32697    -1.71474
  external pressure =       -0.77 kB  Pullay stress =        0.00 kB

  kinetic pressure (ideal gas correction) =      0.06 kB
  total pressure  =     -0.71 kB
  Total+kin.    -0.676      -1.273      -0.197      -0.614       1.342      -1.721

 VOLUME and BASIS-vectors are now :
 -----------------------------------------------------------------------------
  energy-cutoff  :      400.00
  volume of cell :     1059.41
      direct lattice vectors                 reciprocal lattice vectors
    10.220707294  0.000000000  0.000000000     0.097840587 -0.002335771 -0.000765380
     0.240831700 10.087937087  0.000000000     0.000000000  0.099128295 -0.000525389
     0.081678382  0.054458287 10.274971222     0.000000000  0.000000000  0.097323874

  length of vectors
    10.220707294 10.090811393 10.275440170     0.097871457  0.099129687  0.097323874


 FORCES acting on ions
    electron-ion (+dipol)            ewald-force                    non-local-force                 convergence-correction
 -----------------------------------------------------------------------------------------------
   -.112E+02 0.323E+02 0.421E+02   0.128E+02 -.364E+02 -.476E+02   -.108E+01 0.338E+01 0.431E+01   0.236E-04 -.588E-04 -.787E-04
   0.534E+02 -.771E+01 -.136E+01   -.601E+02 0.875E+01 0.174E+01   0.650E+01 -.856E+00 0.511E-01   -.998E-04 0.165E-04 0.525E-05
   -.253E+02 -.449E+02 0.115E+01   0.274E+02 0.487E+02 -.154E+01   -.229E+01 -.422E+01 0.148E+00   0.443E-04 0.829E-04 -.493E-05
   -.166E+02 0.225E+02 -.426E+02   0.176E+02 -.242E+02 0.457E+02   -.163E+01 0.206E+01 -.411E+01   0.267E-04 -.429E-04 0.764E-04
   -.162E+01 -.270E+01 -.937E+00   0.229E+01 0.317E+01 0.170E+01   -.333E+00 0.176E+01 0.567E+00   -.166E-05 -.299E-04 -.654E-05
 -----------------------------------------------------------------------------------------------
   -.142E+01 -.546E+00 -.168E+01   0.711E-14 -.711E-14 -.711E-14   0.117E+01 0.212E+01 0.969E+00   -.685E-05 -.322E-04 -.848E-05


 POSITION                                       TOTAL-FORCE (eV/Angst)
 -----------------------------------------------------------------------------------
      5.50844      4.10085      3.74259         0.559217     -0.696697     -1.233785
      4.22849      4.88893      4.59706        -0.228263      0.188779      0.433356
      5.84247      5.71643      4.54645        -0.275032     -0.478727     -0.233916
      5.66111      4.23687      5.52105        -0.641737      0.332365     -1.006130
      5.28767      4.73845      4.56665         0.339199      2.232223      1.333070
 -----------------------------------------------------------------------------------
    total drift:                               -0.246615      1.577943     -0.707404


--------------------------------------------------------------------------------------------------------



  FREE ENERGIE OF THE ION-ELECTRON SYSTEM (eV)
  ---------------------------------------------------
  free  energy   TOTEN  =       -23.96278698 eV

  energy  without entropy=      -23.97438597  energy(sigma->0) =      -23.96665331

 d Force =-0.3828188E-01[-0.887E-01, 0.122E-01]  d Energy =-0.4341818E-01 0.514E-02
 d Force =-0.1306167E+01[-0.134E+01,-0.128E+01]  d Ewald  =-0.1305529E+01-0.638E-03


--------------------------------------------------------------------------------------------------------


    POTLOK:  cpu time    1.6057: real time    1.6095


--------------------------------------------------------------------------------------------------------


           RANDOM_SEED =         578495987               30                0
   IONSTEP:  cpu time    0.0001: real time    0.0001

  ENERGY OF THE ELECTRON-ION-THERMOSTAT SYSTEM (eV)
  ---------------------------------------------------
% ion-electron   TOTEN  =       -23.962787  see above
  kinetic energy EKIN   =         0.033082
  kin. lattice  EKIN_LAT=         0.000000  (temperature   63.98 K)
  nose potential ES     =         0.001515
  nose kinetic   EPS    =         0.001467
  ---------------------------------------------------
  total energy   ETOTAL =       -23.926724 eV

  maximum distance moved by ions :      0.47E-02


 mean value of Nose-termostat <S>:     1.059 mean value of <T> :    63.982
 mean temperature <T/S>/<1/S>  :    63.982

    WAVPRE:  cpu time    0.4654: real time    0.4750
    FEWALD:  cpu time    0.0003: real time    0.0003
    ORTHCH:  cpu time    0.1788: real time    0.1792
 Prediction of Wavefunctions ALPHA= 0.985 BETA=-0.880
    POTLOK:  cpu time    1.5965: real time    1.6010
    EDDIAG:  cpu time    0.3211: real time    0.3219
     LOOP+:  cpu time   54.0863: real time   54.2285
    4ORBIT:  cpu time    0.0000: real time    0.0000

 total amount of memory used by VASP MPI-rank0   323518. kBytes
=======================================================================

   base      :      30000. kBytes
   nonlr-proj:        160. kBytes
   fftplans  :      94700. kBytes
   grid      :     169030. kBytes
   one-center:         15. kBytes
   wavefun   :      29613. kBytes

  
  
 General timing and accounting informations for this job:
 ========================================================
  
                  Total CPU time used (sec):      959.079
                            User time (sec):      939.770
                          System time (sec):       19.308
                         Elapsed time (sec):      961.486
  
                   Maximum memory used (kb):      505476.
                   Average memory used (kb):           0.
  
                          Minor page faults:      3197361
                          Major page faults:            0
                 Voluntary context switches:          437
