 running on    1 total cores
 distrk:  each k-point on    1 cores,    1 groups
 distr:  one band on    1 cores,    1 groups
 using from now: INCAR     
 vasp.5.4.4.18Apr17-6-g9f103f2a35 (build Jul 12 2018 13:43:46) complex           
 POSCAR found type information on POSCAR  H  C 
 POSCAR found :  2 types and       5 ions
 scaLAPACK will be used

 ----------------------------------------------------------------------------- 
|                                                                             |
|  ADVICE TO THIS USER RUNNING 'VASP/VAMP'   (HEAR YOUR MASTER'S VOICE ...):  |
|                                                                             |
|      You have a (more or less) 'small supercell' and for smaller cells      |
|      it is recommended  to use the reciprocal-space projection scheme!      |
|      The real space optimization is not  efficient for small cells and it   |
|      is also less accurate ...                                              |
|      Therefore set LREAL=.FALSE. in the  INCAR file                         |
|                                                                             |
 ----------------------------------------------------------------------------- 


 ----------------------------------------------------------------------------- 
|                                                                             |
|           W    W    AA    RRRRR   N    N  II  N    N   GGGG   !!!           |
|           W    W   A  A   R    R  NN   N  II  NN   N  G    G  !!!           |
|           W    W  A    A  R    R  N N  N  II  N N  N  G       !!!           |
|           W WW W  AAAAAA  RRRRR   N  N N  II  N  N N  G  GGG   !            |
|           WW  WW  A    A  R   R   N   NN  II  N   NN  G    G                |
|           W    W  A    A  R    R  N    N  II  N    N   GGGG   !!!           |
|                                                                             |
|     The real-space-projection scheme for the treatment of the nonlocal      |
|     pseudopotentials has been switched on -- but on file POTCAR I have      |
|     not found any entries signalling me that you have ever performed a      |
|     real-space optimization of all nonlocal projectors! BE WARNED that      |
|     a calculation using the real-space-projection scheme together with      |
|     nonlocal projectors which were not real-space-optimized (according      |
|     to the plane-wave-cutoff used in this calculation) might give more      |
|     or less inaccurate results                                              |
|     I hope you know what you are doing                                      |
|                                                                             |
 ----------------------------------------------------------------------------- 

 LDA part: xc-table for Pade appr. of Perdew
 generate k-points for:    2    2    2
 POSCAR, INCAR and KPOINTS ok, starting setup
 FFT: planning ...
 WAVECAR not read
 prediction of wavefunctions initialized - no I/O
 entering main loop
       N       E                     dE             d eps       ncg     rms          rms(c)
DAV:   1     0.186880375121E+02    0.18688E+02   -0.19773E+03    96   0.423E+02
DAV:   2    -0.211634906158E+02   -0.39852E+02   -0.39854E+02    64   0.112E+02
DAV:   3    -0.269590658765E+02   -0.57956E+01   -0.57999E+01    64   0.492E+01
DAV:   4    -0.272290987435E+02   -0.27003E+00   -0.26971E+00   128   0.123E+01
DAV:   5    -0.272292056745E+02   -0.10693E-03   -0.10693E-03    96   0.290E-01    0.834E+00
RMM:   6    -0.245721891841E+02    0.26570E+01   -0.48186E+00    64   0.133E+01    0.412E+00
RMM:   7    -0.241219211665E+02    0.45027E+00   -0.10093E+00    64   0.578E+00    0.220E+00
RMM:   8    -0.239789130752E+02    0.14301E+00   -0.16397E-01    64   0.286E+00    0.261E-01
RMM:   9    -0.239740202099E+02    0.48929E-02   -0.90139E-03    64   0.662E-01    0.213E-01
RMM:  10    -0.239724570574E+02    0.15632E-02   -0.88215E-03    64   0.483E-01    0.141E-01
RMM:  11    -0.239662999822E+02    0.61571E-02   -0.34006E-03    64   0.385E-01    0.109E-01
RMM:  12    -0.239729574433E+02   -0.66575E-02   -0.70154E-03    64   0.546E-01    0.202E-01
RMM:  13    -0.239766385078E+02   -0.36811E-02   -0.12853E-03    64   0.240E-01    0.649E-02
RMM:  14    -0.239792024839E+02   -0.25640E-02   -0.28000E-03    64   0.325E-01    0.655E-02
RMM:  15    -0.239801931671E+02   -0.99068E-03   -0.47035E-04    64   0.126E-01    0.295E-02
RMM:  16    -0.239804058657E+02   -0.21270E-03   -0.14407E-04    64   0.754E-02    0.819E-03
RMM:  17    -0.239805644386E+02   -0.15857E-03   -0.14440E-05    64   0.274E-02    0.393E-03
RMM:  18    -0.239805847701E+02   -0.20332E-04   -0.87103E-06    64   0.166E-02    0.477E-03
RMM:  19    -0.239805970852E+02   -0.12315E-04   -0.11026E-06    48   0.716E-03    0.177E-03
RMM:  20    -0.239805981962E+02   -0.11110E-05   -0.18430E-06    48   0.894E-03    0.775E-04
RMM:  21    -0.239805993848E+02   -0.11886E-05   -0.26002E-07    48   0.450E-03    0.723E-04
RMM:  22    -0.239805997423E+02   -0.35750E-06   -0.46257E-08    44   0.190E-03
    1 T=    42. E= -.23958973E+02 F= -.23980600E+02 E0= -.23992945E+02  EK= 0.21625E-01 SP= 0.00E+00 SK= 0.21E-05
 bond charge predicted
       N       E                     dE             d eps       ncg     rms          rms(c)
DAV:   1    -0.240077904290E+02   -0.27191E-01   -0.12479E+00    64   0.108E+01    0.671E-01
RMM:   2    -0.240000690841E+02    0.77213E-02   -0.16521E-02    64   0.111E+00    0.447E-01
RMM:   3    -0.240383491095E+02   -0.38280E-01   -0.28605E-01    64   0.315E+00    0.121E+00
RMM:   4    -0.239959015210E+02    0.42448E-01   -0.22728E-01    64   0.284E+00    0.224E-01
RMM:   5    -0.240012028250E+02   -0.53013E-02   -0.27141E-03    64   0.416E-01    0.148E-01
RMM:   6    -0.240011790626E+02    0.23762E-04   -0.25209E-04    64   0.975E-02    0.129E-01
RMM:   7    -0.240012422337E+02   -0.63171E-04   -0.92045E-05    64   0.606E-02    0.109E-01
RMM:   8    -0.240011354349E+02    0.10680E-03   -0.16648E-03    64   0.243E-01    0.990E-03
RMM:   9    -0.240012038337E+02   -0.68399E-04   -0.17653E-04    64   0.885E-02    0.188E-02
RMM:  10    -0.240012281114E+02   -0.24278E-04   -0.26977E-05    64   0.311E-02    0.523E-03
RMM:  11    -0.240012394458E+02   -0.11334E-04   -0.17641E-06    48   0.105E-02    0.322E-03
RMM:  12    -0.240012461489E+02   -0.67031E-05   -0.37047E-06    60   0.126E-02    0.129E-03
RMM:  13    -0.240012483594E+02   -0.22105E-05   -0.24542E-07    48   0.400E-03    0.973E-04
RMM:  14    -0.240012496490E+02   -0.12896E-05   -0.35707E-07    48   0.353E-03    0.373E-04
RMM:  15    -0.240012502822E+02   -0.63318E-06   -0.14889E-07    48   0.283E-03
    2 T=    59. E= -.23970756E+02 F= -.24001250E+02 E0= -.24011657E+02  EK= 0.30597E-01 SP= -.10E-03 SK= 0.17E-05
 bond charge predicted
 prediction of wavefunctions
       N       E                     dE             d eps       ncg     rms          rms(c)
DAV:   1    -0.240002809384E+02    0.96871E-03   -0.19504E+00    64   0.138E+01    0.554E-01
RMM:   2    -0.240040080355E+02   -0.37271E-02   -0.68408E-02    64   0.202E+00    0.548E-01
RMM:   3    -0.240089106582E+02   -0.49026E-02   -0.20556E-02    64   0.107E+00    0.665E-01
RMM:   4    -0.240035790562E+02    0.53316E-02   -0.68304E-03    64   0.509E-01    0.445E-01
RMM:   5    -0.240016505552E+02    0.19285E-02   -0.55671E-03    64   0.456E-01    0.220E-01
RMM:   6    -0.240007925867E+02    0.85797E-03   -0.78805E-03    64   0.541E-01    0.445E-02
RMM:   7    -0.240009092226E+02   -0.11664E-03   -0.26821E-04    64   0.133E-01    0.308E-02
RMM:   8    -0.240009807203E+02   -0.71498E-04   -0.71861E-05    64   0.605E-02    0.159E-02
RMM:   9    -0.240010039978E+02   -0.23278E-04   -0.30878E-05    64   0.351E-02    0.797E-03
RMM:  10    -0.240010412380E+02   -0.37240E-04   -0.14726E-05    64   0.239E-02    0.355E-03
RMM:  11    -0.240010446246E+02   -0.33866E-05   -0.55120E-06    60   0.150E-02    0.360E-03
RMM:  12    -0.240010562493E+02   -0.11625E-04   -0.38853E-06    60   0.125E-02    0.694E-03
RMM:  13    -0.240010575842E+02   -0.13350E-05   -0.15321E-06    48   0.786E-03    0.390E-03
RMM:  14    -0.240010596712E+02   -0.20870E-05   -0.27406E-06    60   0.106E-02    0.813E-04
RMM:  15    -0.240010604941E+02   -0.82291E-06   -0.31710E-07    48   0.471E-03
    3 T=    53. E= -.23973832E+02 F= -.24001060E+02 E0= -.24009487E+02  EK= 0.27319E-01 SP= -.92E-04 SK= 0.74E-06
 bond charge predicted
 prediction of wavefunctions
       N       E                     dE             d eps       ncg     rms          rms(c)
DAV:   1    -0.239951589411E+02    0.59007E-02   -0.48075E-01    64   0.673E+00    0.327E-01
RMM:   2    -0.240027679205E+02   -0.76090E-02   -0.74540E-02    64   0.173E+00    0.554E-01
RMM:   3    -0.239927171948E+02    0.10051E-01   -0.52926E-02    64   0.133E+00    0.133E-01
RMM:   4    -0.239946226232E+02   -0.19054E-02   -0.10146E-02    64   0.624E-01    0.226E-01
RMM:   5    -0.239930278547E+02    0.15948E-02   -0.43547E-03    64   0.385E-01    0.712E-02
RMM:   6    -0.239931154993E+02   -0.87645E-04   -0.10005E-03    68   0.200E-01    0.257E-02
RMM:   7    -0.239932132337E+02   -0.97734E-04   -0.20254E-04    67   0.900E-02    0.274E-02
RMM:   8    -0.239932527719E+02   -0.39538E-04   -0.11670E-04    64   0.621E-02    0.469E-03
RMM:   9    -0.239932870639E+02   -0.34292E-04   -0.32572E-05    68   0.352E-02    0.957E-03
RMM:  10    -0.239932947453E+02   -0.76815E-05   -0.19746E-06    52   0.957E-03    0.689E-03
RMM:  11    -0.239933014936E+02   -0.67483E-05   -0.81268E-06    64   0.166E-02    0.150E-03
RMM:  12    -0.239933035627E+02   -0.20690E-05   -0.50749E-07    48   0.554E-03    0.124E-03
RMM:  13    -0.239933056680E+02   -0.21053E-05   -0.10251E-06    48   0.697E-03    0.190E-03
RMM:  14    -0.239933062478E+02   -0.57984E-06   -0.74318E-07    48   0.539E-03
    4 T=    38. E= -.23973448E+02 F= -.23993306E+02 E0= -.24002292E+02  EK= 0.19901E-01 SP= -.43E-04 SK= 0.47E-06
 bond charge predicted
 prediction of wavefunctions
       N       E                     dE             d eps       ncg     rms          rms(c)
DAV:   1    -0.240106224309E+02   -0.17317E-01   -0.57683E-01    64   0.790E+00    0.398E-01
RMM:   2    -0.240214416277E+02   -0.10819E-01   -0.10183E-01    64   0.208E+00    0.615E-01
RMM:   3    -0.240106739341E+02    0.10768E-01   -0.11570E-01    64   0.194E+00    0.248E-01
RMM:   4    -0.240086295859E+02    0.20443E-02   -0.45033E-03    64   0.446E-01    0.538E-02
RMM:   5    -0.240088436243E+02   -0.21404E-03   -0.60880E-04    64   0.165E-01    0.457E-02
RMM:   6    -0.240088701868E+02   -0.26563E-04   -0.24043E-04    64   0.981E-02    0.650E-02
RMM:   7    -0.240088276495E+02    0.42537E-04   -0.38588E-05    64   0.425E-02    0.690E-02
RMM:   8    -0.240088472128E+02   -0.19563E-04   -0.34967E-06    56   0.149E-02    0.656E-02
RMM:   9    -0.240090009820E+02   -0.15377E-03   -0.52069E-04    64   0.134E-01    0.340E-02
RMM:  10    -0.240091103233E+02   -0.10934E-03   -0.14371E-04    64   0.727E-02    0.242E-02
RMM:  11    -0.240092011876E+02   -0.90864E-04   -0.14466E-04    64   0.727E-02    0.118E-02
RMM:  12    -0.240092463966E+02   -0.45209E-04   -0.57040E-05    64   0.477E-02    0.962E-03
RMM:  13    -0.240092703939E+02   -0.23997E-04   -0.34069E-05    64   0.360E-02    0.856E-03
RMM:  14    -0.240092824771E+02   -0.12083E-04   -0.23364E-05    64   0.298E-02    0.103E-02
RMM:  15    -0.240092755850E+02    0.68921E-05   -0.24325E-05    64   0.299E-02    0.919E-03
RMM:  16    -0.240092732130E+02    0.23720E-05   -0.71357E-06    60   0.162E-02    0.970E-03
RMM:  17    -0.240092639734E+02    0.92396E-05   -0.18727E-05    64   0.260E-02    0.109E-02
RMM:  18    -0.240092620936E+02    0.18798E-05   -0.17850E-06    52   0.930E-03    0.112E-02
RMM:  19    -0.240092605995E+02    0.14940E-05   -0.35878E-07    48   0.509E-03    0.110E-02
RMM:  20    -0.240092617983E+02   -0.11987E-05   -0.19956E-07    48   0.326E-03    0.107E-02
RMM:  21    -0.240092663615E+02   -0.45633E-05   -0.64914E-06    60   0.152E-02    0.959E-03
RMM:  22    -0.240092707648E+02   -0.44033E-05   -0.35234E-06    56   0.117E-02    0.913E-03
RMM:  23    -0.240092732485E+02   -0.24836E-05   -0.78579E-07    48   0.644E-03    0.910E-03
RMM:  24    -0.240092827139E+02   -0.94654E-05   -0.34581E-05    64   0.352E-02    0.950E-03
RMM:  25    -0.240092923151E+02   -0.96012E-05   -0.12852E-05    64   0.219E-02    0.116E-02
RMM:  26    -0.240092902685E+02    0.20465E-05   -0.25329E-06    56   0.102E-02    0.105E-02
RMM:  27    -0.240092756906E+02    0.14578E-04   -0.38492E-05    64   0.369E-02    0.932E-03
RMM:  28    -0.240092414595E+02    0.34231E-04   -0.12813E-04    64   0.674E-02    0.160E-02
RMM:  29    -0.240092202982E+02    0.21161E-04   -0.52155E-05    64   0.441E-02    0.224E-02
RMM:  30    -0.240092139610E+02    0.63372E-05   -0.48411E-06    60   0.156E-02    0.232E-02
RMM:  31    -0.240092119966E+02    0.19644E-05   -0.27592E-07    48   0.525E-03    0.229E-02
RMM:  32    -0.240092276441E+02   -0.15648E-04   -0.15117E-05    64   0.229E-02    0.175E-02
RMM:  33    -0.240092471372E+02   -0.19493E-04   -0.33203E-05    64   0.342E-02    0.120E-02
RMM:  34    -0.240092628880E+02   -0.15751E-04   -0.30255E-05    64   0.330E-02    0.893E-03
RMM:  35    -0.240092728434E+02   -0.99554E-05   -0.11935E-05    64   0.213E-02    0.828E-03
RMM:  36    -0.240092697669E+02    0.30765E-05   -0.64965E-06    60   0.155E-02    0.966E-03
RMM:  37    -0.240092634485E+02    0.63184E-05   -0.76547E-06    60   0.165E-02    0.112E-02
RMM:  38    -0.240092583483E+02    0.51002E-05   -0.39690E-06    56   0.123E-02    0.125E-02
RMM:  39    -0.240092547890E+02    0.35593E-05   -0.12983E-06    48   0.802E-03    0.132E-02
RMM:  40    -0.240092532080E+02    0.15810E-05   -0.35491E-07    48   0.490E-03    0.134E-02
RMM:  41    -0.240092528308E+02    0.37715E-06   -0.84690E-08    44   0.260E-03
    5 T=    51. E= -.23982987E+02 F= -.24009253E+02 E0= -.24017575E+02  EK= 0.26400E-01 SP= -.14E-03 SK= 0.65E-05
 bond charge predicted
 prediction of wavefunctions
       N       E                     dE             d eps       ncg     rms          rms(c)
DAV:   1    -0.240056957911E+02    0.35574E-02   -0.55821E-01    64   0.729E+00    0.404E-01
RMM:   2    -0.335851007929E+02   -0.95794E+01   -0.34512E+01    64   0.345E+01    0.140E+01
RMM:   3    -0.322330057782E+02    0.13521E+01   -0.82371E-01    64   0.704E+00    0.133E+01
RMM:   4    -0.312096231469E+02    0.10234E+01   -0.12147E-01    64   0.233E+00    0.125E+01
RMM:   5    -0.254489448884E+02    0.57607E+01   -0.82065E+00    64   0.163E+01    0.588E+00
RMM:   6    -0.295280888157E+02   -0.40791E+01   -0.34278E+00    64   0.113E+01    0.110E+01
RMM:   7    -0.271295618760E+02    0.23985E+01   -0.89999E-01    64   0.561E+00    0.843E+00
RMM:   8    -0.297902587147E+02   -0.26607E+01   -0.13782E+00    64   0.727E+00    0.115E+01
RMM:   9    -0.286053038564E+02    0.11850E+01   -0.16898E-01    64   0.249E+00    0.104E+01
RMM:  10    -0.331031254725E+02   -0.44978E+01   -0.30880E+00    64   0.109E+01    0.148E+01
RMM:  11    -0.345370238955E+02   -0.14339E+01   -0.65489E-01    64   0.521E+00    0.162E+01
RMM:  12    -0.340778650720E+02    0.45916E+00   -0.21319E-02    64   0.122E+00    0.158E+01
RMM:  13    -0.339246140467E+02    0.15325E+00   -0.32215E-03    64   0.415E-01    0.157E+01
RMM:  14    -0.334169905723E+02    0.50762E+00   -0.29934E-02    64   0.103E+00    0.153E+01
RMM:  15    -0.340085361348E+02   -0.59155E+00   -0.34616E-02    64   0.122E+00    0.158E+01
RMM:  16    -0.340171339427E+02   -0.85978E-02   -0.11119E-03    64   0.225E-01    0.159E+01
RMM:  17    -0.339652752936E+02    0.51859E-01   -0.40995E-04    64   0.166E-01    0.158E+01
RMM:  18    -0.340567604242E+02   -0.91485E-01   -0.84909E-04    64   0.185E-01    0.159E+01
RMM:  19    -0.366583859729E+02   -0.26016E+01   -0.79996E-01    64   0.567E+00    0.180E+01
RMM:  20    -0.354307780707E+02    0.12276E+01   -0.81691E-02    64   0.208E+00    0.171E+01
RMM:  21    -0.361302235376E+02   -0.69945E+00   -0.35969E-02    64   0.115E+00    0.175E+01
RMM:  22    -0.364394894654E+02   -0.30927E+00   -0.15292E-02    64   0.735E-01    0.178E+01
RMM:  23    -0.364272343686E+02    0.12255E-01   -0.90769E-04    64   0.198E-01    0.178E+01
RMM:  24    -0.391878571236E+02   -0.27606E+01   -0.76871E-01    64   0.568E+00    0.199E+01
RMM:  25    -0.391485536366E+02    0.39303E-01   -0.28849E-02    68   0.924E-01    0.199E+01
RMM:  26    -0.392149907401E+02   -0.66437E-01   -0.31172E-03    64   0.421E-01    0.200E+01
RMM:  27    -0.395752765429E+02   -0.36029E+00   -0.28724E-02    64   0.131E+00    0.203E+01
RMM:  28    -0.399142493869E+02   -0.33897E+00   -0.33217E-02    64   0.136E+00    0.206E+01
RMM:  29    -0.369516472985E+02    0.29626E+01   -0.31274E+01    64   0.492E+01    0.234E+01
RMM:  30    -0.149726072738E+03   -0.11277E+03   -0.63500E+02    80   0.194E+02    0.299E+01
RMM:  31    -0.172388904286E+02    0.13249E+03   -0.26733E+01    64   0.122E+02    0.205E+01
RMM:  32    -0.524920455926E+02   -0.35253E+02   -0.65647E+01    92   0.104E+02    0.271E+01
RMM:  33    -0.797356560436E+02   -0.27244E+02   -0.20216E+02   100   0.929E+01    0.295E+01
RMM:  34    -0.491494287137E+02    0.30586E+02   -0.10665E+02    73   0.946E+01    0.268E+01
RMM:  35    -0.433909840138E+02    0.57584E+01   -0.11059E+01    64   0.299E+01    0.231E+01
RMM:  36    -0.521928199256E+02   -0.88018E+01   -0.27352E+00    64   0.119E+01    0.279E+01
RMM:  37    -0.523945585511E+02   -0.20174E+00   -0.18861E-01    68   0.256E+00    0.280E+01
RMM:  38    -0.525764725849E+02   -0.18191E+00   -0.14783E-02    68   0.873E-01    0.281E+01
RMM:  39    -0.581170367196E+02   -0.55406E+01   -0.21836E+01    64   0.359E+01    0.278E+01
RMM:  40    -0.116590724077E+03   -0.58474E+02   -0.20062E+02    92   0.112E+02    0.345E+01
RMM:  41    -0.639682422497E+02    0.52622E+02   -0.71816E+01    76   0.753E+01    0.287E+01
RMM:  42    -0.522102654676E+02    0.11758E+02   -0.58374E+01    76   0.613E+01    0.270E+01
RMM:  43    -0.504199712189E+02    0.17903E+01   -0.15491E+00    68   0.921E+00    0.266E+01
RMM:  44    -0.252093820029E+02    0.25211E+02   -0.74745E+01    69   0.415E+01    0.501E+00
RMM:  45    -0.242808645855E+02    0.92852E+00   -0.33397E+00    64   0.124E+01    0.254E+00
RMM:  46    -0.241361819190E+02    0.14468E+00   -0.29429E-01    64   0.382E+00    0.171E+00
RMM:  47    -0.241323228288E+02    0.38591E-02   -0.25142E-02    64   0.110E+00    0.161E+00
RMM:  48    -0.240630630958E+02    0.69260E-01   -0.52849E-02    64   0.138E+00    0.116E+00
RMM:  49    -0.239967210215E+02    0.66342E-01   -0.28891E-01    64   0.304E+00    0.282E-01
RMM:  50    -0.239975712122E+02   -0.85019E-03   -0.76978E-03    68   0.674E-01    0.246E-01
RMM:  51    -0.239989450769E+02   -0.13739E-02   -0.23027E-03    64   0.306E-01    0.251E-01
RMM:  52    -0.240001528042E+02   -0.12077E-02   -0.25443E-03    64   0.269E-01    0.327E-01
RMM:  53    -0.240003322534E+02   -0.17945E-03   -0.21366E-04    64   0.977E-02    0.343E-01
RMM:  54    -0.240003479911E+02   -0.15738E-04   -0.50219E-05    64   0.447E-02    0.338E-01
RMM:  55    -0.240002524347E+02    0.95556E-04   -0.36288E-05    64   0.352E-02    0.330E-01
RMM:  56    -0.240000386557E+02    0.21378E-03   -0.83753E-04    64   0.196E-01    0.258E-01
RMM:  57    -0.240019142489E+02   -0.18756E-02   -0.29186E-03    64   0.292E-01    0.302E-01
RMM:  58    -0.240023487428E+02   -0.43449E-03   -0.62996E-04    64   0.150E-01    0.304E-01
RMM:  59    -0.240047581375E+02   -0.24094E-02   -0.49290E-03    64   0.417E-01    0.343E-01
RMM:  60    -0.240058551158E+02   -0.10970E-02   -0.92546E-04    64   0.175E-01
    6 T=    53. E= -.23978818E+02 F= -.24005855E+02 E0= -.24010052E+02  EK= 0.27259E-01 SP= -.23E-03 SK= 0.35E-05
 bond charge predicted
 prediction of wavefunctions
       N       E                     dE             d eps       ncg     rms          rms(c)
DAV:   1    -0.240061747231E+02   -0.14166E-02   -0.71542E-01    64   0.824E+00    0.968E-01
RMM:   2    -0.239810546599E+02    0.25120E-01   -0.11687E-01    64   0.219E+00    0.551E-01
RMM:   3    -0.240341585048E+02   -0.53104E-01   -0.13806E-01    64   0.209E+00    0.110E+00
RMM:   4    -0.240422842681E+02   -0.81258E-02   -0.92898E-03    64   0.628E-01    0.116E+00
RMM:   5    -0.240225950862E+02    0.19689E-01   -0.58128E-03    64   0.433E-01    0.101E+00
RMM:   6    -0.240230360952E+02   -0.44101E-03   -0.26089E-04    64   0.120E-01    0.100E+00
RMM:   7    -0.240293167433E+02   -0.62806E-02   -0.19884E-03    64   0.254E-01    0.105E+00
RMM:   8    -0.240367382194E+02   -0.74215E-02   -0.25359E-03    64   0.283E-01    0.110E+00
RMM:   9    -0.240360225574E+02    0.71566E-03   -0.17985E-04    64   0.104E-01    0.110E+00
RMM:  10    -0.240263045494E+02    0.97180E-02   -0.25579E-03    64   0.289E-01    0.105E+00
RMM:  11    -0.240250370543E+02    0.12675E-02   -0.15451E-03    64   0.243E-01    0.106E+00
RMM:  12    -0.240197807637E+02    0.52563E-02   -0.16988E-03    64   0.229E-01    0.104E+00
RMM:  13    -0.240248392761E+02   -0.50585E-02   -0.13767E-03    64   0.224E-01    0.108E+00
RMM:  14    -0.240271048330E+02   -0.22656E-02   -0.11512E-03    64   0.193E-01    0.109E+00
RMM:  15    -0.239776352699E+02    0.49470E-01   -0.11846E-01    64   0.184E+00    0.573E-01
RMM:  16    -0.239746877701E+02    0.29475E-02   -0.13898E-02    64   0.672E-01    0.485E-01
RMM:  17    -0.239726519990E+02    0.20358E-02   -0.51331E-03    64   0.407E-01    0.439E-01
RMM:  18    -0.239700970782E+02    0.25549E-02   -0.60899E-03    64   0.457E-01    0.397E-01
RMM:  19    -0.239681488075E+02    0.19483E-02   -0.70523E-03    64   0.496E-01    0.383E-01
RMM:  20    -0.239754166007E+02   -0.72678E-02   -0.10196E-02    64   0.643E-01    0.480E-01
RMM:  21    -0.239732542952E+02    0.21623E-02   -0.10154E-02    64   0.582E-01    0.286E-01
RMM:  22    -0.239756675571E+02   -0.24133E-02   -0.43196E-03    64   0.385E-01    0.323E-01
RMM:  23    -0.239776055021E+02   -0.19379E-02   -0.76594E-04    64   0.178E-01    0.337E-01
RMM:  24    -0.239759424698E+02    0.16630E-02   -0.50734E-03    64   0.389E-01    0.251E-01
RMM:  25    -0.239772500108E+02   -0.13075E-02   -0.22569E-03    64   0.264E-01    0.306E-01
RMM:  26    -0.239770931341E+02    0.15688E-03   -0.12449E-03    64   0.205E-01    0.273E-01
RMM:  27    -0.239769783786E+02    0.11476E-03   -0.63949E-04    64   0.153E-01    0.245E-01
RMM:  28    -0.239774618028E+02   -0.48342E-03   -0.17017E-04    64   0.868E-02    0.248E-01
RMM:  29    -0.239772911076E+02    0.17070E-03   -0.16850E-03    64   0.234E-01    0.206E-01
RMM:  30    -0.239768051715E+02    0.48594E-03   -0.35194E-03    64   0.406E-01    0.184E-01
RMM:  31    -0.239776188506E+02   -0.81368E-03   -0.56739E-04    64   0.181E-01    0.114E-01
RMM:  32    -0.239776794677E+02   -0.60617E-04   -0.37744E-04    64   0.113E-01    0.747E-02
RMM:  33    -0.239777828996E+02   -0.10343E-03   -0.89654E-05    64   0.614E-02    0.583E-02
RMM:  34    -0.239778213803E+02   -0.38481E-04   -0.66690E-05    64   0.491E-02    0.420E-02
RMM:  35    -0.239778402111E+02   -0.18831E-04   -0.41321E-04    64   0.116E-01    0.272E-02
RMM:  36    -0.239778817625E+02   -0.41551E-04   -0.47884E-05    64   0.425E-02    0.913E-03
RMM:  37    -0.239779086038E+02   -0.26841E-04   -0.30297E-05    64   0.337E-02    0.689E-03
RMM:  38    -0.239779240354E+02   -0.15432E-04   -0.98530E-06    60   0.189E-02    0.438E-03
RMM:  39    -0.239779292395E+02   -0.52041E-05   -0.21900E-06    52   0.989E-03    0.100E-03
RMM:  40    -0.239779345579E+02   -0.53184E-05   -0.14170E-06    52   0.782E-03    0.135E-03
RMM:  41    -0.239779356551E+02   -0.10972E-05   -0.17371E-07    48   0.303E-03    0.498E-04
RMM:  42    -0.239779365948E+02   -0.93965E-06   -0.20488E-07    48   0.277E-03
    7 T=    57. E= -.23948638E+02 F= -.23977937E+02 E0= -.23981847E+02  EK= 0.29574E-01 SP= -.28E-03 SK= 0.13E-07
 bond charge predicted
 prediction of wavefunctions
       N       E                     dE             d eps       ncg     rms          rms(c)
DAV:   1    -0.239979541915E+02   -0.20019E-01   -0.11190E+00    64   0.990E+00    0.631E-01
RMM:   2    -0.239833179667E+02    0.14636E-01   -0.57231E-02    64   0.164E+00    0.185E-01
RMM:   3    -0.239875271959E+02   -0.42092E-02   -0.27143E-02    64   0.103E+00    0.272E-01
RMM:   4    -0.239857793407E+02    0.17479E-02   -0.72096E-03    64   0.497E-01    0.457E-02
RMM:   5    -0.239862044036E+02   -0.42506E-03   -0.15416E-03    69   0.247E-01    0.240E-02
RMM:   6    -0.239865543189E+02   -0.34992E-03   -0.78716E-04    64   0.158E-01    0.427E-02
RMM:   7    -0.239865580137E+02   -0.36947E-05   -0.23184E-04    64   0.886E-02    0.565E-03
RMM:   8    -0.239866253921E+02   -0.67378E-04   -0.95095E-05    68   0.614E-02    0.148E-02
RMM:   9    -0.239866463441E+02   -0.20952E-04   -0.23653E-05    64   0.279E-02    0.252E-03
RMM:  10    -0.239866612617E+02   -0.14918E-04   -0.53839E-06    60   0.148E-02    0.172E-03
RMM:  11    -0.239866684266E+02   -0.71649E-05   -0.50680E-07    48   0.503E-03    0.101E-03
RMM:  12    -0.239866700452E+02   -0.16186E-05   -0.15700E-07    48   0.242E-03    0.507E-04
RMM:  13    -0.239866707967E+02   -0.75157E-06   -0.84172E-08    44   0.200E-03
    8 T=    84. E= -.23943531E+02 F= -.23986671E+02 E0= -.23990591E+02  EK= 0.43321E-01 SP= -.23E-03 SK= 0.52E-04
 bond charge predicted
 prediction of wavefunctions
       N       E                     dE             d eps       ncg     rms          rms(c)
DAV:   1    -0.240153768731E+02   -0.28707E-01   -0.11818E+00    64   0.107E+01    0.600E-01
RMM:   2    -0.240103418645E+02    0.50350E-02   -0.44413E-02    64   0.186E+00    0.534E-01
RMM:   3    -0.240051228161E+02    0.52190E-02   -0.12403E-01    64   0.202E+00    0.278E-01
RMM:   4    -0.240054905235E+02   -0.36771E-03   -0.31351E-03    64   0.400E-01    0.135E-01
RMM:   5    -0.240057327959E+02   -0.24227E-03   -0.62147E-03    64   0.457E-01    0.356E-02
RMM:   6    -0.240059133877E+02   -0.18059E-03   -0.14612E-04    64   0.937E-02    0.406E-02
RMM:   7    -0.240060264059E+02   -0.11302E-03   -0.19680E-04    64   0.783E-02    0.594E-03
RMM:   8    -0.240061437889E+02   -0.11738E-03   -0.77151E-05    64   0.526E-02    0.114E-02
RMM:   9    -0.240061660494E+02   -0.22261E-04   -0.92677E-06    64   0.189E-02    0.501E-03
RMM:  10    -0.240061909200E+02   -0.24871E-04   -0.18910E-05    64   0.251E-02    0.403E-03
RMM:  11    -0.240062001063E+02   -0.91863E-05   -0.13436E-06    48   0.774E-03    0.166E-03
RMM:  12    -0.240062024044E+02   -0.22982E-05   -0.80782E-07    48   0.599E-03    0.444E-04
RMM:  13    -0.240062041894E+02   -0.17850E-05   -0.23373E-07    48   0.368E-03    0.224E-04
RMM:  14    -0.240062051562E+02   -0.96685E-06   -0.15536E-07    44   0.279E-03
    9 T=   113. E= -.23946793E+02 F= -.24006205E+02 E0= -.24010086E+02  EK= 0.58565E-01 SP= 0.24E-03 SK= 0.61E-03
 bond charge predicted
 prediction of wavefunctions
       N       E                     dE             d eps       ncg     rms          rms(c)
DAV:   1    -0.239616353559E+02    0.44569E-01   -0.58897E-01    64   0.769E+00    0.317E-01
RMM:   2    -0.239604984483E+02    0.11369E-02   -0.25535E-02    64   0.138E+00    0.220E-01
RMM:   3    -0.239612798763E+02   -0.78143E-03   -0.99910E-03    64   0.643E-01    0.199E-01
RMM:   4    -0.239620858111E+02   -0.80593E-03   -0.21733E-03    64   0.284E-01    0.825E-02
RMM:   5    -0.239622832683E+02   -0.19746E-03   -0.24899E-03    64   0.303E-01    0.295E-02
RMM:   6    -0.239626013655E+02   -0.31810E-03   -0.83146E-05    64   0.693E-02    0.163E-02
RMM:   7    -0.239626873525E+02   -0.85987E-04   -0.35951E-05    64   0.333E-02    0.569E-03
RMM:   8    -0.239627500135E+02   -0.62661E-04   -0.36944E-05    64   0.367E-02    0.843E-03
RMM:   9    -0.239627677007E+02   -0.17687E-04   -0.10561E-05    64   0.190E-02    0.765E-04
RMM:  10    -0.239627738359E+02   -0.61352E-05   -0.86395E-07    48   0.729E-03    0.117E-03
RMM:  11    -0.239627828109E+02   -0.89750E-05   -0.65173E-07    48   0.506E-03    0.511E-04
RMM:  12    -0.239627854402E+02   -0.26293E-05   -0.16412E-07    44   0.234E-03    0.350E-04
RMM:  13    -0.239627865927E+02   -0.11525E-05   -0.91256E-08    44   0.191E-03    0.986E-05
RMM:  14    -0.239627869812E+02   -0.38853E-06    0.00000E+00    32   0.162E-03
   10 T=    64. E= -.23926724E+02 F= -.23962787E+02 E0= -.23966653E+02  EK= 0.33082E-01 SP= 0.15E-02 SK= 0.15E-02
 bond charge predicted
 prediction of wavefunctions
 wavefunctions rotated
