<?xml version="1.0" encoding="ISO-8859-1"?>
<modeling>
 <generator>
  <i name="program" type="string">vasp </i>
  <i name="version" type="string">5.4.4.18Apr17-6-g9f103f2a35  </i>
  <i name="subversion" type="string">(build Jul 12 2018 13:43:46) complex            parallel </i>
  <i name="platform" type="string">LinuxGNU </i>
  <i name="date" type="string">2019 06 22 </i>
  <i name="time" type="string">02:17:35 </i>
 </generator>
 <incar>
  <i type="int" name="ISTART">     0</i>
  <i type="string" name="PREC">a</i>
  <i type="string" name="ALGO">fast</i>
  <i type="int" name="MAXMIX">    50</i>
  <i type="int" name="ICHARG">     2</i>
  <i type="int" name="IBRION">     0</i>
  <i name="EDIFF">      0.00000100</i>
  <i type="int" name="NSW">    10</i>
  <i type="int" name="ISIF">     2</i>
  <i type="int" name="ISYM">     0</i>
  <i type="int" name="NBLOCK">     1</i>
  <i type="int" name="KBLOCK">   100</i>
  <i name="ENCUT">    400.00000000</i>
  <i name="POTIM">      2.00000000</i>
  <i name="TEBEG">     50.00000000</i>
  <i name="TEEND">     50.00000000</i>
  <i name="SMASS">      0.00000000</i>
  <i type="logical" name="LREAL"> T  </i>
  <i type="int" name="ISMEAR">     1</i>
  <i name="SIGMA">      0.20000000</i>
  <i name="KSPACING">      0.50000000</i>
  <i type="logical" name="KGAMMA"> F  </i>
  <i name="PSTRESS">      0.00000000</i>
  <i type="logical" name="LWAVE"> F  </i>
  <i type="logical" name="LCHARG"> F  </i>
  <v type="int" name="KPOINT_BSE">    -1     0     0     0</v>
 </incar>
 <structure name="primitive_cell" >
  <crystal>
   <varray name="basis" >
    <v>      10.22070729       0.00000000       0.00000000 </v>
    <v>       0.24083170      10.08793709       0.00000000 </v>
    <v>       0.08167838       0.05445829      10.27497122 </v>
   </varray>
   <i name="volume">   1059.40966382 </i>
   <varray name="rec_basis" >
    <v>       0.09784059      -0.00233577      -0.00076538 </v>
    <v>       0.00000000       0.09912829      -0.00052539 </v>
    <v>       0.00000000       0.00000000       0.09732387 </v>
   </varray>
  </crystal>
  <varray name="positions" >
   <v>      -0.46150385       0.40699992       0.36102966 </v>
   <v>      -0.49678179       0.46723974       0.44522165 </v>
   <v>       0.39492389       0.47999858       0.43833334 </v>
   <v>      -0.44715494      -0.43447619       0.44331281 </v>
   <v>      -0.47161076       0.41650890      -0.46055904 </v>
  </varray>
 </structure>
 <varray name="primitive_index" >
  <v type="int" >        1 </v>
  <v type="int" >        5 </v>
  <v type="int" >        2 </v>
  <v type="int" >        3 </v>
  <v type="int" >        4 </v>
 </varray>
 <kpoints>
  <generation param="Monkhorst-Pack">
   <v type="int" name="divisions">       2        2        2 </v>
   <v name="usershift">      0.00000000       0.00000000       0.00000000 </v>
   <v name="genvec1">      0.50000000      -0.00000000      -0.00000000 </v>
   <v name="genvec2">      0.00000000       0.50000000       0.00000000 </v>
   <v name="genvec3">      0.00000000       0.00000000       0.50000000 </v>
   <v name="shift">      0.50000000       0.50000000       0.50000000 </v>
  </generation>
  <varray name="kpointlist" >
   <v>       0.25000000       0.25000000       0.25000000 </v>
   <v>      -0.25000000       0.25000000       0.25000000 </v>
   <v>       0.25000000      -0.25000000       0.25000000 </v>
   <v>      -0.25000000      -0.25000000       0.25000000 </v>
  </varray>
  <varray name="weights" >
   <v>       0.25000000 </v>
   <v>       0.25000000 </v>
   <v>       0.25000000 </v>
   <v>       0.25000000 </v>
  </varray>
 </kpoints>
 <parameters>
  <separator name="general" >
   <i type="string" name="SYSTEM">unknown system</i>
   <i type="logical" name="LCOMPAT"> F  </i>
  </separator>
  <separator name="electronic" >
   <i type="string" name="PREC">a</i>
   <i name="ENMAX">    400.00000000</i>
   <i name="ENAUG">    644.87300000</i>
   <i name="EDIFF">      0.00000100</i>
   <i type="int" name="IALGO">    68</i>
   <i type="int" name="IWAVPR">    12</i>
   <i type="int" name="NBANDS">     8</i>
   <i name="NELECT">      8.00000000</i>
   <i type="int" name="TURBO">     0</i>
   <i type="int" name="IRESTART">     0</i>
   <i type="int" name="NREBOOT">     0</i>
   <i type="int" name="NMIN">     0</i>
   <i name="EREF">      0.00000000</i>
   <separator name="electronic smearing" >
    <i type="int" name="ISMEAR">     1</i>
    <i name="SIGMA">      0.20000000</i>
    <i name="KSPACING">      0.50000000</i>
    <i type="logical" name="KGAMMA"> F  </i>
   </separator>
   <separator name="electronic projectors" >
    <i type="logical" name="LREAL"> T  </i>
    <v name="ROPT">      0.00000000      0.00000000</v>
    <i type="int" name="LMAXPAW">  -100</i>
    <i type="int" name="LMAXMIX">     2</i>
    <i type="logical" name="NLSPLINE"> F  </i>
   </separator>
   <separator name="electronic startup" >
    <i type="int" name="ISTART">     0</i>
    <i type="int" name="ICHARG">     2</i>
    <i type="int" name="INIWAV">     1</i>
   </separator>
   <separator name="electronic spin" >
    <i type="int" name="ISPIN">     1</i>
    <i type="logical" name="LNONCOLLINEAR"> F  </i>
    <v name="MAGMOM">      1.00000000      1.00000000      1.00000000      1.00000000      1.00000000</v>
    <i name="NUPDOWN">     -1.00000000</i>
    <i type="logical" name="LSORBIT"> F  </i>
    <v name="SAXIS">      0.00000000      0.00000000      1.00000000</v>
    <i type="logical" name="LSPIRAL"> F  </i>
    <v name="QSPIRAL">      0.00000000      0.00000000      0.00000000</v>
    <i type="logical" name="LZEROZ"> F  </i>
   </separator>
   <separator name="electronic exchange-correlation" >
    <i type="logical" name="LASPH"> F  </i>
    <i type="logical" name="LMETAGGA"> F  </i>
   </separator>
   <separator name="electronic convergence" >
    <i type="int" name="NELM">    60</i>
    <i type="int" name="NELMDL">    -5</i>
    <i type="int" name="NELMIN">     2</i>
    <i name="ENINI">    400.00000000</i>
    <separator name="electronic convergence detail" >
     <i type="logical" name="LDIAG"> T  </i>
     <i type="logical" name="LSUBROT"> F  </i>
     <i name="WEIMIN">      0.00100000</i>
     <i name="EBREAK">      0.00000003</i>
     <i name="DEPER">      0.30000000</i>
     <i type="int" name="NRMM">     4</i>
     <i name="TIME">      0.40000000</i>
    </separator>
   </separator>
   <separator name="electronic mixer" >
    <i name="AMIX">      0.40000000</i>
    <i name="BMIX">      1.00000000</i>
    <i name="AMIN">      0.10000000</i>
    <i name="AMIX_MAG">      1.60000000</i>
    <i name="BMIX_MAG">      1.00000000</i>
    <separator name="electronic mixer details" >
     <i type="int" name="IMIX">     4</i>
     <i type="logical" name="MIXFIRST"> F  </i>
     <i type="int" name="MAXMIX">    50</i>
     <i name="WC">    100.00000000</i>
     <i type="int" name="INIMIX">     1</i>
     <i type="int" name="MIXPRE">     1</i>
     <i type="int" name="MREMOVE">     5</i>
    </separator>
   </separator>
   <separator name="electronic dipolcorrection" >
    <i type="logical" name="LDIPOL"> F  </i>
    <i type="logical" name="LMONO"> F  </i>
    <i type="int" name="IDIPOL">     0</i>
    <i name="EPSILON">      1.00000000</i>
    <v name="DIPOL">   -100.00000000   -100.00000000   -100.00000000</v>
    <i name="EFIELD">      0.00000000</i>
   </separator>
  </separator>
  <separator name="grids" >
   <i type="int" name="NGX">    70</i>
   <i type="int" name="NGY">    70</i>
   <i type="int" name="NGZ">    70</i>
   <i type="int" name="NGXF">   140</i>
   <i type="int" name="NGYF">   140</i>
   <i type="int" name="NGZF">   140</i>
   <i type="logical" name="ADDGRID"> F  </i>
  </separator>
  <separator name="ionic" >
   <i type="int" name="NSW">    10</i>
   <i type="int" name="IBRION">     0</i>
   <i type="int" name="MDALGO">     0</i>
   <i type="int" name="ISIF">     2</i>
   <i name="PSTRESS">      0.00000000</i>
   <i name="EDIFFG">      0.00001000</i>
   <i type="int" name="NFREE">     0</i>
   <i name="POTIM">      2.00000000</i>
   <i name="SMASS">      0.00154838</i>
   <i name="SCALEE">      1.00000000</i>
  </separator>
  <separator name="ionic md" >
   <i name="TEBEG">     50.00000000</i>
   <i name="TEEND">     50.00000000</i>
   <i type="int" name="NBLOCK">     1</i>
   <i type="int" name="KBLOCK">     1</i>
   <i type="int" name="NPACO">   256</i>
   <i name="APACO">     16.00000000</i>
  </separator>
  <separator name="symmetry" >
   <i type="int" name="ISYM">     0</i>
   <i name="SYMPREC">      0.00001000</i>
  </separator>
  <separator name="dos" >
   <i type="int" name="LORBIT">     0</i>
   <v name="RWIGS">     -1.00000000     -1.00000000</v>
   <i type="int" name="NEDOS">   301</i>
   <i name="EMIN">     10.00000000</i>
   <i name="EMAX">    -10.00000000</i>
   <i name="EFERMI">      0.00000000</i>
  </separator>
  <separator name="writing" >
   <i type="int" name="NWRITE">     2</i>
   <i type="logical" name="LWAVE"> F  </i>
   <i type="logical" name="LDOWNSAMPLE"> F  </i>
   <i type="logical" name="LCHARG"> F  </i>
   <i type="logical" name="LPARD"> F  </i>
   <i type="logical" name="LVTOT"> F  </i>
   <i type="logical" name="LVHAR"> F  </i>
   <i type="logical" name="LELF"> F  </i>
   <i type="logical" name="LOPTICS"> F  </i>
   <v name="STM">      0.00000000      0.00000000      0.00000000      0.00000000      0.00000000      0.00000000      0.00000000</v>
  </separator>
  <separator name="performance" >
   <i type="int" name="NPAR">     1</i>
   <i type="int" name="NSIM">     4</i>
   <i type="int" name="NBLK">    -1</i>
   <i type="logical" name="LPLANE"> T  </i>
   <i type="logical" name="LSCALAPACK"> T  </i>
   <i type="logical" name="LSCAAWARE"> F  </i>
   <i type="logical" name="LSCALU"> F  </i>
   <i type="logical" name="LASYNC"> F  </i>
   <i type="logical" name="LORBITALREAL"> F  </i>
  </separator>
  <separator name="miscellaneous" >
   <i type="int" name="IDIOT">     3</i>
   <i type="int" name="ISPECIAL">     0</i>
   <i type="logical" name="LMUSIC"> F  </i>
   <v name="POMASS">      1.00000000     12.01100000</v>
   <v name="DARWINR">      0.00000000      0.00000000</v>
   <v name="DARWINV">      1.00000000      1.00000000</v>
   <i type="logical" name="LCORR"> T  </i>
  </separator>
  <i type="logical" name="GGA_COMPAT"> T  </i>
  <i type="logical" name="LBERRY"> F  </i>
  <i type="int" name="ICORELEVEL">     0</i>
  <i type="logical" name="LDAU"> F  </i>
  <i type="int" name="I_CONSTRAINED_M">     0</i>
  <separator name="electronic exchange-correlation" >
   <i type="string" name="GGA">--</i>
   <i type="int" name="VOSKOWN">     0</i>
   <i type="logical" name="LHFCALC"> F  </i>
   <i type="string" name="PRECFOCK"></i>
   <i type="logical" name="LSYMGRAD"> F  </i>
   <i type="logical" name="LHFONE"> F  </i>
   <i type="logical" name="LRHFCALC"> F  </i>
   <i type="logical" name="LTHOMAS"> F  </i>
   <i type="logical" name="LMODELHF"> F  </i>
   <i name="ENCUT4O">     -1.00000000</i>
   <i type="int" name="EXXOEP">     0</i>
   <i type="int" name="FOURORBIT">     0</i>
   <i name="AEXX">      0.00000000</i>
   <i name="HFALPHA">      0.00000000</i>
   <i name="MCALPHA">      0.00000000</i>
   <i name="ALDAX">      1.00000000</i>
   <i name="AGGAX">      1.00000000</i>
   <i name="ALDAC">      1.00000000</i>
   <i name="AGGAC">      1.00000000</i>
   <i type="int" name="NKREDX">     1</i>
   <i type="int" name="NKREDY">     1</i>
   <i type="int" name="NKREDZ">     1</i>
   <i type="logical" name="SHIFTRED"> F  </i>
   <i type="logical" name="ODDONLY"> F  </i>
   <i type="logical" name="EVENONLY"> F  </i>
   <i type="int" name="LMAXFOCK">     0</i>
   <i type="int" name="NMAXFOCKAE">     0</i>
   <i type="logical" name="LFOCKAEDFT"> F  </i>
   <i name="HFSCREEN">      0.00000000</i>
   <i name="HFSCREENC">      0.00000000</i>
   <i type="int" name="NBANDSGWLOW">     0</i>
  </separator>
  <separator name="vdW DFT" >
   <i type="logical" name="LUSE_VDW"> F  </i>
   <i name="Zab_VDW">     -0.84910000</i>
   <i name="PARAM1">      0.12340000</i>
   <i name="PARAM2">      1.00000000</i>
   <i name="PARAM3">      0.00000000</i>
  </separator>
  <separator name="model GW" >
   <i type="int" name="MODEL_GW">     0</i>
   <i name="MODEL_EPS0">    127.12915966</i>
   <i name="MODEL_ALPHA">      1.00000000</i>
  </separator>
  <separator name="linear response parameters" >
   <i type="logical" name="LEPSILON"> F  </i>
   <i type="logical" name="LRPA"> F  </i>
   <i type="logical" name="LNABLA"> F  </i>
   <i type="logical" name="LVEL"> F  </i>
   <i type="int" name="KINTER">     0</i>
   <i name="CSHIFT">      0.10000000</i>
   <i name="OMEGAMAX">     -1.00000000</i>
   <i name="DEG_THRESHOLD">      0.00200000</i>
   <i name="RTIME">     -0.10000000</i>
   <i name="WPLASMAI">      0.00000000</i>
   <v name="DFIELD">      0.00000000      0.00000000      0.00000000</v>
   <v name="WPLASMA">      0.00000000      0.00000000      0.00000000      0.00000000      0.00000000      0.00000000      0.00000000      0.00000000      0.00000000</v>
  </separator>
  <separator name="orbital magnetization" >
   <i type="logical" name="NUCIND"> F  </i>
   <v name="MAGPOS">      0.00000000      0.00000000      0.00000000</v>
   <i type="logical" name="LNICSALL"> T  </i>
   <i type="logical" name="ORBITALMAG"> F  </i>
   <i type="logical" name="LMAGBLOCH"> F  </i>
   <i type="logical" name="LCHIMAG"> F  </i>
   <i type="logical" name="LGAUGE"> T  </i>
   <i type="int" name="MAGATOM">     0</i>
   <v name="MAGDIPOL">      0.00000000      0.00000000      0.00000000</v>
   <v name="AVECCONST">      0.00000000      0.00000000      0.00000000</v>
  </separator>
  <separator name="response functions" >
   <i type="logical" name="LADDER"> F  </i>
   <i type="logical" name="LRPAFORCE"> F  </i>
   <i type="logical" name="LFXC"> F  </i>
   <i type="logical" name="LHARTREE"> T  </i>
   <i type="int" name="IBSE">     0</i>
   <v type="int" name="KPOINT">    -1     0     0     0</v>
   <i type="logical" name="LTCTE"> F  </i>
   <i type="logical" name="LTETE"> F  </i>
   <i type="logical" name="LTRIPLET"> F  </i>
   <i type="logical" name="LFXCEPS"> F  </i>
   <i type="logical" name="LFXHEG"> F  </i>
   <i type="int" name="NATURALO">     2</i>
   <i type="logical" name="L2ORDER"> F  </i>
   <i type="logical" name="LMP2LT"> F  </i>
   <i type="logical" name="LUSEW"> F  </i>
   <i name="ENCUTGW">     -2.00000000</i>
   <i name="ENCUTGWSOFT">     -2.00000000</i>
   <i name="ENCUTLF">     -1.00000000</i>
   <i type="int" name="LMAXMP2">    -1</i>
   <i name="SCISSOR">      0.00000000</i>
   <i type="int" name="NOMEGA">     0</i>
   <i type="int" name="NOMEGAR">     0</i>
   <i type="int" name="NBANDSGW">    -1</i>
   <i type="int" name="NBANDSO">    -1</i>
   <i type="int" name="NBANDSV">    -1</i>
   <i type="int" name="NELM">     1</i>
   <i type="int" name="NELMHF">     1</i>
   <i type="int" name="DIM">     3</i>
   <i type="int" name="ANTIRES">     0</i>
   <i name="OMEGAMAX">    -30.00000000</i>
   <i name="OMEGAMIN">    -30.00000000</i>
   <i name="OMEGATL">   -200.00000000</i>
   <i type="int" name="OMEGAGRID">   140</i>
   <i name="CSHIFT">     -0.10000000</i>
   <i type="logical" name="SELFENERGY"> F  </i>
   <i type="logical" name="LSPECTRAL"> F  </i>
   <i type="logical" name="LSPECTRALGW"> F  </i>
   <i type="logical" name="LSINGLES"> F  </i>
   <i type="logical" name="LFERMIGW"> F  </i>
   <i type="logical" name="ODDONLYGW"> F  </i>
   <i type="logical" name="EVENONLYGW"> F  </i>
   <i type="int" name="NKREDLFX">     1</i>
   <i type="int" name="NKREDLFY">     1</i>
   <i type="int" name="NKREDLFZ">     1</i>
   <i type="int" name="MAXMEM">  2800</i>
   <i type="int" name="TELESCOPE">     0</i>
   <i type="int" name="TAUPAR">     1</i>
   <i type="int" name="OMEGAPAR">    -1</i>
   <i name="LAMBDA">      1.00000000</i>
  </separator>
  <separator name="External order field" >
   <i name="OFIELD_KAPPA">      0.00000000</i>
   <v name="OFIELD_K">      0.00000000      0.00000000      0.00000000</v>
   <i name="OFIELD_Q6_NEAR">      0.00000000</i>
   <i name="OFIELD_Q6_FAR">      0.00000000</i>
   <i name="OFIELD_A">      0.00000000</i>
  </separator>
 </parameters>
 <atominfo>
  <atoms>       5 </atoms>
  <types>       2 </types>
  <array name="atoms" >
   <dimension dim="1">ion</dimension>
   <field type="string">element</field>
   <field type="int">atomtype</field>
   <set>
    <rc><c>H </c><c>   1</c></rc>
    <rc><c>H </c><c>   1</c></rc>
    <rc><c>H </c><c>   1</c></rc>
    <rc><c>H </c><c>   1</c></rc>
    <rc><c>C </c><c>   2</c></rc>
   </set>
  </array>
  <array name="atomtypes" >
   <dimension dim="1">type</dimension>
   <field type="int">atomspertype</field>
   <field type="string">element</field>
   <field>mass</field>
   <field>valence</field>
   <field type="string">pseudopotential</field>
   <set>
    <rc><c>   4</c><c>H </c><c>      1.00000000</c><c>      1.00000000</c><c>  PAW_PBE H 15Jun2001                   </c></rc>
    <rc><c>   1</c><c>C </c><c>     12.01100000</c><c>      4.00000000</c><c>  PAW_PBE C 08Apr2002                   </c></rc>
   </set>
  </array>
 </atominfo>
 <structure name="initialpos" >
  <crystal>
   <varray name="basis" >
    <v>      10.22070729       0.00000000       0.00000000 </v>
    <v>       0.24083170      10.08793709       0.00000000 </v>
    <v>       0.08167838       0.05445829      10.27497122 </v>
   </varray>
   <i name="volume">   1059.40966382 </i>
   <varray name="rec_basis" >
    <v>       0.09784059      -0.00233577      -0.00076538 </v>
    <v>       0.00000000       0.09912829      -0.00052539 </v>
    <v>       0.00000000       0.00000000       0.09732387 </v>
   </varray>
  </crystal>
  <varray name="positions" >
   <v>       0.53849615       0.40699992       0.36102966 </v>
   <v>       0.39492389       0.47999858       0.43833334 </v>
   <v>       0.55284506       0.56552381       0.44331281 </v>
   <v>       0.52838924       0.41650890       0.53944096 </v>
   <v>       0.50321821       0.46723974       0.44522165 </v>
  </varray>
  <varray name="velocities" >
   <v>      -0.00061939       0.00020077      -0.00018232 </v>
   <v>      -0.00185493       0.00079355       0.00145422 </v>
   <v>      -0.00088989       0.00267507      -0.00159877 </v>
   <v>       0.00044583      -0.00020392       0.00066840 </v>
   <v>       0.00024297      -0.00028853      -0.00002843 </v>
  </varray>
 </structure>
 <calculation>
  <scstep>
   <time name="dav">    2.80    2.80</time>
   <time name="total">    4.59    4.61</time>
   <energy>
    <i name="alphaZ">      0.22866583 </i>
    <i name="ewald">    126.25558699 </i>
    <i name="hartreedc">   -243.76834029 </i>
    <i name="XCdc">     21.89182345 </i>
    <i name="pawpsdc">    117.05815612 </i>
    <i name="pawaedc">   -117.66307307 </i>
    <i name="eentropy">      0.00452708 </i>
    <i name="bandstr">    -82.36106314 </i>
    <i name="atom">    197.04175453 </i>
    <i name="e_fr_energy">     18.68803751 </i>
    <i name="e_wo_entrp">     18.68351043 </i>
    <i name="e_0_energy">     18.68652848 </i>
   </energy>
  </scstep>
  <scstep>
   <time name="dav">    2.06    2.07</time>
   <time name="total">    2.06    2.07</time>
   <energy>
    <i name="e_fr_energy">    -21.16349062 </i>
    <i name="e_wo_entrp">    -21.17284240 </i>
    <i name="e_0_energy">    -21.16660788 </i>
   </energy>
  </scstep>
  <scstep>
   <time name="dav">    1.96    1.97</time>
   <time name="total">    1.96    1.97</time>
   <energy>
    <i name="e_fr_energy">    -26.95906588 </i>
    <i name="e_wo_entrp">    -26.98263800 </i>
    <i name="e_0_energy">    -26.96692325 </i>
   </energy>
  </scstep>
  <scstep>
   <time name="dav">    3.61    3.62</time>
   <time name="total">    3.61    3.62</time>
   <energy>
    <i name="e_fr_energy">    -27.22909874 </i>
    <i name="e_wo_entrp">    -27.25374247 </i>
    <i name="e_0_energy">    -27.23731332 </i>
   </energy>
  </scstep>
  <scstep>
   <time name="dav">    2.78    2.79</time>
   <time name="total">    3.00    3.01</time>
   <energy>
    <i name="e_fr_energy">    -27.22920567 </i>
    <i name="e_wo_entrp">    -27.25384936 </i>
    <i name="e_0_energy">    -27.23742023 </i>
   </energy>
  </scstep>
  <scstep>
   <time name="diag">    0.38    0.38</time>
   <time name="diis">    1.40    1.40</time>
   <time name="orth">    0.01    0.01</time>
   <time name="total">    3.78    3.79</time>
   <energy>
    <i name="e_fr_energy">    -24.57218918 </i>
    <i name="e_wo_entrp">    -24.60237012 </i>
    <i name="e_0_energy">    -24.58224950 </i>
   </energy>
  </scstep>
  <scstep>
   <time name="diag">    0.41    0.41</time>
   <time name="diis">    1.38    1.39</time>
   <time name="orth">    0.01    0.01</time>
   <time name="total">    3.79    3.80</time>
   <energy>
    <i name="e_fr_energy">    -24.12192117 </i>
    <i name="e_wo_entrp">    -24.15591860 </i>
    <i name="e_0_energy">    -24.13325365 </i>
   </energy>
  </scstep>
  <scstep>
   <time name="diag">    0.42    0.42</time>
   <time name="diis">    1.41    1.41</time>
   <time name="orth">    0.01    0.01</time>
   <time name="total">    3.80    3.81</time>
   <energy>
    <i name="e_fr_energy">    -23.97891308 </i>
    <i name="e_wo_entrp">    -24.01517184 </i>
    <i name="e_0_energy">    -23.99099933 </i>
   </energy>
  </scstep>
  <scstep>
   <time name="diag">    0.41    0.41</time>
   <time name="diis">    1.40    1.40</time>
   <time name="orth">    0.01    0.01</time>
   <time name="total">    3.81    3.81</time>
   <energy>
    <i name="e_fr_energy">    -23.97402021 </i>
    <i name="e_wo_entrp">    -24.01055886 </i>
    <i name="e_0_energy">    -23.98619976 </i>
   </energy>
  </scstep>
  <scstep>
   <time name="diag">    0.42    0.42</time>
   <time name="diis">    1.39    1.40</time>
   <time name="orth">    0.01    0.01</time>
   <time name="total">    3.81    3.82</time>
   <energy>
    <i name="e_fr_energy">    -23.97245706 </i>
    <i name="e_wo_entrp">    -24.00925674 </i>
    <i name="e_0_energy">    -23.98472362 </i>
   </energy>
  </scstep>
  <scstep>
   <time name="diag">    0.42    0.42</time>
   <time name="diis">    1.40    1.40</time>
   <time name="orth">    0.01    0.01</time>
   <time name="total">    3.71    3.72</time>
   <energy>
    <i name="e_fr_energy">    -23.96629998 </i>
    <i name="e_wo_entrp">    -24.00342621 </i>
    <i name="e_0_energy">    -23.97867539 </i>
   </energy>
  </scstep>
  <scstep>
   <time name="diag">    0.41    0.41</time>
   <time name="diis">    1.39    1.40</time>
   <time name="orth">    0.01    0.01</time>
   <time name="total">    3.65    3.66</time>
   <energy>
    <i name="e_fr_energy">    -23.97295744 </i>
    <i name="e_wo_entrp">    -24.01009166 </i>
    <i name="e_0_energy">    -23.98533552 </i>
   </energy>
  </scstep>
  <scstep>
   <time name="diag">    0.41    0.41</time>
   <time name="diis">    1.39    1.39</time>
   <time name="orth">    0.01    0.01</time>
   <time name="total">    3.56    3.57</time>
   <energy>
    <i name="e_fr_energy">    -23.97663851 </i>
    <i name="e_wo_entrp">    -24.01369296 </i>
    <i name="e_0_energy">    -23.98898999 </i>
   </energy>
  </scstep>
  <scstep>
   <time name="diag">    0.43    0.43</time>
   <time name="diis">    1.38    1.38</time>
   <time name="orth">    0.01    0.01</time>
   <time name="total">    3.55    3.56</time>
   <energy>
    <i name="e_fr_energy">    -23.97920248 </i>
    <i name="e_wo_entrp">    -24.01622645 </i>
    <i name="e_0_energy">    -23.99154380 </i>
   </energy>
  </scstep>
  <scstep>
   <time name="diag">    0.43    0.43</time>
   <time name="diis">    1.52    1.53</time>
   <time name="orth">    0.01    0.01</time>
   <time name="total">    3.80    3.81</time>
   <energy>
    <i name="e_fr_energy">    -23.98019317 </i>
    <i name="e_wo_entrp">    -24.01719816 </i>
    <i name="e_0_energy">    -23.99252816 </i>
   </energy>
  </scstep>
  <scstep>
   <time name="diag">    0.42    0.42</time>
   <time name="diis">    1.38    1.39</time>
   <time name="orth">    0.01    0.01</time>
   <time name="total">    3.57    3.58</time>
   <energy>
    <i name="e_fr_energy">    -23.98040587 </i>
    <i name="e_wo_entrp">    -24.01742922 </i>
    <i name="e_0_energy">    -23.99274698 </i>
   </energy>
  </scstep>
  <scstep>
   <time name="diag">    0.40    0.40</time>
   <time name="diis">    1.38    1.38</time>
   <time name="orth">    0.01    0.01</time>
   <time name="total">    3.65    3.66</time>
   <energy>
    <i name="e_fr_energy">    -23.98056444 </i>
    <i name="e_wo_entrp">    -24.01760545 </i>
    <i name="e_0_energy">    -23.99291144 </i>
   </energy>
  </scstep>
  <scstep>
   <time name="diag">    0.40    0.40</time>
   <time name="diis">    1.36    1.37</time>
   <time name="orth">    0.01    0.01</time>
   <time name="total">    3.64    3.65</time>
   <energy>
    <i name="e_fr_energy">    -23.98058477 </i>
    <i name="e_wo_entrp">    -24.01762432 </i>
    <i name="e_0_energy">    -23.99293129 </i>
   </energy>
  </scstep>
  <scstep>
   <time name="diag">    0.42    0.42</time>
   <time name="diis">    1.11    1.11</time>
   <time name="orth">    0.01    0.01</time>
   <time name="total">    3.50    3.51</time>
   <energy>
    <i name="e_fr_energy">    -23.98059709 </i>
    <i name="e_wo_entrp">    -24.01763240 </i>
    <i name="e_0_energy">    -23.99294219 </i>
   </energy>
  </scstep>
  <scstep>
   <time name="diag">    0.42    0.42</time>
   <time name="diis">    1.09    1.09</time>
   <time name="orth">    0.01    0.01</time>
   <time name="total">    3.66    3.67</time>
   <energy>
    <i name="e_fr_energy">    -23.98059820 </i>
    <i name="e_wo_entrp">    -24.01763361 </i>
    <i name="e_0_energy">    -23.99294334 </i>
   </energy>
  </scstep>
  <scstep>
   <time name="diag">    0.42    0.42</time>
   <time name="diis">    1.09    1.09</time>
   <time name="orth">    0.01    0.01</time>
   <time name="total">    3.52    3.53</time>
   <energy>
    <i name="e_fr_energy">    -23.98059938 </i>
    <i name="e_wo_entrp">    -24.01763492 </i>
    <i name="e_0_energy">    -23.99294456 </i>
   </energy>
  </scstep>
  <scstep>
   <time name="diag">    0.40    0.40</time>
   <time name="diis">    1.04    1.04</time>
   <time name="orth">    0.01    0.01</time>
   <time name="total">    3.15    3.16</time>
   <energy>
    <i name="alphaZ">      0.22866583 </i>
    <i name="ewald">    126.25558699 </i>
    <i name="hartreedc">   -282.57446196 </i>
    <i name="XCdc">     24.51623039 </i>
    <i name="pawpsdc">    428.68183530 </i>
    <i name="pawaedc">   -429.45372747 </i>
    <i name="eentropy">      0.03703497 </i>
    <i name="bandstr">    -88.71351832 </i>
    <i name="atom">    197.04175453 </i>
    <i name="e_fr_energy">    -23.98059974 </i>
    <i name="e_wo_entrp">    -24.01763471 </i>
    <i name="e_0_energy">    -23.99294473 </i>
   </energy>
  </scstep>
  <structure>
   <crystal>
    <varray name="basis" >
     <v>      10.22070729       0.00000000       0.00000000 </v>
     <v>       0.24083170      10.08793709       0.00000000 </v>
     <v>       0.08167838       0.05445829      10.27497122 </v>
    </varray>
    <i name="volume">   1059.40966382 </i>
    <varray name="rec_basis" >
     <v>       0.09784059      -0.00233577      -0.00076538 </v>
     <v>       0.00000000       0.09912829      -0.00052539 </v>
     <v>       0.00000000       0.00000000       0.09732387 </v>
    </varray>
   </crystal>
   <varray name="positions" >
    <v>       0.53849615       0.40699992       0.36102966 </v>
    <v>       0.39492389       0.47999858       0.43833334 </v>
    <v>       0.55284506       0.56552381       0.44331281 </v>
    <v>       0.52838924       0.41650890       0.53944096 </v>
    <v>       0.50321821       0.46723974       0.44522165 </v>
   </varray>
  </structure>
  <varray name="forces" >
   <v>      -0.15110576       0.25595793       0.43335580 </v>
   <v>       0.73331223      -0.02325768       0.58326478 </v>
   <v>      -0.22281237      -0.56687694       0.05865687 </v>
   <v>      -0.55950451       0.34476818      -0.70773554 </v>
   <v>      -0.69821351       1.54145101      -0.62937079 </v>
  </varray>
  <varray name="stress" >
   <v>      -2.79707888       0.33825051      -0.34709867 </v>
   <v>       0.33825051      -2.43554552      -0.04140160 </v>
   <v>      -0.34709867      -0.04140160      -1.71728212 </v>
  </varray>
  <energy>
   <i name="e_fr_energy">    -23.98059974 </i>
   <i name="e_wo_entrp">    -23.99294473 </i>
   <i name="e_0_energy">      0.03703497 </i>
   <i name="kinetic">      0.02162471 </i>
   <i name="lattice kinetic">      0.00000000 </i>
   <i name="nosepot">      0.00000000 </i>
   <i name="nosekinetic">      0.00000213 </i>
   <i name="total">    -23.95897290 </i>
  </energy>
  <dos>
   <i name="efermi">     -8.97980845 </i>
   <total>
    <array>
     <dimension dim="1">gridpoints</dimension>
     <dimension dim="2">spin</dimension>
     <field>energy</field>
     <field>total</field>
     <field>integrated</field>
     <set>
      <set comment="spin 1">
       <r>   -18.7312     0.0000     0.0000 </r>
       <r>   -18.6598     0.0000     0.0000 </r>
       <r>   -18.5884     0.0000     0.0000 </r>
       <r>   -18.5171     0.0000     0.0000 </r>
       <r>   -18.4457     0.0000     0.0000 </r>
       <r>   -18.3743    -0.0000    -0.0000 </r>
       <r>   -18.3030    -0.0000    -0.0000 </r>
       <r>   -18.2316    -0.0000    -0.0000 </r>
       <r>   -18.1602    -0.0000    -0.0000 </r>
       <r>   -18.0889    -0.0000    -0.0000 </r>
       <r>   -18.0175    -0.0000    -0.0000 </r>
       <r>   -17.9462    -0.0000    -0.0000 </r>
       <r>   -17.8748    -0.0000    -0.0000 </r>
       <r>   -17.8034    -0.0000    -0.0000 </r>
       <r>   -17.7321    -0.0000    -0.0000 </r>
       <r>   -17.6607    -0.0000    -0.0000 </r>
       <r>   -17.5893    -0.0000    -0.0000 </r>
       <r>   -17.5180    -0.0000    -0.0000 </r>
       <r>   -17.4466    -0.0001    -0.0000 </r>
       <r>   -17.3753    -0.0007    -0.0001 </r>
       <r>   -17.3039    -0.0048    -0.0004 </r>
       <r>   -17.2325    -0.0260    -0.0022 </r>
       <r>   -17.1612    -0.1024    -0.0096 </r>
       <r>   -17.0898    -0.2778    -0.0294 </r>
       <r>   -17.0184    -0.4393    -0.0607 </r>
       <r>   -16.9471    -0.0330    -0.0631 </r>
       <r>   -16.8757     1.7921     0.0648 </r>
       <r>   -16.8043     5.0345     0.4241 </r>
       <r>   -16.7330     7.8516     0.9844 </r>
       <r>   -16.6616     7.9365     1.5508 </r>
       <r>   -16.5903     5.2132     1.9228 </r>
       <r>   -16.5189     1.9328     2.0607 </r>
       <r>   -16.4475     0.0203     2.0622 </r>
       <r>   -16.3762    -0.4394     2.0308 </r>
       <r>   -16.3048    -0.2889     2.0102 </r>
       <r>   -16.2334    -0.1089     2.0024 </r>
       <r>   -16.1621    -0.0281     2.0004 </r>
       <r>   -16.0907    -0.0052     2.0001 </r>
       <r>   -16.0193    -0.0007     2.0000 </r>
       <r>   -15.9480    -0.0001     2.0000 </r>
       <r>   -15.8766    -0.0000     2.0000 </r>
       <r>   -15.8053    -0.0000     2.0000 </r>
       <r>   -15.7339    -0.0000     2.0000 </r>
       <r>   -15.6625    -0.0000     2.0000 </r>
       <r>   -15.5912    -0.0000     2.0000 </r>
       <r>   -15.5198    -0.0000     2.0000 </r>
       <r>   -15.4484    -0.0000     2.0000 </r>
       <r>   -15.3771     0.0000     2.0000 </r>
       <r>   -15.3057     0.0000     2.0000 </r>
       <r>   -15.2344     0.0000     2.0000 </r>
       <r>   -15.1630     0.0000     2.0000 </r>
       <r>   -15.0916     0.0000     2.0000 </r>
       <r>   -15.0203     0.0000     2.0000 </r>
       <r>   -14.9489     0.0000     2.0000 </r>
       <r>   -14.8775     0.0000     2.0000 </r>
       <r>   -14.8062     0.0000     2.0000 </r>
       <r>   -14.7348     0.0000     2.0000 </r>
       <r>   -14.6634     0.0000     2.0000 </r>
       <r>   -14.5921     0.0000     2.0000 </r>
       <r>   -14.5207     0.0000     2.0000 </r>
       <r>   -14.4494     0.0000     2.0000 </r>
       <r>   -14.3780     0.0000     2.0000 </r>
       <r>   -14.3066     0.0000     2.0000 </r>
       <r>   -14.2353     0.0000     2.0000 </r>
       <r>   -14.1639     0.0000     2.0000 </r>
       <r>   -14.0925     0.0000     2.0000 </r>
       <r>   -14.0212     0.0000     2.0000 </r>
       <r>   -13.9498     0.0000     2.0000 </r>
       <r>   -13.8784     0.0000     2.0000 </r>
       <r>   -13.8071     0.0000     2.0000 </r>
       <r>   -13.7357     0.0000     2.0000 </r>
       <r>   -13.6644     0.0000     2.0000 </r>
       <r>   -13.5930     0.0000     2.0000 </r>
       <r>   -13.5216     0.0000     2.0000 </r>
       <r>   -13.4503     0.0000     2.0000 </r>
       <r>   -13.3789     0.0000     2.0000 </r>
       <r>   -13.3075     0.0000     2.0000 </r>
       <r>   -13.2362     0.0000     2.0000 </r>
       <r>   -13.1648     0.0000     2.0000 </r>
       <r>   -13.0935     0.0000     2.0000 </r>
       <r>   -13.0221     0.0000     2.0000 </r>
       <r>   -12.9507     0.0000     2.0000 </r>
       <r>   -12.8794     0.0000     2.0000 </r>
       <r>   -12.8080     0.0000     2.0000 </r>
       <r>   -12.7366     0.0000     2.0000 </r>
       <r>   -12.6653     0.0000     2.0000 </r>
       <r>   -12.5939     0.0000     2.0000 </r>
       <r>   -12.5225     0.0000     2.0000 </r>
       <r>   -12.4512     0.0000     2.0000 </r>
       <r>   -12.3798     0.0000     2.0000 </r>
       <r>   -12.3085     0.0000     2.0000 </r>
       <r>   -12.2371     0.0000     2.0000 </r>
       <r>   -12.1657     0.0000     2.0000 </r>
       <r>   -12.0944     0.0000     2.0000 </r>
       <r>   -12.0230     0.0000     2.0000 </r>
       <r>   -11.9516     0.0000     2.0000 </r>
       <r>   -11.8803     0.0000     2.0000 </r>
       <r>   -11.8089     0.0000     2.0000 </r>
       <r>   -11.7375     0.0000     2.0000 </r>
       <r>   -11.6662     0.0000     2.0000 </r>
       <r>   -11.5948     0.0000     2.0000 </r>
       <r>   -11.5235     0.0000     2.0000 </r>
       <r>   -11.4521     0.0000     2.0000 </r>
       <r>   -11.3807     0.0000     2.0000 </r>
       <r>   -11.3094     0.0000     2.0000 </r>
       <r>   -11.2380     0.0000     2.0000 </r>
       <r>   -11.1666     0.0000     2.0000 </r>
       <r>   -11.0953     0.0000     2.0000 </r>
       <r>   -11.0239     0.0000     2.0000 </r>
       <r>   -10.9525    -0.0000     2.0000 </r>
       <r>   -10.8812    -0.0000     2.0000 </r>
       <r>   -10.8098    -0.0000     2.0000 </r>
       <r>   -10.7385    -0.0000     2.0000 </r>
       <r>   -10.6671    -0.0000     2.0000 </r>
       <r>   -10.5957    -0.0000     2.0000 </r>
       <r>   -10.5244    -0.0000     2.0000 </r>
       <r>   -10.4530    -0.0000     2.0000 </r>
       <r>   -10.3816    -0.0000     2.0000 </r>
       <r>   -10.3103    -0.0000     2.0000 </r>
       <r>   -10.2389    -0.0000     2.0000 </r>
       <r>   -10.1676    -0.0000     2.0000 </r>
       <r>   -10.0962    -0.0000     2.0000 </r>
       <r>   -10.0248    -0.0001     2.0000 </r>
       <r>    -9.9535    -0.0005     2.0000 </r>
       <r>    -9.8821    -0.0041     1.9997 </r>
       <r>    -9.8107    -0.0239     1.9980 </r>
       <r>    -9.7394    -0.1030     1.9906 </r>
       <r>    -9.6680    -0.3186     1.9679 </r>
       <r>    -9.5966    -0.6572     1.9210 </r>
       <r>    -9.5253    -0.6578     1.8740 </r>
       <r>    -9.4539     0.8338     1.9335 </r>
       <r>    -9.3826     4.9707     2.2883 </r>
       <r>    -9.3112    11.3362     3.0972 </r>
       <r>    -9.2398    17.3162     4.3330 </r>
       <r>    -9.1685    19.6925     5.7383 </r>
       <r>    -9.0971    17.0796     6.9572 </r>
       <r>    -9.0257    10.9907     7.7415 </r>
       <r>    -8.9544     4.6834     8.0757 </r>
       <r>    -8.8830     0.6907     8.1250 </r>
       <r>    -8.8116    -0.6856     8.0761 </r>
       <r>    -8.7403    -0.6415     8.0303 </r>
       <r>    -8.6689    -0.3027     8.0087 </r>
       <r>    -8.5976    -0.0959     8.0019 </r>
       <r>    -8.5262    -0.0219     8.0003 </r>
       <r>    -8.4548    -0.0037     8.0000 </r>
       <r>    -8.3835    -0.0005     8.0000 </r>
       <r>    -8.3121    -0.0000     8.0000 </r>
       <r>    -8.2407    -0.0000     8.0000 </r>
       <r>    -8.1694    -0.0000     8.0000 </r>
       <r>    -8.0980    -0.0000     8.0000 </r>
       <r>    -8.0267    -0.0000     8.0000 </r>
       <r>    -7.9553    -0.0000     8.0000 </r>
       <r>    -7.8839    -0.0000     8.0000 </r>
       <r>    -7.8126     0.0000     8.0000 </r>
       <r>    -7.7412     0.0000     8.0000 </r>
       <r>    -7.6698     0.0000     8.0000 </r>
       <r>    -7.5985     0.0000     8.0000 </r>
       <r>    -7.5271     0.0000     8.0000 </r>
       <r>    -7.4557     0.0000     8.0000 </r>
       <r>    -7.3844     0.0000     8.0000 </r>
       <r>    -7.3130     0.0000     8.0000 </r>
       <r>    -7.2417     0.0000     8.0000 </r>
       <r>    -7.1703     0.0000     8.0000 </r>
       <r>    -7.0989     0.0000     8.0000 </r>
       <r>    -7.0276     0.0000     8.0000 </r>
       <r>    -6.9562     0.0000     8.0000 </r>
       <r>    -6.8848     0.0000     8.0000 </r>
       <r>    -6.8135     0.0000     8.0000 </r>
       <r>    -6.7421     0.0000     8.0000 </r>
       <r>    -6.6707     0.0000     8.0000 </r>
       <r>    -6.5994     0.0000     8.0000 </r>
       <r>    -6.5280     0.0000     8.0000 </r>
       <r>    -6.4567     0.0000     8.0000 </r>
       <r>    -6.3853     0.0000     8.0000 </r>
       <r>    -6.3139     0.0000     8.0000 </r>
       <r>    -6.2426     0.0000     8.0000 </r>
       <r>    -6.1712     0.0000     8.0000 </r>
       <r>    -6.0998     0.0000     8.0000 </r>
       <r>    -6.0285     0.0000     8.0000 </r>
       <r>    -5.9571     0.0000     8.0000 </r>
       <r>    -5.8857     0.0000     8.0000 </r>
       <r>    -5.8144     0.0000     8.0000 </r>
       <r>    -5.7430     0.0000     8.0000 </r>
       <r>    -5.6717     0.0000     8.0000 </r>
       <r>    -5.6003     0.0000     8.0000 </r>
       <r>    -5.5289     0.0000     8.0000 </r>
       <r>    -5.4576     0.0000     8.0000 </r>
       <r>    -5.3862     0.0000     8.0000 </r>
       <r>    -5.3148     0.0000     8.0000 </r>
       <r>    -5.2435     0.0000     8.0000 </r>
       <r>    -5.1721     0.0000     8.0000 </r>
       <r>    -5.1008     0.0000     8.0000 </r>
       <r>    -5.0294     0.0000     8.0000 </r>
       <r>    -4.9580     0.0000     8.0000 </r>
       <r>    -4.8867     0.0000     8.0000 </r>
       <r>    -4.8153     0.0000     8.0000 </r>
       <r>    -4.7439     0.0000     8.0000 </r>
       <r>    -4.6726     0.0000     8.0000 </r>
       <r>    -4.6012     0.0000     8.0000 </r>
       <r>    -4.5298     0.0000     8.0000 </r>
       <r>    -4.4585     0.0000     8.0000 </r>
       <r>    -4.3871     0.0000     8.0000 </r>
       <r>    -4.3158     0.0000     8.0000 </r>
       <r>    -4.2444     0.0000     8.0000 </r>
       <r>    -4.1730     0.0000     8.0000 </r>
       <r>    -4.1017     0.0000     8.0000 </r>
       <r>    -4.0303     0.0000     8.0000 </r>
       <r>    -3.9589     0.0000     8.0000 </r>
       <r>    -3.8876     0.0000     8.0000 </r>
       <r>    -3.8162     0.0000     8.0000 </r>
       <r>    -3.7448     0.0000     8.0000 </r>
       <r>    -3.6735     0.0000     8.0000 </r>
       <r>    -3.6021     0.0000     8.0000 </r>
       <r>    -3.5308     0.0000     8.0000 </r>
       <r>    -3.4594     0.0000     8.0000 </r>
       <r>    -3.3880     0.0000     8.0000 </r>
       <r>    -3.3167     0.0000     8.0000 </r>
       <r>    -3.2453     0.0000     8.0000 </r>
       <r>    -3.1739     0.0000     8.0000 </r>
       <r>    -3.1026     0.0000     8.0000 </r>
       <r>    -3.0312     0.0000     8.0000 </r>
       <r>    -2.9599     0.0000     8.0000 </r>
       <r>    -2.8885     0.0000     8.0000 </r>
       <r>    -2.8171     0.0000     8.0000 </r>
       <r>    -2.7458     0.0000     8.0000 </r>
       <r>    -2.6744     0.0000     8.0000 </r>
       <r>    -2.6030     0.0000     8.0000 </r>
       <r>    -2.5317     0.0000     8.0000 </r>
       <r>    -2.4603     0.0000     8.0000 </r>
       <r>    -2.3889     0.0000     8.0000 </r>
       <r>    -2.3176     0.0000     8.0000 </r>
       <r>    -2.2462     0.0000     8.0000 </r>
       <r>    -2.1749     0.0000     8.0000 </r>
       <r>    -2.1035     0.0000     8.0000 </r>
       <r>    -2.0321     0.0000     8.0000 </r>
       <r>    -1.9608    -0.0000     8.0000 </r>
       <r>    -1.8894    -0.0000     8.0000 </r>
       <r>    -1.8180    -0.0000     8.0000 </r>
       <r>    -1.7467    -0.0000     8.0000 </r>
       <r>    -1.6753    -0.0000     8.0000 </r>
       <r>    -1.6039    -0.0000     8.0000 </r>
       <r>    -1.5326    -0.0000     8.0000 </r>
       <r>    -1.4612    -0.0000     8.0000 </r>
       <r>    -1.3899    -0.0000     8.0000 </r>
       <r>    -1.3185    -0.0000     8.0000 </r>
       <r>    -1.2471    -0.0000     8.0000 </r>
       <r>    -1.1758    -0.0000     8.0000 </r>
       <r>    -1.1044    -0.0000     8.0000 </r>
       <r>    -1.0330    -0.0002     8.0000 </r>
       <r>    -0.9617    -0.0017     7.9999 </r>
       <r>    -0.8903    -0.0107     7.9991 </r>
       <r>    -0.8190    -0.0504     7.9955 </r>
       <r>    -0.7476    -0.1695     7.9834 </r>
       <r>    -0.6762    -0.3729     7.9568 </r>
       <r>    -0.6049    -0.3778     7.9298 </r>
       <r>    -0.5335     0.5800     7.9712 </r>
       <r>    -0.4621     3.1530     8.1962 </r>
       <r>    -0.3908     6.5226     8.6617 </r>
       <r>    -0.3194     8.3045     9.2543 </r>
       <r>    -0.2480     6.9449     9.7500 </r>
       <r>    -0.1767     3.6435    10.0100 </r>
       <r>    -0.1053     0.8523    10.0708 </r>
       <r>    -0.0340    -0.3278    10.0474 </r>
       <r>     0.0374    -0.4389    10.0161 </r>
       <r>     0.1088    -0.3493     9.9912 </r>
       <r>     0.1801    -0.4824     9.9567 </r>
       <r>     0.2515    -0.7579     9.9026 </r>
       <r>     0.3229    -0.4764     9.8686 </r>
       <r>     0.3942     1.6882     9.9891 </r>
       <r>     0.4656     6.7908    10.4737 </r>
       <r>     0.5370    14.0018    11.4729 </r>
       <r>     0.6083    19.9728    12.8983 </r>
       <r>     0.6797    20.7841    14.3815 </r>
       <r>     0.7510    15.5439    15.4908 </r>
       <r>     0.8224     7.6841    16.0391 </r>
       <r>     0.8938     1.7086    16.1611 </r>
       <r>     0.9651    -0.7327    16.1088 </r>
       <r>     1.0365    -0.8904    16.0452 </r>
       <r>     1.1079    -0.4476    16.0133 </r>
       <r>     1.1792    -0.1458    16.0029 </r>
       <r>     1.2506    -0.0337    16.0005 </r>
       <r>     1.3220    -0.0058    16.0001 </r>
       <r>     1.3933    -0.0007    16.0000 </r>
       <r>     1.4647    -0.0001    16.0000 </r>
       <r>     1.5360    -0.0000    16.0000 </r>
       <r>     1.6074    -0.0000    16.0000 </r>
       <r>     1.6788    -0.0000    16.0000 </r>
       <r>     1.7501    -0.0000    16.0000 </r>
       <r>     1.8215    -0.0000    16.0000 </r>
       <r>     1.8929    -0.0000    16.0000 </r>
       <r>     1.9642    -0.0000    16.0000 </r>
       <r>     2.0356     0.0000    16.0000 </r>
       <r>     2.1069     0.0000    16.0000 </r>
       <r>     2.1783     0.0000    16.0000 </r>
       <r>     2.2497     0.0000    16.0000 </r>
       <r>     2.3210     0.0000    16.0000 </r>
       <r>     2.3924     0.0000    16.0000 </r>
       <r>     2.4638     0.0000    16.0000 </r>
       <r>     2.5351     0.0000    16.0000 </r>
       <r>     2.6065     0.0000    16.0000 </r>
       <r>     2.6779     0.0000    16.0000 </r>
      </set>
     </set>
    </array>
   </total>
  </dos>
  <time name="totalsc">   84.84   85.05</time>
 </calculation>
 <calculation>
  <scstep>
   <time name="dav">    2.07    2.08</time>
   <time name="total">    3.99    4.00</time>
   <energy>
    <i name="alphaZ">      0.22866583 </i>
    <i name="ewald">    129.80001632 </i>
    <i name="hartreedc">   -284.64398199 </i>
    <i name="XCdc">     24.62048962 </i>
    <i name="pawpsdc">    428.69111182 </i>
    <i name="pawaedc">   -429.46298573 </i>
    <i name="eentropy">      0.03184712 </i>
    <i name="bandstr">    -90.31470794 </i>
    <i name="atom">    197.04175453 </i>
    <i name="e_fr_energy">    -24.00779043 </i>
    <i name="e_wo_entrp">    -24.03963755 </i>
    <i name="e_0_energy">    -24.01840613 </i>
   </energy>
  </scstep>
  <scstep>
   <time name="diag">    0.43    0.43</time>
   <time name="diis">    1.51    1.51</time>
   <time name="orth">    0.01    0.01</time>
   <time name="total">    3.64    3.64</time>
   <energy>
    <i name="e_fr_energy">    -24.00006908 </i>
    <i name="e_wo_entrp">    -24.03139489 </i>
    <i name="e_0_energy">    -24.01051102 </i>
   </energy>
  </scstep>
  <scstep>
   <time name="diag">    0.42    0.42</time>
   <time name="diis">    1.49    1.49</time>
   <time name="orth">    0.01    0.01</time>
   <time name="total">    3.68    3.69</time>
   <energy>
    <i name="e_fr_energy">    -24.03834911 </i>
    <i name="e_wo_entrp">    -24.07049400 </i>
    <i name="e_0_energy">    -24.04906407 </i>
   </energy>
  </scstep>
  <scstep>
   <time name="diag">    0.41    0.41</time>
   <time name="diis">    1.49    1.50</time>
   <time name="orth">    0.01    0.01</time>
   <time name="total">    3.68    3.69</time>
   <energy>
    <i name="e_fr_energy">    -23.99590152 </i>
    <i name="e_wo_entrp">    -24.02667865 </i>
    <i name="e_0_energy">    -24.00616056 </i>
   </energy>
  </scstep>
  <scstep>
   <time name="diag">    0.42    0.42</time>
   <time name="diis">    1.50    1.51</time>
   <time name="orth">    0.01    0.01</time>
   <time name="total">    3.70    3.71</time>
   <energy>
    <i name="e_fr_energy">    -24.00120283 </i>
    <i name="e_wo_entrp">    -24.03250127 </i>
    <i name="e_0_energy">    -24.01163564 </i>
   </energy>
  </scstep>
  <scstep>
   <time name="diag">    0.42    0.42</time>
   <time name="diis">    1.50    1.50</time>
   <time name="orth">    0.01    0.01</time>
   <time name="total">    3.70    3.71</time>
   <energy>
    <i name="e_fr_energy">    -24.00117906 </i>
    <i name="e_wo_entrp">    -24.03247487 </i>
    <i name="e_0_energy">    -24.01161100 </i>
   </energy>
  </scstep>
  <scstep>
   <time name="diag">    0.41    0.41</time>
   <time name="diis">    1.48    1.49</time>
   <time name="orth">    0.01    0.01</time>
   <time name="total">    3.68    3.68</time>
   <energy>
    <i name="e_fr_energy">    -24.00124223 </i>
    <i name="e_wo_entrp">    -24.03259298 </i>
    <i name="e_0_energy">    -24.01169248 </i>
   </energy>
  </scstep>
  <scstep>
   <time name="diag">    0.43    0.43</time>
   <time name="diis">    1.48    1.49</time>
   <time name="orth">    0.01    0.01</time>
   <time name="total">    3.70    3.70</time>
   <energy>
    <i name="e_fr_energy">    -24.00113543 </i>
    <i name="e_wo_entrp">    -24.03252018 </i>
    <i name="e_0_energy">    -24.01159702 </i>
   </energy>
  </scstep>
  <scstep>
   <time name="diag">    0.42    0.42</time>
   <time name="diis">    1.46    1.46</time>
   <time name="orth">    0.01    0.01</time>
   <time name="total">    3.68    3.69</time>
   <energy>
    <i name="e_fr_energy">    -24.00120383 </i>
    <i name="e_wo_entrp">    -24.03253593 </i>
    <i name="e_0_energy">    -24.01164786 </i>
   </energy>
  </scstep>
  <scstep>
   <time name="diag">    0.42    0.43</time>
   <time name="diis">    1.48    1.48</time>
   <time name="orth">    0.01    0.01</time>
   <time name="total">    3.75    3.76</time>
   <energy>
    <i name="e_fr_energy">    -24.00122811 </i>
    <i name="e_wo_entrp">    -24.03247759 </i>
    <i name="e_0_energy">    -24.01164460 </i>
   </energy>
  </scstep>
  <scstep>
   <time name="diag">    0.42    0.42</time>
   <time name="diis">    1.11    1.11</time>
   <time name="orth">    0.01    0.01</time>
   <time name="total">    3.39    3.39</time>
   <energy>
    <i name="e_fr_energy">    -24.00123945 </i>
    <i name="e_wo_entrp">    -24.03247118 </i>
    <i name="e_0_energy">    -24.01165002 </i>
   </energy>
  </scstep>
  <scstep>
   <time name="diag">    0.42    0.42</time>
   <time name="diis">    1.30    1.30</time>
   <time name="orth">    0.01    0.01</time>
   <time name="total">    3.68    3.68</time>
   <energy>
    <i name="e_fr_energy">    -24.00124615 </i>
    <i name="e_wo_entrp">    -24.03247049 </i>
    <i name="e_0_energy">    -24.01165426 </i>
   </energy>
  </scstep>
  <scstep>
   <time name="diag">    0.40    0.40</time>
   <time name="diis">    1.10    1.10</time>
   <time name="orth">    0.01    0.01</time>
   <time name="total">    3.50    3.51</time>
   <energy>
    <i name="e_fr_energy">    -24.00124836 </i>
    <i name="e_wo_entrp">    -24.03246786 </i>
    <i name="e_0_energy">    -24.01165486 </i>
   </energy>
  </scstep>
  <scstep>
   <time name="diag">    0.40    0.40</time>
   <time name="diis">    1.06    1.06</time>
   <time name="orth">    0.01    0.01</time>
   <time name="total">    3.46    3.47</time>
   <energy>
    <i name="e_fr_energy">    -24.00124965 </i>
    <i name="e_wo_entrp">    -24.03246593 </i>
    <i name="e_0_energy">    -24.01165508 </i>
   </energy>
  </scstep>
  <scstep>
   <time name="diag">    0.41    0.41</time>
   <time name="diis">    1.08    1.08</time>
   <time name="orth">    0.01    0.01</time>
   <time name="total">    3.28    3.29</time>
   <energy>
    <i name="alphaZ">      0.22866583 </i>
    <i name="ewald">    129.80001632 </i>
    <i name="hartreedc">   -285.68796041 </i>
    <i name="XCdc">     24.68054321 </i>
    <i name="pawpsdc">    453.96612063 </i>
    <i name="pawaedc">   -454.75023675 </i>
    <i name="eentropy">      0.03121923 </i>
    <i name="bandstr">    -89.31137286 </i>
    <i name="atom">    197.04175453 </i>
    <i name="e_fr_energy">    -24.00125028 </i>
    <i name="e_wo_entrp">    -24.03246951 </i>
    <i name="e_0_energy">    -24.01165669 </i>
   </energy>
  </scstep>
  <structure>
   <crystal>
    <varray name="basis" >
     <v>      10.22070729       0.00000000       0.00000000 </v>
     <v>       0.24083170      10.08793709       0.00000000 </v>
     <v>       0.08167838       0.05445829      10.27497122 </v>
    </varray>
    <i name="volume">   1059.40966382 </i>
    <varray name="rec_basis" >
     <v>       0.09784059      -0.00233577      -0.00076538 </v>
     <v>       0.00000000       0.09912829      -0.00052539 </v>
     <v>       0.00000000       0.00000000       0.09732387 </v>
    </varray>
   </crystal>
   <varray name="positions" >
    <v>       0.53748960       0.40780046       0.36253717 </v>
    <v>       0.39604261       0.48032071       0.44204240 </v>
    <v>       0.55138212       0.56565918       0.44199432 </v>
    <v>       0.52693178       0.41726743       0.53751180 </v>
    <v>       0.50345201       0.46707184       0.44505773 </v>
   </varray>
  </structure>
  <varray name="forces" >
   <v>       0.38099440      -0.43845356      -1.18395100 </v>
   <v>       0.17457490      -0.28655620      -0.14548916 </v>
   <v>      -0.17132679      -0.65406867       0.34842704 </v>
   <v>       0.27364342      -0.29126244       0.44618838 </v>
   <v>      -0.98689419       2.29565787      -0.35138687 </v>
  </varray>
  <varray name="stress" >
   <v>      -1.06664289      -0.45979459       0.21870358 </v>
   <v>      -0.45979458      -1.38099085       0.56054257 </v>
   <v>       0.21870358       0.56054258       0.64884560 </v>
  </varray>
  <energy>
   <i name="e_fr_energy">    -24.00125028 </i>
   <i name="e_wo_entrp">    -24.01165669 </i>
   <i name="e_0_energy">      0.03121923 </i>
   <i name="kinetic">      0.03059693 </i>
   <i name="lattice kinetic">      0.00000000 </i>
   <i name="nosepot">     -0.00010436 </i>
   <i name="nosekinetic">      0.00000165 </i>
   <i name="total">    -23.97075606 </i>
  </energy>
  <dos>
   <i name="efermi">     -9.03582702 </i>
   <total>
    <array>
     <dimension dim="1">gridpoints</dimension>
     <dimension dim="2">spin</dimension>
     <field>energy</field>
     <field>total</field>
     <field>integrated</field>
     <set>
      <set comment="spin 1">
       <r>   -18.8488     0.0000     0.0000 </r>
       <r>   -18.7770     0.0000     0.0000 </r>
       <r>   -18.7053     0.0000     0.0000 </r>
       <r>   -18.6335     0.0000     0.0000 </r>
       <r>   -18.5617     0.0000     0.0000 </r>
       <r>   -18.4899    -0.0000    -0.0000 </r>
       <r>   -18.4182    -0.0000    -0.0000 </r>
       <r>   -18.3464    -0.0000    -0.0000 </r>
       <r>   -18.2746    -0.0000    -0.0000 </r>
       <r>   -18.2028    -0.0000    -0.0000 </r>
       <r>   -18.1311    -0.0000    -0.0000 </r>
       <r>   -18.0593    -0.0000    -0.0000 </r>
       <r>   -17.9875    -0.0000    -0.0000 </r>
       <r>   -17.9157    -0.0000    -0.0000 </r>
       <r>   -17.8440    -0.0000    -0.0000 </r>
       <r>   -17.7722    -0.0000    -0.0000 </r>
       <r>   -17.7004    -0.0000    -0.0000 </r>
       <r>   -17.6286    -0.0000    -0.0000 </r>
       <r>   -17.5568    -0.0001    -0.0000 </r>
       <r>   -17.4851    -0.0008    -0.0001 </r>
       <r>   -17.4133    -0.0059    -0.0005 </r>
       <r>   -17.3415    -0.0311    -0.0027 </r>
       <r>   -17.2697    -0.1186    -0.0112 </r>
       <r>   -17.1980    -0.3059    -0.0332 </r>
       <r>   -17.1262    -0.4358    -0.0645 </r>
       <r>   -17.0544     0.1236    -0.0556 </r>
       <r>   -16.9826     2.2053     0.1027 </r>
       <r>   -16.9109     5.5600     0.5018 </r>
       <r>   -16.8391     8.0852     1.0821 </r>
       <r>   -16.7673     7.6370     1.6302 </r>
       <r>   -16.6955     4.6201     1.9618 </r>
       <r>   -16.6238     1.4711     2.0674 </r>
       <r>   -16.5520    -0.1494     2.0567 </r>
       <r>   -16.4802    -0.4325     2.0257 </r>
       <r>   -16.4084    -0.2476     2.0079 </r>
       <r>   -16.3367    -0.0855     2.0018 </r>
       <r>   -16.2649    -0.0204     2.0003 </r>
       <r>   -16.1931    -0.0035     2.0000 </r>
       <r>   -16.1213    -0.0005     2.0000 </r>
       <r>   -16.0496    -0.0000     2.0000 </r>
       <r>   -15.9778    -0.0000     2.0000 </r>
       <r>   -15.9060    -0.0000     2.0000 </r>
       <r>   -15.8342    -0.0000     2.0000 </r>
       <r>   -15.7624    -0.0000     2.0000 </r>
       <r>   -15.6907    -0.0000     2.0000 </r>
       <r>   -15.6189    -0.0000     2.0000 </r>
       <r>   -15.5471     0.0000     2.0000 </r>
       <r>   -15.4753     0.0000     2.0000 </r>
       <r>   -15.4036     0.0000     2.0000 </r>
       <r>   -15.3318     0.0000     2.0000 </r>
       <r>   -15.2600     0.0000     2.0000 </r>
       <r>   -15.1882     0.0000     2.0000 </r>
       <r>   -15.1165     0.0000     2.0000 </r>
       <r>   -15.0447     0.0000     2.0000 </r>
       <r>   -14.9729     0.0000     2.0000 </r>
       <r>   -14.9011     0.0000     2.0000 </r>
       <r>   -14.8294     0.0000     2.0000 </r>
       <r>   -14.7576     0.0000     2.0000 </r>
       <r>   -14.6858     0.0000     2.0000 </r>
       <r>   -14.6140     0.0000     2.0000 </r>
       <r>   -14.5423     0.0000     2.0000 </r>
       <r>   -14.4705     0.0000     2.0000 </r>
       <r>   -14.3987     0.0000     2.0000 </r>
       <r>   -14.3269     0.0000     2.0000 </r>
       <r>   -14.2552     0.0000     2.0000 </r>
       <r>   -14.1834     0.0000     2.0000 </r>
       <r>   -14.1116     0.0000     2.0000 </r>
       <r>   -14.0398     0.0000     2.0000 </r>
       <r>   -13.9681     0.0000     2.0000 </r>
       <r>   -13.8963     0.0000     2.0000 </r>
       <r>   -13.8245     0.0000     2.0000 </r>
       <r>   -13.7527     0.0000     2.0000 </r>
       <r>   -13.6809     0.0000     2.0000 </r>
       <r>   -13.6092     0.0000     2.0000 </r>
       <r>   -13.5374     0.0000     2.0000 </r>
       <r>   -13.4656     0.0000     2.0000 </r>
       <r>   -13.3938     0.0000     2.0000 </r>
       <r>   -13.3221     0.0000     2.0000 </r>
       <r>   -13.2503     0.0000     2.0000 </r>
       <r>   -13.1785     0.0000     2.0000 </r>
       <r>   -13.1067     0.0000     2.0000 </r>
       <r>   -13.0350     0.0000     2.0000 </r>
       <r>   -12.9632     0.0000     2.0000 </r>
       <r>   -12.8914     0.0000     2.0000 </r>
       <r>   -12.8196     0.0000     2.0000 </r>
       <r>   -12.7479     0.0000     2.0000 </r>
       <r>   -12.6761     0.0000     2.0000 </r>
       <r>   -12.6043     0.0000     2.0000 </r>
       <r>   -12.5325     0.0000     2.0000 </r>
       <r>   -12.4608     0.0000     2.0000 </r>
       <r>   -12.3890     0.0000     2.0000 </r>
       <r>   -12.3172     0.0000     2.0000 </r>
       <r>   -12.2454     0.0000     2.0000 </r>
       <r>   -12.1737     0.0000     2.0000 </r>
       <r>   -12.1019     0.0000     2.0000 </r>
       <r>   -12.0301     0.0000     2.0000 </r>
       <r>   -11.9583     0.0000     2.0000 </r>
       <r>   -11.8865     0.0000     2.0000 </r>
       <r>   -11.8148     0.0000     2.0000 </r>
       <r>   -11.7430     0.0000     2.0000 </r>
       <r>   -11.6712     0.0000     2.0000 </r>
       <r>   -11.5994     0.0000     2.0000 </r>
       <r>   -11.5277     0.0000     2.0000 </r>
       <r>   -11.4559     0.0000     2.0000 </r>
       <r>   -11.3841     0.0000     2.0000 </r>
       <r>   -11.3123     0.0000     2.0000 </r>
       <r>   -11.2406     0.0000     2.0000 </r>
       <r>   -11.1688     0.0000     2.0000 </r>
       <r>   -11.0970     0.0000     2.0000 </r>
       <r>   -11.0252    -0.0000     2.0000 </r>
       <r>   -10.9535    -0.0000     2.0000 </r>
       <r>   -10.8817    -0.0000     2.0000 </r>
       <r>   -10.8099    -0.0000     2.0000 </r>
       <r>   -10.7381    -0.0000     2.0000 </r>
       <r>   -10.6664    -0.0000     2.0000 </r>
       <r>   -10.5946    -0.0000     2.0000 </r>
       <r>   -10.5228    -0.0000     2.0000 </r>
       <r>   -10.4510    -0.0000     2.0000 </r>
       <r>   -10.3793    -0.0000     2.0000 </r>
       <r>   -10.3075    -0.0000     2.0000 </r>
       <r>   -10.2357    -0.0000     2.0000 </r>
       <r>   -10.1639    -0.0000     2.0000 </r>
       <r>   -10.0922    -0.0001     2.0000 </r>
       <r>   -10.0204    -0.0013     1.9999 </r>
       <r>    -9.9486    -0.0086     1.9993 </r>
       <r>    -9.8768    -0.0430     1.9962 </r>
       <r>    -9.8050    -0.1548     1.9851 </r>
       <r>    -9.7333    -0.3799     1.9578 </r>
       <r>    -9.6615    -0.5343     1.9195 </r>
       <r>    -9.5897     0.0191     1.9208 </r>
       <r>    -9.5179     2.0710     2.0695 </r>
       <r>    -9.4462     5.7042     2.4789 </r>
       <r>    -9.3744    10.1573     3.2080 </r>
       <r>    -9.3026    14.5829     4.2547 </r>
       <r>    -9.2308    17.7109     5.5259 </r>
       <r>    -9.1591    17.3010     6.7677 </r>
       <r>    -9.0873    12.4344     7.6602 </r>
       <r>    -9.0155     5.7394     8.0721 </r>
       <r>    -8.9437     0.9514     8.1404 </r>
       <r>    -8.8720    -0.7745     8.0848 </r>
       <r>    -8.8002    -0.7286     8.0325 </r>
       <r>    -8.7284    -0.3298     8.0088 </r>
       <r>    -8.6566    -0.0985     8.0018 </r>
       <r>    -8.5849    -0.0210     8.0003 </r>
       <r>    -8.5131    -0.0033     8.0000 </r>
       <r>    -8.4413    -0.0004     8.0000 </r>
       <r>    -8.3695    -0.0000     8.0000 </r>
       <r>    -8.2978    -0.0000     8.0000 </r>
       <r>    -8.2260    -0.0000     8.0000 </r>
       <r>    -8.1542    -0.0000     8.0000 </r>
       <r>    -8.0824    -0.0000     8.0000 </r>
       <r>    -8.0106    -0.0000     8.0000 </r>
       <r>    -7.9389    -0.0000     8.0000 </r>
       <r>    -7.8671     0.0000     8.0000 </r>
       <r>    -7.7953     0.0000     8.0000 </r>
       <r>    -7.7235     0.0000     8.0000 </r>
       <r>    -7.6518     0.0000     8.0000 </r>
       <r>    -7.5800     0.0000     8.0000 </r>
       <r>    -7.5082     0.0000     8.0000 </r>
       <r>    -7.4364     0.0000     8.0000 </r>
       <r>    -7.3647     0.0000     8.0000 </r>
       <r>    -7.2929     0.0000     8.0000 </r>
       <r>    -7.2211     0.0000     8.0000 </r>
       <r>    -7.1493     0.0000     8.0000 </r>
       <r>    -7.0776     0.0000     8.0000 </r>
       <r>    -7.0058     0.0000     8.0000 </r>
       <r>    -6.9340     0.0000     8.0000 </r>
       <r>    -6.8622     0.0000     8.0000 </r>
       <r>    -6.7905     0.0000     8.0000 </r>
       <r>    -6.7187     0.0000     8.0000 </r>
       <r>    -6.6469     0.0000     8.0000 </r>
       <r>    -6.5751     0.0000     8.0000 </r>
       <r>    -6.5034     0.0000     8.0000 </r>
       <r>    -6.4316     0.0000     8.0000 </r>
       <r>    -6.3598     0.0000     8.0000 </r>
       <r>    -6.2880     0.0000     8.0000 </r>
       <r>    -6.2162     0.0000     8.0000 </r>
       <r>    -6.1445     0.0000     8.0000 </r>
       <r>    -6.0727     0.0000     8.0000 </r>
       <r>    -6.0009     0.0000     8.0000 </r>
       <r>    -5.9291     0.0000     8.0000 </r>
       <r>    -5.8574     0.0000     8.0000 </r>
       <r>    -5.7856     0.0000     8.0000 </r>
       <r>    -5.7138     0.0000     8.0000 </r>
       <r>    -5.6420     0.0000     8.0000 </r>
       <r>    -5.5703     0.0000     8.0000 </r>
       <r>    -5.4985     0.0000     8.0000 </r>
       <r>    -5.4267     0.0000     8.0000 </r>
       <r>    -5.3549     0.0000     8.0000 </r>
       <r>    -5.2832     0.0000     8.0000 </r>
       <r>    -5.2114     0.0000     8.0000 </r>
       <r>    -5.1396     0.0000     8.0000 </r>
       <r>    -5.0678     0.0000     8.0000 </r>
       <r>    -4.9961     0.0000     8.0000 </r>
       <r>    -4.9243     0.0000     8.0000 </r>
       <r>    -4.8525     0.0000     8.0000 </r>
       <r>    -4.7807     0.0000     8.0000 </r>
       <r>    -4.7090     0.0000     8.0000 </r>
       <r>    -4.6372     0.0000     8.0000 </r>
       <r>    -4.5654     0.0000     8.0000 </r>
       <r>    -4.4936     0.0000     8.0000 </r>
       <r>    -4.4219     0.0000     8.0000 </r>
       <r>    -4.3501     0.0000     8.0000 </r>
       <r>    -4.2783     0.0000     8.0000 </r>
       <r>    -4.2065     0.0000     8.0000 </r>
       <r>    -4.1347     0.0000     8.0000 </r>
       <r>    -4.0630     0.0000     8.0000 </r>
       <r>    -3.9912     0.0000     8.0000 </r>
       <r>    -3.9194     0.0000     8.0000 </r>
       <r>    -3.8476     0.0000     8.0000 </r>
       <r>    -3.7759     0.0000     8.0000 </r>
       <r>    -3.7041     0.0000     8.0000 </r>
       <r>    -3.6323     0.0000     8.0000 </r>
       <r>    -3.5605     0.0000     8.0000 </r>
       <r>    -3.4888     0.0000     8.0000 </r>
       <r>    -3.4170     0.0000     8.0000 </r>
       <r>    -3.3452     0.0000     8.0000 </r>
       <r>    -3.2734     0.0000     8.0000 </r>
       <r>    -3.2017     0.0000     8.0000 </r>
       <r>    -3.1299     0.0000     8.0000 </r>
       <r>    -3.0581     0.0000     8.0000 </r>
       <r>    -2.9863     0.0000     8.0000 </r>
       <r>    -2.9146     0.0000     8.0000 </r>
       <r>    -2.8428     0.0000     8.0000 </r>
       <r>    -2.7710     0.0000     8.0000 </r>
       <r>    -2.6992     0.0000     8.0000 </r>
       <r>    -2.6275     0.0000     8.0000 </r>
       <r>    -2.5557     0.0000     8.0000 </r>
       <r>    -2.4839     0.0000     8.0000 </r>
       <r>    -2.4121     0.0000     8.0000 </r>
       <r>    -2.3403     0.0000     8.0000 </r>
       <r>    -2.2686     0.0000     8.0000 </r>
       <r>    -2.1968     0.0000     8.0000 </r>
       <r>    -2.1250     0.0000     8.0000 </r>
       <r>    -2.0532     0.0000     8.0000 </r>
       <r>    -1.9815    -0.0000     8.0000 </r>
       <r>    -1.9097    -0.0000     8.0000 </r>
       <r>    -1.8379    -0.0000     8.0000 </r>
       <r>    -1.7661    -0.0000     8.0000 </r>
       <r>    -1.6944    -0.0000     8.0000 </r>
       <r>    -1.6226    -0.0000     8.0000 </r>
       <r>    -1.5508    -0.0000     8.0000 </r>
       <r>    -1.4790    -0.0000     8.0000 </r>
       <r>    -1.4073    -0.0000     8.0000 </r>
       <r>    -1.3355    -0.0000     8.0000 </r>
       <r>    -1.2637    -0.0000     8.0000 </r>
       <r>    -1.1919    -0.0000     8.0000 </r>
       <r>    -1.1202    -0.0000     8.0000 </r>
       <r>    -1.0484    -0.0001     8.0000 </r>
       <r>    -0.9766    -0.0005     8.0000 </r>
       <r>    -0.9048    -0.0041     7.9997 </r>
       <r>    -0.8331    -0.0232     7.9980 </r>
       <r>    -0.7613    -0.0943     7.9912 </r>
       <r>    -0.6895    -0.2642     7.9723 </r>
       <r>    -0.6177    -0.4371     7.9409 </r>
       <r>    -0.5460    -0.0812     7.9351 </r>
       <r>    -0.4742     1.6714     8.0550 </r>
       <r>    -0.4024     4.8939     8.4063 </r>
       <r>    -0.3306     7.7876     8.9653 </r>
       <r>    -0.2588     7.9775     9.5378 </r>
       <r>    -0.1871     5.2920     9.9177 </r>
       <r>    -0.1153     1.9816    10.0599 </r>
       <r>    -0.0435     0.0294    10.0620 </r>
       <r>     0.0283    -0.4655    10.0286 </r>
       <r>     0.1000    -0.4017     9.9998 </r>
       <r>     0.1718    -0.4493     9.9675 </r>
       <r>     0.2436    -0.7142     9.9163 </r>
       <r>     0.3154    -0.6628     9.8687 </r>
       <r>     0.3871     0.9528     9.9371 </r>
       <r>     0.4589     5.4253    10.3265 </r>
       <r>     0.5307    12.4720    11.2217 </r>
       <r>     0.6025    19.1413    12.5956 </r>
       <r>     0.6742    21.2176    14.1185 </r>
       <r>     0.7460    16.9174    15.3327 </r>
       <r>     0.8178     9.0683    15.9836 </r>
       <r>     0.8896     2.4675    16.1607 </r>
       <r>     0.9613    -0.5534    16.1210 </r>
       <r>     1.0331    -0.9456    16.0531 </r>
       <r>     1.1049    -0.5143    16.0162 </r>
       <r>     1.1767    -0.1755    16.0036 </r>
       <r>     1.2484    -0.0420    16.0006 </r>
       <r>     1.3202    -0.0074    16.0001 </r>
       <r>     1.3920    -0.0010    16.0000 </r>
       <r>     1.4638    -0.0001    16.0000 </r>
       <r>     1.5356    -0.0000    16.0000 </r>
       <r>     1.6073    -0.0000    16.0000 </r>
       <r>     1.6791    -0.0000    16.0000 </r>
       <r>     1.7509    -0.0000    16.0000 </r>
       <r>     1.8227    -0.0000    16.0000 </r>
       <r>     1.8944    -0.0000    16.0000 </r>
       <r>     1.9662    -0.0000    16.0000 </r>
       <r>     2.0380     0.0000    16.0000 </r>
       <r>     2.1098     0.0000    16.0000 </r>
       <r>     2.1815     0.0000    16.0000 </r>
       <r>     2.2533     0.0000    16.0000 </r>
       <r>     2.3251     0.0000    16.0000 </r>
       <r>     2.3969     0.0000    16.0000 </r>
       <r>     2.4686     0.0000    16.0000 </r>
       <r>     2.5404     0.0000    16.0000 </r>
       <r>     2.6122     0.0000    16.0000 </r>
       <r>     2.6840     0.0000    16.0000 </r>
      </set>
     </set>
    </array>
   </total>
  </dos>
  <time name="totalsc">   62.37   62.53</time>
 </calculation>
 <calculation>
  <scstep>
   <time name="dav">    1.96    1.96</time>
   <time name="total">    3.91    3.92</time>
   <energy>
    <i name="alphaZ">      0.22866583 </i>
    <i name="ewald">    131.14476248 </i>
    <i name="hartreedc">   -286.85002453 </i>
    <i name="XCdc">     24.74179050 </i>
    <i name="pawpsdc">    463.83346268 </i>
    <i name="pawaedc">   -464.62226800 </i>
    <i name="eentropy">      0.02533320 </i>
    <i name="bandstr">    -89.54375764 </i>
    <i name="atom">    197.04175453 </i>
    <i name="e_fr_energy">    -24.00028094 </i>
    <i name="e_wo_entrp">    -24.02561414 </i>
    <i name="e_0_energy">    -24.00872534 </i>
   </energy>
  </scstep>
  <scstep>
   <time name="diag">    0.43    0.43</time>
   <time name="diis">    1.37    1.38</time>
   <time name="orth">    0.01    0.01</time>
   <time name="total">    3.61    3.61</time>
   <energy>
    <i name="e_fr_energy">    -24.00400804 </i>
    <i name="e_wo_entrp">    -24.03028664 </i>
    <i name="e_0_energy">    -24.01276757 </i>
   </energy>
  </scstep>
  <scstep>
   <time name="diag">    0.42    0.42</time>
   <time name="diis">    1.36    1.37</time>
   <time name="orth">    0.01    0.01</time>
   <time name="total">    3.58    3.59</time>
   <energy>
    <i name="e_fr_energy">    -24.00891066 </i>
    <i name="e_wo_entrp">    -24.03500128 </i>
    <i name="e_0_energy">    -24.01760753 </i>
   </energy>
  </scstep>
  <scstep>
   <time name="diag">    0.42    0.42</time>
   <time name="diis">    1.38    1.39</time>
   <time name="orth">    0.01    0.01</time>
   <time name="total">    3.64    3.65</time>
   <energy>
    <i name="e_fr_energy">    -24.00357906 </i>
    <i name="e_wo_entrp">    -24.02828920 </i>
    <i name="e_0_energy">    -24.01181577 </i>
   </energy>
  </scstep>
  <scstep>
   <time name="diag">    0.43    0.43</time>
   <time name="diis">    1.36    1.37</time>
   <time name="orth">    0.01    0.01</time>
   <time name="total">    3.63    3.63</time>
   <energy>
    <i name="e_fr_energy">    -24.00165056 </i>
    <i name="e_wo_entrp">    -24.02685875 </i>
    <i name="e_0_energy">    -24.01005329 </i>
   </energy>
  </scstep>
  <scstep>
   <time name="diag">    0.39    0.39</time>
   <time name="diis">    1.34    1.34</time>
   <time name="orth">    0.01    0.01</time>
   <time name="total">    3.56    3.57</time>
   <energy>
    <i name="e_fr_energy">    -24.00079259 </i>
    <i name="e_wo_entrp">    -24.02605864 </i>
    <i name="e_0_energy">    -24.00921460 </i>
   </energy>
  </scstep>
  <scstep>
   <time name="diag">    0.39    0.39</time>
   <time name="diis">    1.37    1.37</time>
   <time name="orth">    0.01    0.01</time>
   <time name="total">    3.60    3.60</time>
   <energy>
    <i name="e_fr_energy">    -24.00090922 </i>
    <i name="e_wo_entrp">    -24.02617378 </i>
    <i name="e_0_energy">    -24.00933074 </i>
   </energy>
  </scstep>
  <scstep>
   <time name="diag">    0.42    0.42</time>
   <time name="diis">    1.43    1.43</time>
   <time name="orth">    0.01    0.01</time>
   <time name="total">    3.73    3.74</time>
   <energy>
    <i name="e_fr_energy">    -24.00098072 </i>
    <i name="e_wo_entrp">    -24.02622547 </i>
    <i name="e_0_energy">    -24.00939564 </i>
   </energy>
  </scstep>
  <scstep>
   <time name="diag">    0.43    0.43</time>
   <time name="diis">    1.47    1.47</time>
   <time name="orth">    0.01    0.01</time>
   <time name="total">    3.79    3.80</time>
   <energy>
    <i name="e_fr_energy">    -24.00100400 </i>
    <i name="e_wo_entrp">    -24.02629760 </i>
    <i name="e_0_energy">    -24.00943520 </i>
   </energy>
  </scstep>
  <scstep>
   <time name="diag">    0.42    0.42</time>
   <time name="diis">    1.46    1.46</time>
   <time name="orth">    0.01    0.01</time>
   <time name="total">    3.78    3.78</time>
   <energy>
    <i name="e_fr_energy">    -24.00104124 </i>
    <i name="e_wo_entrp">    -24.02632775 </i>
    <i name="e_0_energy">    -24.00947007 </i>
   </energy>
  </scstep>
  <scstep>
   <time name="diag">    0.42    0.42</time>
   <time name="diis">    1.31    1.31</time>
   <time name="orth">    0.01    0.01</time>
   <time name="total">    3.63    3.63</time>
   <energy>
    <i name="e_fr_energy">    -24.00104462 </i>
    <i name="e_wo_entrp">    -24.02633372 </i>
    <i name="e_0_energy">    -24.00947432 </i>
   </energy>
  </scstep>
  <scstep>
   <time name="diag">    0.41    0.41</time>
   <time name="diis">    1.31    1.31</time>
   <time name="orth">    0.01    0.01</time>
   <time name="total">    3.64    3.65</time>
   <energy>
    <i name="e_fr_energy">    -24.00105625 </i>
    <i name="e_wo_entrp">    -24.02634319 </i>
    <i name="e_0_energy">    -24.00948523 </i>
   </energy>
  </scstep>
  <scstep>
   <time name="diag">    0.40    0.40</time>
   <time name="diis">    1.09    1.10</time>
   <time name="orth">    0.01    0.01</time>
   <time name="total">    3.42    3.43</time>
   <energy>
    <i name="e_fr_energy">    -24.00105758 </i>
    <i name="e_wo_entrp">    -24.02634175 </i>
    <i name="e_0_energy">    -24.00948564 </i>
   </energy>
  </scstep>
  <scstep>
   <time name="diag">    0.42    0.42</time>
   <time name="diis">    1.31    1.31</time>
   <time name="orth">    0.01    0.01</time>
   <time name="total">    3.71    3.72</time>
   <energy>
    <i name="e_fr_energy">    -24.00105967 </i>
    <i name="e_wo_entrp">    -24.02634023 </i>
    <i name="e_0_energy">    -24.00948652 </i>
   </energy>
  </scstep>
  <scstep>
   <time name="diag">    0.42    0.42</time>
   <time name="diis">    1.09    1.10</time>
   <time name="orth">    0.01    0.01</time>
   <time name="total">    3.22    3.23</time>
   <energy>
    <i name="alphaZ">      0.22866583 </i>
    <i name="ewald">    131.14476248 </i>
    <i name="hartreedc">   -286.84250930 </i>
    <i name="XCdc">     24.74126887 </i>
    <i name="pawpsdc">    449.13157471 </i>
    <i name="pawaedc">   -449.92030177 </i>
    <i name="eentropy">      0.02528067 </i>
    <i name="bandstr">    -89.55155653 </i>
    <i name="atom">    197.04175453 </i>
    <i name="e_fr_energy">    -24.00106049 </i>
    <i name="e_wo_entrp">    -24.02634117 </i>
    <i name="e_0_energy">    -24.00948739 </i>
   </energy>
  </scstep>
  <structure>
   <crystal>
    <varray name="basis" >
     <v>      10.22070729       0.00000000       0.00000000 </v>
     <v>       0.24083170      10.08793709       0.00000000 </v>
     <v>       0.08167838       0.05445829      10.27497122 </v>
    </varray>
    <i name="volume">   1059.40966382 </i>
    <varray name="rec_basis" >
     <v>       0.09784059      -0.00233577      -0.00076538 </v>
     <v>       0.00000000       0.09912829      -0.00052539 </v>
     <v>       0.00000000       0.00000000       0.09732387 </v>
    </varray>
   </crystal>
   <varray name="positions" >
    <v>       0.53807550       0.40679695       0.35980498 </v>
    <v>       0.39793149       0.47939868       0.44541604 </v>
    <v>       0.54939886       0.56313357       0.44219196 </v>
    <v>       0.52659937       0.41675218       0.53746561 </v>
    <v>       0.50343876       0.46748533       0.44499171 </v>
   </varray>
  </structure>
  <varray name="forces" >
   <v>      -0.37614202       0.16511254       0.53691649 </v>
   <v>      -0.10960240       0.17783140      -0.51833378 </v>
   <v>       0.17483769       0.91616676       0.14911697 </v>
   <v>       0.50343453      -0.10106593       0.16831280 </v>
   <v>      -0.52623063       0.61075711      -1.21098039 </v>
  </varray>
  <varray name="stress" >
   <v>      -0.69211896       0.00834121       0.89474280 </v>
   <v>       0.00834121      -0.16977106      -0.46269261 </v>
   <v>       0.89474281      -0.46269261      -1.22353975 </v>
  </varray>
  <energy>
   <i name="e_fr_energy">    -24.00106049 </i>
   <i name="e_wo_entrp">    -24.00948739 </i>
   <i name="e_0_energy">      0.02528067 </i>
   <i name="kinetic">      0.02731912 </i>
   <i name="lattice kinetic">      0.00000000 </i>
   <i name="nosepot">     -0.00009171 </i>
   <i name="nosekinetic">      0.00000074 </i>
   <i name="total">    -23.97383235 </i>
  </energy>
  <dos>
   <i name="efermi">     -9.01561376 </i>
   <total>
    <array>
     <dimension dim="1">gridpoints</dimension>
     <dimension dim="2">spin</dimension>
     <field>energy</field>
     <field>total</field>
     <field>integrated</field>
     <set>
      <set comment="spin 1">
       <r>   -18.9058     0.0000     0.0000 </r>
       <r>   -18.8338     0.0000     0.0000 </r>
       <r>   -18.7618     0.0000     0.0000 </r>
       <r>   -18.6898     0.0000     0.0000 </r>
       <r>   -18.6179     0.0000     0.0000 </r>
       <r>   -18.5459    -0.0000    -0.0000 </r>
       <r>   -18.4739    -0.0000    -0.0000 </r>
       <r>   -18.4020    -0.0000    -0.0000 </r>
       <r>   -18.3300    -0.0000    -0.0000 </r>
       <r>   -18.2580    -0.0000    -0.0000 </r>
       <r>   -18.1861    -0.0000    -0.0000 </r>
       <r>   -18.1141    -0.0000    -0.0000 </r>
       <r>   -18.0421    -0.0000    -0.0000 </r>
       <r>   -17.9702    -0.0000    -0.0000 </r>
       <r>   -17.8982    -0.0000    -0.0000 </r>
       <r>   -17.8262    -0.0000    -0.0000 </r>
       <r>   -17.7542    -0.0000    -0.0000 </r>
       <r>   -17.6823    -0.0000    -0.0000 </r>
       <r>   -17.6103    -0.0001    -0.0000 </r>
       <r>   -17.5383    -0.0009    -0.0001 </r>
       <r>   -17.4664    -0.0065    -0.0005 </r>
       <r>   -17.3944    -0.0338    -0.0030 </r>
       <r>   -17.3224    -0.1268    -0.0121 </r>
       <r>   -17.2505    -0.3191    -0.0351 </r>
       <r>   -17.1785    -0.4302    -0.0660 </r>
       <r>   -17.1065     0.2082    -0.0510 </r>
       <r>   -17.0345     2.4106     0.1224 </r>
       <r>   -16.9626     5.8009     0.5399 </r>
       <r>   -16.8906     8.1674     1.1277 </r>
       <r>   -16.8186     7.4701     1.6654 </r>
       <r>   -16.7467     4.3402     1.9777 </r>
       <r>   -16.6747     1.2721     2.0693 </r>
       <r>   -16.6027    -0.2131     2.0539 </r>
       <r>   -16.5308    -0.4238     2.0234 </r>
       <r>   -16.4588    -0.2289     2.0070 </r>
       <r>   -16.3868    -0.0760     2.0015 </r>
       <r>   -16.3148    -0.0175     2.0002 </r>
       <r>   -16.2429    -0.0029     2.0000 </r>
       <r>   -16.1709    -0.0004     2.0000 </r>
       <r>   -16.0989    -0.0000     2.0000 </r>
       <r>   -16.0270    -0.0000     2.0000 </r>
       <r>   -15.9550    -0.0000     2.0000 </r>
       <r>   -15.8830    -0.0000     2.0000 </r>
       <r>   -15.8111    -0.0000     2.0000 </r>
       <r>   -15.7391    -0.0000     2.0000 </r>
       <r>   -15.6671    -0.0000     2.0000 </r>
       <r>   -15.5951     0.0000     2.0000 </r>
       <r>   -15.5232     0.0000     2.0000 </r>
       <r>   -15.4512     0.0000     2.0000 </r>
       <r>   -15.3792     0.0000     2.0000 </r>
       <r>   -15.3073     0.0000     2.0000 </r>
       <r>   -15.2353     0.0000     2.0000 </r>
       <r>   -15.1633     0.0000     2.0000 </r>
       <r>   -15.0914     0.0000     2.0000 </r>
       <r>   -15.0194     0.0000     2.0000 </r>
       <r>   -14.9474     0.0000     2.0000 </r>
       <r>   -14.8754     0.0000     2.0000 </r>
       <r>   -14.8035     0.0000     2.0000 </r>
       <r>   -14.7315     0.0000     2.0000 </r>
       <r>   -14.6595     0.0000     2.0000 </r>
       <r>   -14.5876     0.0000     2.0000 </r>
       <r>   -14.5156     0.0000     2.0000 </r>
       <r>   -14.4436     0.0000     2.0000 </r>
       <r>   -14.3717     0.0000     2.0000 </r>
       <r>   -14.2997     0.0000     2.0000 </r>
       <r>   -14.2277     0.0000     2.0000 </r>
       <r>   -14.1558     0.0000     2.0000 </r>
       <r>   -14.0838     0.0000     2.0000 </r>
       <r>   -14.0118     0.0000     2.0000 </r>
       <r>   -13.9398     0.0000     2.0000 </r>
       <r>   -13.8679     0.0000     2.0000 </r>
       <r>   -13.7959     0.0000     2.0000 </r>
       <r>   -13.7239     0.0000     2.0000 </r>
       <r>   -13.6520     0.0000     2.0000 </r>
       <r>   -13.5800     0.0000     2.0000 </r>
       <r>   -13.5080     0.0000     2.0000 </r>
       <r>   -13.4361     0.0000     2.0000 </r>
       <r>   -13.3641     0.0000     2.0000 </r>
       <r>   -13.2921     0.0000     2.0000 </r>
       <r>   -13.2201     0.0000     2.0000 </r>
       <r>   -13.1482     0.0000     2.0000 </r>
       <r>   -13.0762     0.0000     2.0000 </r>
       <r>   -13.0042     0.0000     2.0000 </r>
[...]
       <r>     0.2398    -0.7049     9.9185 </r>
       <r>     0.3117    -0.6861     9.8691 </r>
       <r>     0.3837     0.8529     9.9305 </r>
       <r>     0.4556     5.2387    10.3074 </r>
       <r>     0.5275    12.2527    11.1889 </r>
       <r>     0.5995    18.9852    12.5547 </r>
       <r>     0.6714    21.2048    14.0802 </r>
       <r>     0.7434    17.0471    15.3066 </r>
       <r>     0.8153     9.2471    15.9719 </r>
       <r>     0.8872     2.5935    16.1585 </r>
       <r>     0.9592    -0.5064    16.1220 </r>
       <r>     1.0311    -0.9431    16.0542 </r>
       <r>     1.1031    -0.5213    16.0167 </r>
       <r>     1.1750    -0.1796    16.0037 </r>
       <r>     1.2470    -0.0434    16.0006 </r>
       <r>     1.3189    -0.0076    16.0001 </r>
       <r>     1.3908    -0.0010    16.0000 </r>
       <r>     1.4628    -0.0001    16.0000 </r>
       <r>     1.5347    -0.0000    16.0000 </r>
       <r>     1.6067    -0.0000    16.0000 </r>
       <r>     1.6786    -0.0000    16.0000 </r>
       <r>     1.7506    -0.0000    16.0000 </r>
       <r>     1.8225    -0.0000    16.0000 </r>
       <r>     1.8944    -0.0000    16.0000 </r>
       <r>     1.9664    -0.0000    16.0000 </r>
       <r>     2.0383     0.0000    16.0000 </r>
       <r>     2.1103     0.0000    16.0000 </r>
       <r>     2.1822     0.0000    16.0000 </r>
       <r>     2.2541     0.0000    16.0000 </r>
       <r>     2.3261     0.0000    16.0000 </r>
       <r>     2.3980     0.0000    16.0000 </r>
       <r>     2.4700     0.0000    16.0000 </r>
       <r>     2.5419     0.0000    16.0000 </r>
       <r>     2.6139     0.0000    16.0000 </r>
       <r>     2.6858     0.0000    16.0000 </r>
      </set>
     </set>
    </array>
   </total>
  </dos>
  <time name="totalsc">   54.09   54.23</time>
  <eigenvalues>
   <array>
    <dimension dim="1">band</dimension>
    <dimension dim="2">kpoint</dimension>
    <dimension dim="3">spin</dimension>
    <field>eigene</field>
    <field>occ</field>
    <set>
     <set comment="spin 1">
      <set comment="kpoint 1">
       <r>  -16.8490    1.0000 </r>
       <r>   -9.6307    1.0000 </r>
       <r>   -9.1598    1.0054 </r>
       <r>   -8.9004    0.9946 </r>
       <r>   -0.3198    0.0000 </r>
       <r>    0.5267    0.0000 </r>
       <r>    0.6725    0.0000 </r>
       <r>    0.6975    0.0000 </r>
      </set>
      <set comment="kpoint 2">
       <r>  -16.8490    1.0000 </r>
       <r>   -9.6309    1.0000 </r>
       <r>   -9.1597    1.0054 </r>
       <r>   -8.9004    0.9947 </r>
       <r>   -0.3149    0.0000 </r>
       <r>    0.5370    0.0000 </r>
       <r>    0.6294    0.0000 </r>
       <r>    0.6816    0.0000 </r>
      </set>
      <set comment="kpoint 3">
       <r>  -16.8490    1.0000 </r>
       <r>   -9.6308    1.0000 </r>
       <r>   -9.1598    1.0054 </r>
       <r>   -8.9003    0.9945 </r>
       <r>   -0.3153    0.0000 </r>
       <r>    0.5319    0.0000 </r>
       <r>    0.6393    0.0000 </r>
       <r>    0.6806    0.0000 </r>
      </set>
      <set comment="kpoint 4">
       <r>  -16.8490    1.0000 </r>
       <r>   -9.6308    1.0000 </r>
       <r>   -9.1597    1.0054 </r>
       <r>   -8.9004    0.9946 </r>
       <r>   -0.3180    0.0000 </r>
       <r>    0.5444    0.0000 </r>
       <r>    0.6374    0.0000 </r>
       <r>    0.6901    0.0000 </r>
      </set>
     </set>
    </set>
   </array>
  </eigenvalues>
  <separator name="orbital magnetization" >
   <v name="MAGDIPOLOUT">      0.00000000      0.00000000      0.00000000</v>
  </separator>
  <dos>
   <i name="efermi">     -8.73671270 </i>
   <total>
    <array>
     <dimension dim="1">gridpoints</dimension>
     <dimension dim="2">spin</dimension>
     <field>energy</field>
     <field>total</field>
     <field>integrated</field>
     <set>
      <set comment="spin 1">
       <r>   -18.8490     0.0000     0.0000 </r>
       <r>   -18.7772     0.0000     0.0000 </r>
       <r>   -18.7054     0.0000     0.0000 </r>
       <r>   -18.6336     0.0000     0.0000 </r>
       <r>   -18.5617     0.0000     0.0000 </r>
       <r>   -18.4899    -0.0000    -0.0000 </r>
       <r>   -18.4181    -0.0000    -0.0000 </r>
       <r>   -18.3463    -0.0000    -0.0000 </r>
       <r>   -18.2745    -0.0000    -0.0000 </r>
       <r>   -18.2026    -0.0000    -0.0000 </r>
       <r>   -18.1308    -0.0000    -0.0000 </r>
       <r>   -18.0590    -0.0000    -0.0000 </r>
       <r>   -17.9872    -0.0000    -0.0000 </r>
       <r>   -17.9154    -0.0000    -0.0000 </r>
       <r>   -17.8435    -0.0000    -0.0000 </r>
       <r>   -17.7717    -0.0000    -0.0000 </r>
       <r>   -17.6999    -0.0000    -0.0000 </r>
       <r>   -17.6281    -0.0000    -0.0000 </r>
       <r>   -17.5562    -0.0001    -0.0000 </r>
       <r>   -17.4844    -0.0008    -0.0001 </r>
       <r>   -17.4126    -0.0060    -0.0005 </r>
       <r>   -17.3408    -0.0317    -0.0028 </r>
       <r>   -17.2690    -0.1205    -0.0114 </r>
       <r>   -17.1971    -0.3090    -0.0336 </r>
       <r>   -17.1253    -0.4348    -0.0649 </r>
       <r>   -17.0535     0.1429    -0.0546 </r>
       <r>   -16.9817     2.2529     0.1072 </r>
       <r>   -16.9098     5.6170     0.5106 </r>
       <r>   -16.8380     8.1062     1.0928 </r>
       <r>   -16.7662     7.5992     1.6386 </r>
       <r>   -16.6944     4.5542     1.9657 </r>
       <r>   -16.6226     1.4232     2.0679 </r>
       <r>   -16.5507    -0.1652     2.0561 </r>
       <r>   -16.4789    -0.4307     2.0251 </r>
       <r>   -16.4071    -0.2432     2.0077 </r>
       <r>   -16.3353    -0.0832     2.0017 </r>
       <r>   -16.2635    -0.0197     2.0003 </r>
       <r>   -16.1916    -0.0034     2.0000 </r>
       <r>   -16.1198    -0.0004     2.0000 </r>
       <r>   -16.0480    -0.0000     2.0000 </r>
       <r>   -15.9762    -0.0000     2.0000 </r>
       <r>   -15.9043    -0.0000     2.0000 </r>
       <r>   -15.8325    -0.0000     2.0000 </r>
       <r>   -15.7607    -0.0000     2.0000 </r>
       <r>   -15.6889    -0.0000     2.0000 </r>
       <r>   -15.6171    -0.0000     2.0000 </r>
       <r>   -15.5452     0.0000     2.0000 </r>
       <r>   -15.4734     0.0000     2.0000 </r>
       <r>   -15.4016     0.0000     2.0000 </r>
       <r>   -15.3298     0.0000     2.0000 </r>
       <r>   -15.2579     0.0000     2.0000 </r>
       <r>   -15.1861     0.0000     2.0000 </r>
       <r>   -15.1143     0.0000     2.0000 </r>
       <r>   -15.0425     0.0000     2.0000 </r>
       <r>   -14.9707     0.0000     2.0000 </r>
       <r>   -14.8988     0.0000     2.0000 </r>
       <r>   -14.8270     0.0000     2.0000 </r>
       <r>   -14.7552     0.0000     2.0000 </r>
       <r>   -14.6834     0.0000     2.0000 </r>
       <r>   -14.6116     0.0000     2.0000 </r>
       <r>   -14.5397     0.0000     2.0000 </r>
       <r>   -14.4679     0.0000     2.0000 </r>
       <r>   -14.3961     0.0000     2.0000 </r>
       <r>   -14.3243     0.0000     2.0000 </r>
       <r>   -14.2524     0.0000     2.0000 </r>
       <r>   -14.1806     0.0000     2.0000 </r>
       <r>   -14.1088     0.0000     2.0000 </r>
       <r>   -14.0370     0.0000     2.0000 </r>
       <r>   -13.9652     0.0000     2.0000 </r>
       <r>   -13.8933     0.0000     2.0000 </r>
       <r>   -13.8215     0.0000     2.0000 </r>
       <r>   -13.7497     0.0000     2.0000 </r>
       <r>   -13.6779     0.0000     2.0000 </r>
       <r>   -13.6061     0.0000     2.0000 </r>
       <r>   -13.5342     0.0000     2.0000 </r>
       <r>   -13.4624     0.0000     2.0000 </r>
       <r>   -13.3906     0.0000     2.0000 </r>
       <r>   -13.3188     0.0000     2.0000 </r>
       <r>   -13.2469     0.0000     2.0000 </r>
       <r>   -13.1751     0.0000     2.0000 </r>
       <r>   -13.1033     0.0000     2.0000 </r>
       <r>   -13.0315     0.0000     2.0000 </r>
       <r>   -12.9597     0.0000     2.0000 </r>
       <r>   -12.8878     0.0000     2.0000 </r>
       <r>   -12.8160     0.0000     2.0000 </r>
       <r>   -12.7442     0.0000     2.0000 </r>
       <r>   -12.6724     0.0000     2.0000 </r>
       <r>   -12.6005     0.0000     2.0000 </r>
       <r>   -12.5287     0.0000     2.0000 </r>
       <r>   -12.4569     0.0000     2.0000 </r>
       <r>   -12.3851     0.0000     2.0000 </r>
       <r>   -12.3133     0.0000     2.0000 </r>
       <r>   -12.2414     0.0000     2.0000 </r>
       <r>   -12.1696     0.0000     2.0000 </r>
       <r>   -12.0978     0.0000     2.0000 </r>
       <r>   -12.0260     0.0000     2.0000 </r>
       <r>   -11.9542     0.0000     2.0000 </r>
       <r>   -11.8823     0.0000     2.0000 </r>
       <r>   -11.8105     0.0000     2.0000 </r>
       <r>   -11.7387     0.0000     2.0000 </r>
       <r>   -11.6669     0.0000     2.0000 </r>
       <r>   -11.5950     0.0000     2.0000 </r>
       <r>   -11.5232     0.0000     2.0000 </r>
       <r>   -11.4514     0.0000     2.0000 </r>
       <r>   -11.3796     0.0000     2.0000 </r>
       <r>   -11.3078     0.0000     2.0000 </r>
       <r>   -11.2359    -0.0000     2.0000 </r>
       <r>   -11.1641    -0.0000     2.0000 </r>
       <r>   -11.0923    -0.0000     2.0000 </r>
       <r>   -11.0205    -0.0000     2.0000 </r>
       <r>   -10.9486    -0.0000     2.0000 </r>
       <r>   -10.8768    -0.0000     2.0000 </r>
       <r>   -10.8050    -0.0000     2.0000 </r>
       <r>   -10.7332    -0.0000     2.0000 </r>
       <r>   -10.6614    -0.0000     2.0000 </r>
       <r>   -10.5895    -0.0000     2.0000 </r>
       <r>   -10.5177    -0.0000     2.0000 </r>
       <r>   -10.4459    -0.0000     2.0000 </r>
       <r>   -10.3741    -0.0000     2.0000 </r>
       <r>   -10.3023    -0.0003     2.0000 </r>
       <r>   -10.2304    -0.0023     1.9998 </r>
       <r>   -10.1586    -0.0143     1.9988 </r>
       <r>   -10.0868    -0.0645     1.9942 </r>
       <r>   -10.0150    -0.2037     1.9795 </r>
       <r>    -9.9431    -0.4066     1.9503 </r>
       <r>    -9.8713    -0.2936     1.9292 </r>
       <r>    -9.7995     0.9747     1.9992 </r>
       <r>    -9.7277     3.8641     2.2768 </r>
       <r>    -9.6559     7.1082     2.7873 </r>
       <r>    -9.5840     8.1611     3.3734 </r>
       <r>    -9.5122     5.9625     3.8017 </r>
       <r>    -9.4404     2.4078     3.9746 </r>
       <r>    -9.3686     0.4383     4.0061 </r>
       <r>    -9.2967     1.5000     4.1138 </r>
       <r>    -9.2249     4.6839     4.4502 </r>
       <r>    -9.1531     7.5112     4.9897 </r>
       <r>    -9.0813     8.3207     5.5873 </r>
       <r>    -9.0095     8.0473     6.1653 </r>
       <r>    -8.9376     8.2378     6.7569 </r>
       <r>    -8.8658     8.1969     7.3456 </r>
       <r>    -8.7940     6.3392     7.8009 </r>
       <r>    -8.7222     3.1608     8.0279 </r>
       <r>    -8.6504     0.6218     8.0726 </r>
       <r>    -8.5785    -0.3760     8.0456 </r>
       <r>    -8.5067    -0.3880     8.0177 </r>
       <r>    -8.4349    -0.1795     8.0048 </r>
       <r>    -8.3631    -0.0539     8.0010 </r>
       <r>    -8.2912    -0.0115     8.0001 </r>
       <r>    -8.2194    -0.0018     8.0000 </r>
       <r>    -8.1476    -0.0002     8.0000 </r>
       <r>    -8.0758    -0.0000     8.0000 </r>
       <r>    -8.0040    -0.0000     8.0000 </r>
       <r>    -7.9321    -0.0000     8.0000 </r>
       <r>    -7.8603    -0.0000     8.0000 </r>
       <r>    -7.7885    -0.0000     8.0000 </r>
       <r>    -7.7167    -0.0000     8.0000 </r>
       <r>    -7.6448    -0.0000     8.0000 </r>
       <r>    -7.5730     0.0000     8.0000 </r>
       <r>    -7.5012     0.0000     8.0000 </r>
       <r>    -7.4294     0.0000     8.0000 </r>
       <r>    -7.3576     0.0000     8.0000 </r>
       <r>    -7.2857     0.0000     8.0000 </r>
       <r>    -7.2139     0.0000     8.0000 </r>
       <r>    -7.1421     0.0000     8.0000 </r>
       <r>    -7.0703     0.0000     8.0000 </r>
       <r>    -6.9985     0.0000     8.0000 </r>
       <r>    -6.9266     0.0000     8.0000 </r>
       <r>    -6.8548     0.0000     8.0000 </r>
       <r>    -6.7830     0.0000     8.0000 </r>
       <r>    -6.7112     0.0000     8.0000 </r>
       <r>    -6.6393     0.0000     8.0000 </r>
       <r>    -6.5675     0.0000     8.0000 </r>
       <r>    -6.4957     0.0000     8.0000 </r>
       <r>    -6.4239     0.0000     8.0000 </r>
       <r>    -6.3521     0.0000     8.0000 </r>
       <r>    -6.2802     0.0000     8.0000 </r>
       <r>    -6.2084     0.0000     8.0000 </r>
       <r>    -6.1366     0.0000     8.0000 </r>
       <r>    -6.0648     0.0000     8.0000 </r>
       <r>    -5.9930     0.0000     8.0000 </r>
       <r>    -5.9211     0.0000     8.0000 </r>
       <r>    -5.8493     0.0000     8.0000 </r>
       <r>    -5.7775     0.0000     8.0000 </r>
       <r>    -5.7057     0.0000     8.0000 </r>
       <r>    -5.6338     0.0000     8.0000 </r>
       <r>    -5.5620     0.0000     8.0000 </r>
       <r>    -5.4902     0.0000     8.0000 </r>
       <r>    -5.4184     0.0000     8.0000 </r>
       <r>    -5.3466     0.0000     8.0000 </r>
       <r>    -5.2747     0.0000     8.0000 </r>
       <r>    -5.2029     0.0000     8.0000 </r>
       <r>    -5.1311     0.0000     8.0000 </r>
       <r>    -5.0593     0.0000     8.0000 </r>
       <r>    -4.9874     0.0000     8.0000 </r>
       <r>    -4.9156     0.0000     8.0000 </r>
       <r>    -4.8438     0.0000     8.0000 </r>
       <r>    -4.7720     0.0000     8.0000 </r>
       <r>    -4.7002     0.0000     8.0000 </r>
       <r>    -4.6283     0.0000     8.0000 </r>
       <r>    -4.5565     0.0000     8.0000 </r>
       <r>    -4.4847     0.0000     8.0000 </r>
       <r>    -4.4129     0.0000     8.0000 </r>
       <r>    -4.3411     0.0000     8.0000 </r>
       <r>    -4.2692     0.0000     8.0000 </r>
       <r>    -4.1974     0.0000     8.0000 </r>
       <r>    -4.1256     0.0000     8.0000 </r>
       <r>    -4.0538     0.0000     8.0000 </r>
       <r>    -3.9819     0.0000     8.0000 </r>
       <r>    -3.9101     0.0000     8.0000 </r>
       <r>    -3.8383     0.0000     8.0000 </r>
       <r>    -3.7665     0.0000     8.0000 </r>
       <r>    -3.6947     0.0000     8.0000 </r>
       <r>    -3.6228     0.0000     8.0000 </r>
       <r>    -3.5510     0.0000     8.0000 </r>
       <r>    -3.4792     0.0000     8.0000 </r>
       <r>    -3.4074     0.0000     8.0000 </r>
       <r>    -3.3355     0.0000     8.0000 </r>
       <r>    -3.2637     0.0000     8.0000 </r>
       <r>    -3.1919     0.0000     8.0000 </r>
       <r>    -3.1201     0.0000     8.0000 </r>
       <r>    -3.0483     0.0000     8.0000 </r>
       <r>    -2.9764     0.0000     8.0000 </r>
       <r>    -2.9046     0.0000     8.0000 </r>
       <r>    -2.8328     0.0000     8.0000 </r>
       <r>    -2.7610     0.0000     8.0000 </r>
       <r>    -2.6892     0.0000     8.0000 </r>
       <r>    -2.6173     0.0000     8.0000 </r>
       <r>    -2.5455     0.0000     8.0000 </r>
       <r>    -2.4737     0.0000     8.0000 </r>
       <r>    -2.4019     0.0000     8.0000 </r>
       <r>    -2.3300     0.0000     8.0000 </r>
       <r>    -2.2582     0.0000     8.0000 </r>
       <r>    -2.1864     0.0000     8.0000 </r>
       <r>    -2.1146     0.0000     8.0000 </r>
       <r>    -2.0428     0.0000     8.0000 </r>
       <r>    -1.9709    -0.0000     8.0000 </r>
       <r>    -1.8991    -0.0000     8.0000 </r>
       <r>    -1.8273    -0.0000     8.0000 </r>
       <r>    -1.7555    -0.0000     8.0000 </r>
       <r>    -1.6836    -0.0000     8.0000 </r>
       <r>    -1.6118    -0.0000     8.0000 </r>
       <r>    -1.5400    -0.0000     8.0000 </r>
       <r>    -1.4682    -0.0000     8.0000 </r>
       <r>    -1.3964    -0.0000     8.0000 </r>
       <r>    -1.3245    -0.0000     8.0000 </r>
       <r>    -1.2527    -0.0000     8.0000 </r>
       <r>    -1.1809    -0.0000     8.0000 </r>
       <r>    -1.1091    -0.0000     8.0000 </r>
       <r>    -1.0373    -0.0001     8.0000 </r>
       <r>    -0.9654    -0.0006     8.0000 </r>
       <r>    -0.8936    -0.0043     7.9996 </r>
       <r>    -0.8218    -0.0240     7.9979 </r>
       <r>    -0.7500    -0.0972     7.9909 </r>
       <r>    -0.6781    -0.2697     7.9716 </r>
       <r>    -0.6063    -0.4381     7.9401 </r>
       <r>    -0.5345    -0.0562     7.9361 </r>
       <r>    -0.4627     1.7434     8.0613 </r>
       <r>    -0.3909     4.9912     8.4198 </r>
       <r>    -0.3190     7.8385     8.9827 </r>
       <r>    -0.2472     7.9330     9.5525 </r>
       <r>    -0.1754     5.1890     9.9252 </r>
       <r>    -0.1036     1.8968    10.0614 </r>
       <r>    -0.0317    -0.0051    10.0610 </r>
       <r>     0.0401    -0.4717    10.0272 </r>
       <r>     0.1119    -0.4149     9.9974 </r>
       <r>     0.1837    -0.4893     9.9622 </r>
       <r>     0.2555    -0.7539     9.9081 </r>
       <r>     0.3274    -0.5724     9.8670 </r>
       <r>     0.3992     1.3926     9.9670 </r>
       <r>     0.4710     6.3088    10.4201 </r>
       <r>     0.5428    13.4818    11.3884 </r>
       <r>     0.6146    19.6232    12.7978 </r>
       <r>     0.6865    20.7716    14.2896 </r>
       <r>     0.7583    15.8629    15.4289 </r>
       <r>     0.8301     8.1145    16.0117 </r>
       <r>     0.9019     2.0086    16.1560 </r>
       <r>     0.9738    -0.6226    16.1112 </r>
       <r>     1.0456    -0.8853    16.0477 </r>
       <r>     1.1174    -0.4642    16.0143 </r>
       <r>     1.1892    -0.1554    16.0032 </r>
       <r>     1.2610    -0.0368    16.0005 </r>
       <r>     1.3329    -0.0064    16.0001 </r>
       <r>     1.4047    -0.0008    16.0000 </r>
       <r>     1.4765    -0.0001    16.0000 </r>
       <r>     1.5483    -0.0000    16.0000 </r>
       <r>     1.6201    -0.0000    16.0000 </r>
       <r>     1.6920    -0.0000    16.0000 </r>
       <r>     1.7638    -0.0000    16.0000 </r>
       <r>     1.8356    -0.0000    16.0000 </r>
       <r>     1.9074    -0.0000    16.0000 </r>
       <r>     1.9793    -0.0000    16.0000 </r>
       <r>     2.0511     0.0000    16.0000 </r>
       <r>     2.1229     0.0000    16.0000 </r>
       <r>     2.1947     0.0000    16.0000 </r>
       <r>     2.2665     0.0000    16.0000 </r>
       <r>     2.3384     0.0000    16.0000 </r>
       <r>     2.4102     0.0000    16.0000 </r>
       <r>     2.4820     0.0000    16.0000 </r>
       <r>     2.5538     0.0000    16.0000 </r>
       <r>     2.6257     0.0000    16.0000 </r>
       <r>     2.6975     0.0000    16.0000 </r>
      </set>
     </set>
    </array>
   </total>
  </dos>
 </calculation>
 <structure name="finalpos" >
  <crystal>
   <varray name="basis" >
    <v>      10.22070729       0.00000000       0.00000000 </v>
    <v>       0.24083170      10.08793709       0.00000000 </v>
    <v>       0.08167838       0.05445829      10.27497122 </v>
   </varray>
   <i name="volume">   1059.40966382 </i>
   <varray name="rec_basis" >
    <v>       0.09784059      -0.00233577      -0.00076538 </v>
    <v>       0.00000000       0.09912829      -0.00052539 </v>
    <v>       0.00000000       0.00000000       0.09732387 </v>
   </varray>
  </crystal>
  <varray name="positions" >
   <v>       0.52553812       0.40400827       0.36155801 </v>
   <v>       0.39737630       0.48302332       0.44764185 </v>
   <v>       0.55637598       0.56213808       0.44331506 </v>
   <v>       0.53936130       0.41952274       0.53336978 </v>
   <v>       0.50288540       0.46726794       0.44490795 </v>
  </varray>
  <varray name="velocities" >
   <v>      -0.00096747      -0.00053521      -0.00268499 </v>
   <v>      -0.00140378       0.00080701       0.00023772 </v>
   <v>       0.00157694      -0.00213358       0.00083742 </v>
   <v>      -0.00040330       0.00242942      -0.00396021 </v>
   <v>       0.00009971      -0.00004726       0.00046375 </v>
  </varray>
 </structure>
</modeling>
