unknown system                          
           1
    10.220707    0.000000    0.000000
     0.240832   10.087937    0.000000
     0.081678    0.054458   10.274971
   H    C 
   4   1
Direct configuration=     1
   0.53849615  0.40699992  0.36102966
   0.39492389  0.47999858  0.43833334
   0.55284506  0.56552381  0.44331281
   0.52838924  0.41650890  0.53944096
   0.50321821  0.46723974  0.44522165
Direct configuration=     2
   0.53748960  0.40780046  0.36253717
   0.39604261  0.48032071  0.44204240
   0.55138212  0.56565918  0.44199432
   0.52693178  0.41726743  0.53751180
   0.50345201  0.46707184  0.44505773
Direct configuration=     3
   0.53807550  0.40679695  0.35980498
   0.39793149  0.47939868  0.44541604
   0.54939886  0.56313357  0.44219196
   0.52659937  0.41675218  0.53746561
   0.50343876  0.46748533  0.44499171
Direct configuration=     4
   0.53729741  0.40599102  0.35929573
   0.39949181  0.47874421  0.44704653
   0.54807683  0.56368682  0.44315463
   0.52825877  0.41542365  0.53825666
   0.50334555  0.46767147  0.44475235
Direct configuration=     5
   0.53529691  0.40666089  0.36130172
   0.39927205  0.47910534  0.44930278
   0.54903670  0.56644994  0.44396799
   0.52920009  0.41409641  0.53740848
   0.50337212  0.46746608  0.44440039
Direct configuration=     6
   0.53433994  0.40559638  0.36273313
   0.39818749  0.47962092  0.45192918
   0.54997589  0.56613783  0.44344414
   0.52979448  0.41299919  0.53500595
   0.50341440  0.46762912  0.44430619
Direct configuration=     7
   0.53359145  0.40269216  0.36206180
   0.39977668  0.48039148  0.45280682
   0.54943549  0.56329382  0.44216029
   0.53084220  0.41424238  0.53214669
   0.50330217  0.46794004  0.44463396
Direct configuration=     8
   0.53244125  0.39985321  0.36082921
   0.39969278  0.48151319  0.45169148
   0.55004909  0.56345422  0.44087066
   0.53404590  0.41454556  0.53401825
   0.50308710  0.46804442  0.44478099
Direct configuration=     9
   0.52980616  0.40203426  0.36247178
   0.39938440  0.48172767  0.44897778
   0.55224472  0.56422819  0.44089556
   0.53778937  0.41552502  0.53773474
   0.50283770  0.46769899  0.44455867
Direct configuration=    10
   0.52650559  0.40454348  0.36424300
   0.39878008  0.48221632  0.44740413
   0.55479904  0.56427166  0.44247764
   0.53976460  0.41709331  0.53733000
   0.50278569  0.46731520  0.44444420
