   5   5   0   0
  0.1932126E+03  0.9990581E-09  0.9817939E-09  0.9854430E-09  0.2000000E-14
   50.000000000000000     
  CAR 
 unknown system                          
      2.72800269    -18.96996353  301     -9.13210582      1.00000000
    -18.970  0.0000E+00  0.0000E+00
    -18.898  0.0000E+00  0.0000E+00
    -18.825  0.0000E+00  0.0000E+00
    -18.753  0.0000E+00  0.0000E+00
    -18.681  0.0000E+00  0.0000E+00
    -18.608 -0.4574E-27 -0.3308E-28
    -18.536 -0.1431E-24 -0.1038E-25
    -18.464 -0.3448E-22 -0.2504E-23
    -18.391 -0.6377E-20 -0.4638E-21
    -18.319 -0.9055E-18 -0.6595E-19
    -18.247 -0.9864E-16 -0.7200E-17
    -18.174 -0.8240E-14 -0.6032E-15
    -18.102 -0.5107E-12 -0.3754E-13
    -18.030 -0.2496E-10 -0.1843E-11
    -17.957 -0.9314E-09 -0.6921E-10
    -17.885 -0.2652E-07 -0.1987E-08
    -17.813 -0.5750E-06 -0.4358E-07
    -17.740 -0.9467E-05 -0.7283E-06
    -17.668 -0.1179E-03 -0.9255E-05
    -17.596 -0.1104E-02 -0.8908E-04
    -17.523 -0.7695E-02 -0.6456E-03
    -17.451 -0.3932E-01 -0.3490E-02
    -17.379 -0.1428E+00 -0.1382E-01
    -17.306 -0.3429E+00 -0.3862E-01
    -17.234 -0.4120E+00 -0.6842E-01
    -17.162  0.3823E+00 -0.4076E-01
    -17.089  0.2803E+01  0.1620E+00
    -17.017  0.6228E+01  0.6125E+00
    -16.945  0.8270E+01  0.1211E+01
    -16.872  0.7125E+01  0.1726E+01
    -16.800  0.3831E+01  0.2003E+01
    -16.728  0.9382E+00  0.2071E+01
    -16.656 -0.3060E+00  0.2049E+01
    -16.583 -0.4013E+00  0.2020E+01
    -16.511 -0.1962E+00  0.2006E+01
    -16.439 -0.6062E-01  0.2001E+01
    -16.366 -0.1311E-01  0.2000E+01
    -16.294 -0.2063E-02  0.2000E+01
    -16.222 -0.2409E-03  0.2000E+01
    -16.149 -0.2109E-04  0.2000E+01
    -16.077 -0.1395E-05  0.2000E+01
    -16.005 -0.6995E-07  0.2000E+01
    -15.932 -0.2670E-08  0.2000E+01
    -15.860 -0.7770E-10  0.2000E+01
    -15.788 -0.1727E-11  0.2000E+01
    -15.715 -0.3070E-13  0.2000E+01
    -15.643  0.0000E+00  0.2000E+01
    -15.571  0.0000E+00  0.2000E+01
    -15.498  0.0000E+00  0.2000E+01
    -15.426  0.0000E+00  0.2000E+01
    -15.354  0.0000E+00  0.2000E+01
    -15.281  0.0000E+00  0.2000E+01
    -15.209  0.0000E+00  0.2000E+01
    -15.137  0.0000E+00  0.2000E+01
    -15.064  0.0000E+00  0.2000E+01
    -14.992  0.0000E+00  0.2000E+01
    -14.920  0.0000E+00  0.2000E+01
    -14.847  0.0000E+00  0.2000E+01
    -14.775  0.0000E+00  0.2000E+01
    -14.703  0.0000E+00  0.2000E+01
    -14.630  0.0000E+00  0.2000E+01
    -14.558  0.0000E+00  0.2000E+01
    -14.486  0.0000E+00  0.2000E+01
    -14.413  0.0000E+00  0.2000E+01
    -14.341  0.0000E+00  0.2000E+01
    -14.269  0.0000E+00  0.2000E+01
    -14.196  0.0000E+00  0.2000E+01
    -14.124  0.0000E+00  0.2000E+01
    -14.052  0.0000E+00  0.2000E+01
    -13.979  0.0000E+00  0.2000E+01
    -13.907  0.0000E+00  0.2000E+01
    -13.835  0.0000E+00  0.2000E+01
    -13.762  0.0000E+00  0.2000E+01
    -13.690  0.0000E+00  0.2000E+01
    -13.618  0.0000E+00  0.2000E+01
    -13.545  0.0000E+00  0.2000E+01
    -13.473  0.0000E+00  0.2000E+01
    -13.401  0.0000E+00  0.2000E+01
    -13.328  0.0000E+00  0.2000E+01
    -13.256  0.0000E+00  0.2000E+01
    -13.184  0.0000E+00  0.2000E+01
    -13.112  0.0000E+00  0.2000E+01
    -13.039  0.0000E+00  0.2000E+01
    -12.967  0.0000E+00  0.2000E+01
    -12.895  0.0000E+00  0.2000E+01
    -12.822  0.0000E+00  0.2000E+01
    -12.750  0.0000E+00  0.2000E+01
    -12.678  0.0000E+00  0.2000E+01
    -12.605  0.0000E+00  0.2000E+01
    -12.533  0.0000E+00  0.2000E+01
    -12.461  0.0000E+00  0.2000E+01
    -12.388  0.0000E+00  0.2000E+01
    -12.316  0.0000E+00  0.2000E+01
    -12.244  0.0000E+00  0.2000E+01
    -12.171  0.0000E+00  0.2000E+01
    -12.099  0.0000E+00  0.2000E+01
    -12.027  0.0000E+00  0.2000E+01
    -11.954  0.0000E+00  0.2000E+01
    -11.882  0.0000E+00  0.2000E+01
    -11.810  0.0000E+00  0.2000E+01
    -11.737  0.0000E+00  0.2000E+01
    -11.665  0.0000E+00  0.2000E+01
    -11.593  0.0000E+00  0.2000E+01
    -11.520  0.0000E+00  0.2000E+01
    -11.448  0.0000E+00  0.2000E+01
    -11.376  0.0000E+00  0.2000E+01
    -11.303  0.0000E+00  0.2000E+01
    -11.231  0.0000E+00  0.2000E+01
    -11.159  0.0000E+00  0.2000E+01
    -11.086  0.0000E+00  0.2000E+01
    -11.014 -0.9639E-27  0.2000E+01
    -10.942 -0.2925E-24  0.2000E+01
    -10.869 -0.6820E-22  0.2000E+01
    -10.797 -0.1221E-19  0.2000E+01
    -10.725 -0.1679E-17  0.2000E+01
    -10.652 -0.1773E-15  0.2000E+01
    -10.580 -0.1436E-13  0.2000E+01
    -10.508 -0.8645E-12  0.2000E+01
    -10.435 -0.4098E-10  0.2000E+01
    -10.363 -0.1488E-08  0.2000E+01
    -10.291 -0.4131E-07  0.2000E+01
    -10.218 -0.8759E-06  0.2000E+01
    -10.146 -0.1416E-04  0.2000E+01
    -10.074 -0.1742E-03  0.2000E+01
    -10.001 -0.1623E-02  0.2000E+01
     -9.929 -0.1140E-01  0.1999E+01
     -9.857 -0.5966E-01  0.1995E+01
     -9.784 -0.2283E+00  0.1978E+01
     -9.712 -0.6096E+00  0.1934E+01
     -9.640 -0.9838E+00  0.1863E+01
     -9.568 -0.2244E+00  0.1847E+01
     -9.495  0.3605E+01  0.2107E+01
     -9.423  0.1120E+02  0.2918E+01
     -9.351  0.1947E+02  0.4326E+01
     -9.278  0.2273E+02  0.5970E+01
     -9.206  0.1831E+02  0.7294E+01
     -9.134  0.9657E+01  0.7992E+01
     -9.061  0.2497E+01  0.8173E+01
     -8.989 -0.6493E+00  0.8126E+01
     -8.917 -0.9943E+00  0.8054E+01
     -8.844 -0.5230E+00  0.8016E+01
     -8.772 -0.1740E+00  0.8004E+01
     -8.700 -0.4076E-01  0.8001E+01
     -8.627 -0.6991E-02  0.8000E+01
     -8.555 -0.8941E-03  0.8000E+01
     -8.483 -0.8614E-04  0.8000E+01
     -8.410 -0.6290E-05  0.8000E+01
     -8.338 -0.3496E-06  0.8000E+01
     -8.266 -0.1483E-07  0.8000E+01
     -8.193 -0.4807E-09  0.8000E+01
     -8.121 -0.1193E-10  0.8000E+01
     -8.049 -0.2226E-12  0.8000E+01
     -7.976 -0.6140E-14  0.8000E+01
     -7.904  0.0000E+00  0.8000E+01
     -7.832  0.0000E+00  0.8000E+01
     -7.759  0.0000E+00  0.8000E+01
     -7.687  0.0000E+00  0.8000E+01
     -7.615  0.0000E+00  0.8000E+01
     -7.542  0.0000E+00  0.8000E+01
     -7.470  0.0000E+00  0.8000E+01
     -7.398  0.0000E+00  0.8000E+01
     -7.325  0.0000E+00  0.8000E+01
     -7.253  0.0000E+00  0.8000E+01
     -7.181  0.0000E+00  0.8000E+01
     -7.108  0.0000E+00  0.8000E+01
     -7.036  0.0000E+00  0.8000E+01
     -6.964  0.0000E+00  0.8000E+01
     -6.891  0.0000E+00  0.8000E+01
     -6.819  0.0000E+00  0.8000E+01
     -6.747  0.0000E+00  0.8000E+01
     -6.674  0.0000E+00  0.8000E+01
     -6.602  0.0000E+00  0.8000E+01
     -6.530  0.0000E+00  0.8000E+01
     -6.457  0.0000E+00  0.8000E+01
     -6.385  0.0000E+00  0.8000E+01
     -6.313  0.0000E+00  0.8000E+01
     -6.240  0.0000E+00  0.8000E+01
     -6.168  0.0000E+00  0.8000E+01
     -6.096  0.0000E+00  0.8000E+01
     -6.024  0.0000E+00  0.8000E+01
     -5.951  0.0000E+00  0.8000E+01
     -5.879  0.0000E+00  0.8000E+01
     -5.807  0.0000E+00  0.8000E+01
     -5.734  0.0000E+00  0.8000E+01
     -5.662  0.0000E+00  0.8000E+01
     -5.590  0.0000E+00  0.8000E+01
     -5.517  0.0000E+00  0.8000E+01
     -5.445  0.0000E+00  0.8000E+01
     -5.373  0.0000E+00  0.8000E+01
     -5.300  0.0000E+00  0.8000E+01
     -5.228  0.0000E+00  0.8000E+01
     -5.156  0.0000E+00  0.8000E+01
     -5.083  0.0000E+00  0.8000E+01
     -5.011  0.0000E+00  0.8000E+01
     -4.939  0.0000E+00  0.8000E+01
     -4.866  0.0000E+00  0.8000E+01
     -4.794  0.0000E+00  0.8000E+01
     -4.722  0.0000E+00  0.8000E+01
     -4.649  0.0000E+00  0.8000E+01
     -4.577  0.0000E+00  0.8000E+01
     -4.505  0.0000E+00  0.8000E+01
     -4.432  0.0000E+00  0.8000E+01
     -4.360  0.0000E+00  0.8000E+01
     -4.288  0.0000E+00  0.8000E+01
     -4.215  0.0000E+00  0.8000E+01
     -4.143  0.0000E+00  0.8000E+01
     -4.071  0.0000E+00  0.8000E+01
     -3.998  0.0000E+00  0.8000E+01
     -3.926  0.0000E+00  0.8000E+01
     -3.854  0.0000E+00  0.8000E+01
     -3.781  0.0000E+00  0.8000E+01
     -3.709  0.0000E+00  0.8000E+01
     -3.637  0.0000E+00  0.8000E+01
     -3.564  0.0000E+00  0.8000E+01
     -3.492  0.0000E+00  0.8000E+01
     -3.420  0.0000E+00  0.8000E+01
     -3.347  0.0000E+00  0.8000E+01
     -3.275  0.0000E+00  0.8000E+01
     -3.203  0.0000E+00  0.8000E+01
     -3.130  0.0000E+00  0.8000E+01
     -3.058  0.0000E+00  0.8000E+01
     -2.986  0.0000E+00  0.8000E+01
     -2.913  0.0000E+00  0.8000E+01
     -2.841  0.0000E+00  0.8000E+01
     -2.769  0.0000E+00  0.8000E+01
     -2.696  0.0000E+00  0.8000E+01
     -2.624  0.0000E+00  0.8000E+01
     -2.552  0.0000E+00  0.8000E+01
     -2.480  0.0000E+00  0.8000E+01
     -2.407  0.0000E+00  0.8000E+01
     -2.335  0.0000E+00  0.8000E+01
     -2.263  0.0000E+00  0.8000E+01
     -2.190  0.0000E+00  0.8000E+01
     -2.118  0.0000E+00  0.8000E+01
     -2.046  0.0000E+00  0.8000E+01
     -1.973 -0.1483E-28  0.8000E+01
     -1.901 -0.8584E-26  0.8000E+01
     -1.829 -0.2351E-23  0.8000E+01
     -1.756 -0.4952E-21  0.8000E+01
     -1.684 -0.8008E-19  0.8000E+01
     -1.612 -0.9939E-17  0.8000E+01
     -1.539 -0.9463E-15  0.8000E+01
     -1.467 -0.6716E-13  0.8000E+01
     -1.395 -0.3737E-11  0.8000E+01
     -1.322 -0.1592E-09  0.8000E+01
     -1.250 -0.5183E-08  0.8000E+01
     -1.178 -0.1286E-06  0.8000E+01
     -1.105 -0.2429E-05  0.8000E+01
     -1.033 -0.3475E-04  0.8000E+01
     -0.961 -0.3752E-03  0.8000E+01
     -0.888 -0.3032E-02  0.8000E+01
     -0.816 -0.1813E-01  0.7998E+01
     -0.744 -0.7849E-01  0.7993E+01
     -0.671 -0.2349E+00  0.7976E+01
     -0.599 -0.4270E+00  0.7945E+01
     -0.527 -0.1832E+00  0.7932E+01
     -0.454  0.1379E+01  0.8031E+01
     -0.382  0.4512E+01  0.8358E+01
     -0.310  0.7584E+01  0.8906E+01
     -0.237  0.8099E+01  0.9492E+01
     -0.165  0.5585E+01  0.9896E+01
     -0.093  0.2208E+01  0.1006E+02
     -0.020  0.1151E+00  0.1006E+02
      0.052 -0.4489E+00  0.1003E+02
      0.124 -0.3662E+00  0.1001E+02
      0.197 -0.3496E+00  0.9980E+01
      0.269 -0.6160E+00  0.9935E+01
      0.341 -0.8682E+00  0.9872E+01
      0.414 -0.1368E-01  0.9871E+01
      0.486  0.3614E+01  0.1013E+02
      0.558  0.1057E+02  0.1090E+02
      0.631  0.1831E+02  0.1222E+02
      0.703  0.2194E+02  0.1381E+02
      0.775  0.1858E+02  0.1515E+02
      0.848  0.1061E+02  0.1592E+02
      0.920  0.3295E+01  0.1616E+02
      0.992 -0.3484E+00  0.1613E+02
      1.064 -0.9960E+00  0.1606E+02
      1.137 -0.5836E+00  0.1602E+02
      1.209 -0.2077E+00  0.1600E+02
      1.281 -0.5134E-01  0.1600E+02
      1.354 -0.9227E-02  0.1600E+02
      1.426 -0.1231E-02  0.1600E+02
      1.498 -0.1234E-03  0.1600E+02
      1.571 -0.9360E-05  0.1600E+02
      1.643 -0.5394E-06  0.1600E+02
      1.715 -0.2370E-07  0.1600E+02
      1.788 -0.7957E-09  0.1600E+02
      1.860 -0.2044E-10  0.1600E+02
      1.932 -0.4022E-12  0.1600E+02
      2.005 -0.4605E-14  0.1600E+02
      2.077  0.0000E+00  0.1600E+02
      2.149  0.0000E+00  0.1600E+02
      2.222  0.0000E+00  0.1600E+02
      2.294  0.0000E+00  0.1600E+02
      2.366  0.0000E+00  0.1600E+02
      2.439  0.0000E+00  0.1600E+02
      2.511  0.0000E+00  0.1600E+02
      2.583  0.0000E+00  0.1600E+02
      2.656  0.0000E+00  0.1600E+02
      2.728  0.0000E+00  0.1600E+02
      2.72053779    -18.81381700  301     -8.95052479      1.00000000
    -18.814  0.0000E+00  0.0000E+00
    -18.742  0.0000E+00  0.0000E+00
    -18.670  0.0000E+00  0.0000E+00
    -18.598  0.0000E+00  0.0000E+00
    -18.527  0.0000E+00  0.0000E+00
    -18.455 -0.3690E-27 -0.2649E-28
    -18.383 -0.1118E-24 -0.8050E-26
    -18.311 -0.2617E-22 -0.1887E-23
    -18.240 -0.4723E-20 -0.3409E-21
    -18.168 -0.6570E-18 -0.4750E-19
    -18.096 -0.7039E-16 -0.5100E-17
    -18.024 -0.5807E-14 -0.4220E-15
    -17.952 -0.3578E-12 -0.2611E-13
    -17.881 -0.1737E-10 -0.1273E-11
    -17.809 -0.6481E-09 -0.4779E-10
    -17.737 -0.1853E-07 -0.1378E-08
    -17.665 -0.4051E-06 -0.3045E-07
    -17.594 -0.6756E-05 -0.5154E-06
    -17.522 -0.8561E-04 -0.6661E-05
    -17.450 -0.8199E-03 -0.6551E-04
    -17.378 -0.5883E-02 -0.4878E-03
    -17.306 -0.3118E-01 -0.2726E-02
    -17.235 -0.1188E+00 -0.1125E-01
    -17.163 -0.3062E+00 -0.3323E-01
    -17.091 -0.4357E+00 -0.6451E-01
    -17.019  0.1254E+00 -0.5551E-01
    -16.948  0.2210E+01  0.1031E+00
    -16.876  0.5565E+01  0.5026E+00
    -16.804  0.8087E+01  0.1083E+01
    -16.732  0.7634E+01  0.1631E+01
    -16.660  0.4614E+01  0.1962E+01
    -16.589  0.1467E+01  0.2067E+01
    -16.517 -0.1509E+00  0.2057E+01
    -16.445 -0.4323E+00  0.2026E+01
    -16.373 -0.2472E+00  0.2008E+01
    -16.301 -0.8530E-01  0.2002E+01
    -16.230 -0.2037E-01  0.2000E+01
    -16.158 -0.3531E-02  0.2000E+01
    -16.086 -0.4542E-03  0.2000E+01
    -16.014 -0.4390E-04  0.2000E+01
    -15.943 -0.3211E-05  0.2000E+01
    -15.871 -0.1787E-06  0.2000E+01
    -15.799 -0.7594E-08  0.2000E+01
    -15.727 -0.2469E-09  0.2000E+01
    -15.655 -0.6157E-11  0.2000E+01
    -15.584 -0.1175E-12  0.2000E+01
    -15.512  0.0000E+00  0.2000E+01
    -15.440  0.0000E+00  0.2000E+01
    -15.368  0.0000E+00  0.2000E+01
    -15.297  0.0000E+00  0.2000E+01
    -15.225  0.0000E+00  0.2000E+01
    -15.153  0.0000E+00  0.2000E+01
    -15.081  0.0000E+00  0.2000E+01
    -15.009  0.0000E+00  0.2000E+01
    -14.938  0.0000E+00  0.2000E+01
    -14.866  0.0000E+00  0.2000E+01
    -14.794  0.0000E+00  0.2000E+01
    -14.722  0.0000E+00  0.2000E+01
    -14.651  0.0000E+00  0.2000E+01
    -14.579  0.0000E+00  0.2000E+01
    -14.507  0.0000E+00  0.2000E+01
    -14.435  0.0000E+00  0.2000E+01
    -14.363  0.0000E+00  0.2000E+01
    -14.292  0.0000E+00  0.2000E+01
    -14.220  0.0000E+00  0.2000E+01
    -14.148  0.0000E+00  0.2000E+01
    -14.076  0.0000E+00  0.2000E+01
    -14.004  0.0000E+00  0.2000E+01
    -13.933  0.0000E+00  0.2000E+01
    -13.861  0.0000E+00  0.2000E+01
    -13.789  0.0000E+00  0.2000E+01
    -13.717  0.0000E+00  0.2000E+01
    -13.646  0.0000E+00  0.2000E+01
    -13.574  0.0000E+00  0.2000E+01
    -13.502  0.0000E+00  0.2000E+01
    -13.430  0.0000E+00  0.2000E+01
    -13.358  0.0000E+00  0.2000E+01
    -13.287  0.0000E+00  0.2000E+01
    -13.215  0.0000E+00  0.2000E+01
    -13.143  0.0000E+00  0.2000E+01
    -13.071  0.0000E+00  0.2000E+01
    -13.000  0.0000E+00  0.2000E+01
    -12.928  0.0000E+00  0.2000E+01
    -12.856  0.0000E+00  0.2000E+01
    -12.784  0.0000E+00  0.2000E+01
    -12.712  0.0000E+00  0.2000E+01
    -12.641  0.0000E+00  0.2000E+01
    -12.569  0.0000E+00  0.2000E+01
    -12.497  0.0000E+00  0.2000E+01
    -12.425  0.0000E+00  0.2000E+01
    -12.354  0.0000E+00  0.2000E+01
    -12.282  0.0000E+00  0.2000E+01
    -12.210  0.0000E+00  0.2000E+01
    -12.138  0.0000E+00  0.2000E+01
    -12.066  0.0000E+00  0.2000E+01
    -11.995  0.0000E+00  0.2000E+01
    -11.923  0.0000E+00  0.2000E+01
    -11.851  0.0000E+00  0.2000E+01
    -11.779  0.0000E+00  0.2000E+01
    -11.707  0.0000E+00  0.2000E+01
    -11.636  0.0000E+00  0.2000E+01
    -11.564  0.0000E+00  0.2000E+01
    -11.492  0.0000E+00  0.2000E+01
    -11.420  0.0000E+00  0.2000E+01
    -11.349  0.0000E+00  0.2000E+01
    -11.277  0.0000E+00  0.2000E+01
    -11.205  0.0000E+00  0.2000E+01
    -11.133  0.0000E+00  0.2000E+01
    -11.061 -0.3328E-26  0.2000E+01
    -10.990 -0.9130E-24  0.2000E+01
    -10.918 -0.1937E-21  0.2000E+01
    -10.846 -0.3167E-19  0.2000E+01
    -10.774 -0.3990E-17  0.2000E+01
    -10.703 -0.3872E-15  0.2000E+01
    -10.631 -0.2737E-13  0.2000E+01
    -10.559 -0.1609E-11  0.2000E+01
    -10.487 -0.7074E-10  0.2000E+01
    -10.415 -0.2386E-08  0.2000E+01
    -10.344 -0.6163E-07  0.2000E+01
    -10.272 -0.1216E-05  0.2000E+01
    -10.200 -0.1829E-04  0.2000E+01
    -10.128 -0.2086E-03  0.2000E+01
    -10.057 -0.1793E-02  0.2000E+01
     -9.985 -0.1149E-01  0.1999E+01
     -9.913 -0.5399E-01  0.1995E+01
     -9.841 -0.1796E+00  0.1982E+01
     -9.769 -0.3878E+00  0.1954E+01
     -9.698 -0.3757E+00  0.1927E+01
     -9.626  0.6158E+00  0.1972E+01
     -9.554  0.3114E+01  0.2195E+01
     -9.482  0.6150E+01  0.2637E+01
     -9.410  0.7739E+01  0.3192E+01
     -9.339  0.7721E+01  0.3746E+01
     -9.267  0.8612E+01  0.4365E+01
     -9.195  0.1182E+02  0.5213E+01
     -9.123  0.1470E+02  0.6268E+01
     -9.052  0.1361E+02  0.7246E+01
     -8.980  0.8640E+01  0.7866E+01
     -8.908  0.3224E+01  0.8097E+01
     -8.836  0.1009E+00  0.8104E+01
     -8.764 -0.7017E+00  0.8054E+01
     -8.693 -0.4907E+00  0.8019E+01
     -8.621 -0.1959E+00  0.8005E+01
     -8.549 -0.5371E-01  0.8001E+01
     -8.477 -0.1069E-01  0.8000E+01
     -8.406 -0.1581E-02  0.8000E+01
     -8.334 -0.1760E-03  0.8000E+01
     -8.262 -0.1486E-04  0.8000E+01
     -8.190 -0.9550E-06  0.8000E+01
     -8.118 -0.4690E-07  0.8000E+01
     -8.047 -0.1763E-08  0.8000E+01
     -7.975 -0.5085E-10  0.8000E+01
     -7.903 -0.1128E-11  0.8000E+01
     -7.831 -0.1856E-13  0.8000E+01
     -7.760  0.0000E+00  0.8000E+01
     -7.688  0.0000E+00  0.8000E+01
     -7.616  0.0000E+00  0.8000E+01
     -7.544  0.0000E+00  0.8000E+01
     -7.472  0.0000E+00  0.8000E+01
     -7.401  0.0000E+00  0.8000E+01
     -7.329  0.0000E+00  0.8000E+01
     -7.257  0.0000E+00  0.8000E+01
     -7.185  0.0000E+00  0.8000E+01
     -7.113  0.0000E+00  0.8000E+01
     -7.042  0.0000E+00  0.8000E+01
     -6.970  0.0000E+00  0.8000E+01
     -6.898  0.0000E+00  0.8000E+01
     -6.826  0.0000E+00  0.8000E+01
     -6.755  0.0000E+00  0.8000E+01
     -6.683  0.0000E+00  0.8000E+01
     -6.611  0.0000E+00  0.8000E+01
     -6.539  0.0000E+00  0.8000E+01
     -6.467  0.0000E+00  0.8000E+01
     -6.396  0.0000E+00  0.8000E+01
     -6.324  0.0000E+00  0.8000E+01
     -6.252  0.0000E+00  0.8000E+01
     -6.180  0.0000E+00  0.8000E+01
     -6.109  0.0000E+00  0.8000E+01
     -6.037  0.0000E+00  0.8000E+01
     -5.965  0.0000E+00  0.8000E+01
     -5.893  0.0000E+00  0.8000E+01
     -5.821  0.0000E+00  0.8000E+01
     -5.750  0.0000E+00  0.8000E+01
     -5.678  0.0000E+00  0.8000E+01
     -5.606  0.0000E+00  0.8000E+01
     -5.534  0.0000E+00  0.8000E+01
     -5.463  0.0000E+00  0.8000E+01
     -5.391  0.0000E+00  0.8000E+01
     -5.319  0.0000E+00  0.8000E+01
     -5.247  0.0000E+00  0.8000E+01
     -5.175  0.0000E+00  0.8000E+01
     -5.104  0.0000E+00  0.8000E+01
     -5.032  0.0000E+00  0.8000E+01
     -4.960  0.0000E+00  0.8000E+01
     -4.888  0.0000E+00  0.8000E+01
     -4.816  0.0000E+00  0.8000E+01
     -4.745  0.0000E+00  0.8000E+01
     -4.673  0.0000E+00  0.8000E+01
     -4.601  0.0000E+00  0.8000E+01
     -4.529  0.0000E+00  0.8000E+01
     -4.458  0.0000E+00  0.8000E+01
     -4.386  0.0000E+00  0.8000E+01
     -4.314  0.0000E+00  0.8000E+01
     -4.242  0.0000E+00  0.8000E+01
     -4.170  0.0000E+00  0.8000E+01
     -4.099  0.0000E+00  0.8000E+01
     -4.027  0.0000E+00  0.8000E+01
     -3.955  0.0000E+00  0.8000E+01
     -3.883  0.0000E+00  0.8000E+01
     -3.812  0.0000E+00  0.8000E+01
     -3.740  0.0000E+00  0.8000E+01
     -3.668  0.0000E+00  0.8000E+01
     -3.596  0.0000E+00  0.8000E+01
     -3.524  0.0000E+00  0.8000E+01
     -3.453  0.0000E+00  0.8000E+01
     -3.381  0.0000E+00  0.8000E+01
     -3.309  0.0000E+00  0.8000E+01
     -3.237  0.0000E+00  0.8000E+01
     -3.166  0.0000E+00  0.8000E+01
     -3.094  0.0000E+00  0.8000E+01
     -3.022  0.0000E+00  0.8000E+01
     -2.950  0.0000E+00  0.8000E+01
     -2.878  0.0000E+00  0.8000E+01
     -2.807  0.0000E+00  0.8000E+01
     -2.735  0.0000E+00  0.8000E+01
     -2.663  0.0000E+00  0.8000E+01
     -2.591  0.0000E+00  0.8000E+01
     -2.519  0.0000E+00  0.8000E+01
     -2.448  0.0000E+00  0.8000E+01
     -2.376  0.0000E+00  0.8000E+01
     -2.304  0.0000E+00  0.8000E+01
     -2.232  0.0000E+00  0.8000E+01
     -2.161  0.0000E+00  0.8000E+01
     -2.089  0.0000E+00  0.8000E+01
     -2.017  0.0000E+00  0.8000E+01
     -1.945 -0.2360E-26  0.8000E+01
     -1.873 -0.6568E-24  0.8000E+01
     -1.802 -0.1414E-21  0.8000E+01
     -1.730 -0.2346E-19  0.8000E+01
     -1.658 -0.2999E-17  0.8000E+01
     -1.586 -0.2954E-15  0.8000E+01
     -1.515 -0.2240E-13  0.8000E+01
     -1.443 -0.1265E-11  0.8000E+01
     -1.371 -0.5651E-10  0.8000E+01
     -1.299 -0.1936E-08  0.8000E+01
     -1.227 -0.5080E-07  0.8000E+01
     -1.156 -0.1019E-05  0.8000E+01
     -1.084 -0.1557E-04  0.8000E+01
     -1.012 -0.1806E-03  0.8000E+01
     -0.940 -0.1579E-02  0.8000E+01
     -0.869 -0.1031E-01  0.7999E+01
     -0.797 -0.4939E-01  0.7996E+01
     -0.725 -0.1678E+00  0.7984E+01
     -0.653 -0.3720E+00  0.7957E+01
     -0.581 -0.3764E+00  0.7930E+01
     -0.510  0.5946E+00  0.7973E+01
     -0.438  0.3198E+01  0.8202E+01
     -0.366  0.6578E+01  0.8674E+01
     -0.294  0.8307E+01  0.9271E+01
     -0.222  0.6858E+01  0.9763E+01
     -0.151  0.3520E+01  0.1002E+02
     -0.079  0.7712E+00  0.1007E+02
     -0.007 -0.3447E+00  0.1005E+02
      0.065 -0.4131E+00  0.1002E+02
      0.136 -0.2880E+00  0.9996E+01
      0.208 -0.3843E+00  0.9968E+01
      0.280 -0.7166E+00  0.9917E+01
      0.352 -0.7792E+00  0.9861E+01
      0.424  0.7271E+00  0.9913E+01
      0.495  0.5293E+01  0.1029E+02
      0.567  0.1270E+02  0.1120E+02
      0.639  0.1965E+02  0.1262E+02
      0.711  0.2157E+02  0.1416E+02
      0.782  0.1684E+02  0.1537E+02
      0.854  0.8766E+01  0.1600E+02
      0.926  0.2245E+01  0.1616E+02
      0.998 -0.6189E+00  0.1612E+02
      1.070 -0.9350E+00  0.1605E+02
      1.141 -0.4967E+00  0.1602E+02
      1.213 -0.1676E+00  0.1600E+02
      1.285 -0.3990E-01  0.1600E+02
      1.357 -0.6972E-02  0.1600E+02
      1.428 -0.9107E-03  0.1600E+02
      1.500 -0.8987E-04  0.1600E+02
      1.572 -0.6742E-05  0.1600E+02
      1.644 -0.3862E-06  0.1600E+02
      1.716 -0.1694E-07  0.1600E+02
      1.787 -0.5701E-09  0.1600E+02
      1.859 -0.1474E-10  0.1600E+02
      1.931 -0.2939E-12  0.1600E+02
      2.003 -0.4640E-14  0.1600E+02
      2.075  0.0000E+00  0.1600E+02
      2.146  0.0000E+00  0.1600E+02
      2.218  0.0000E+00  0.1600E+02
      2.290  0.0000E+00  0.1600E+02
      2.362  0.0000E+00  0.1600E+02
      2.433  0.0000E+00  0.1600E+02
      2.505  0.0000E+00  0.1600E+02
      2.577  0.0000E+00  0.1600E+02
      2.649  0.0000E+00  0.1600E+02
      2.721  0.0000E+00  0.1600E+02
      2.71460734    -18.64551035  301     -8.72337082      1.00000000
    -18.646  0.0000E+00  0.0000E+00
    -18.574  0.0000E+00  0.0000E+00
    -18.503  0.0000E+00  0.0000E+00
    -18.432  0.0000E+00  0.0000E+00
    -18.361  0.0000E+00  0.0000E+00
    -18.290 -0.2936E-27 -0.2091E-28
    -18.218 -0.8588E-25 -0.6135E-26
    -18.147 -0.1950E-22 -0.1395E-23
    -18.076 -0.3428E-20 -0.2455E-21
    -18.005 -0.4663E-18 -0.3345E-19
    -17.934 -0.4908E-16 -0.3528E-17
    -17.862 -0.3993E-14 -0.2879E-15
    -17.791 -0.2433E-12 -0.1761E-13
    -17.720 -0.1178E-10 -0.8563E-12
    -17.649 -0.4391E-09 -0.3212E-10
    -17.578 -0.1260E-07 -0.9292E-09
    -17.506 -0.2778E-06 -0.2071E-07
    -17.435 -0.4693E-05 -0.3549E-06
    -17.364 -0.6056E-04 -0.4667E-05
    -17.293 -0.5937E-03 -0.4694E-04
    -17.222 -0.4387E-02 -0.3593E-03
    -17.150 -0.2413E-01 -0.2077E-02
    -17.079 -0.9649E-01 -0.8948E-02
    -17.008 -0.2667E+00 -0.2794E-01
    -16.937 -0.4378E+00 -0.5911E-01
    -16.866 -0.8675E-01 -0.6528E-01
    -16.794  0.1637E+01  0.5130E-01
    -16.723  0.4823E+01  0.3947E+00
    -16.652  0.7738E+01  0.9456E+00
    -16.581  0.8033E+01  0.1518E+01
    -16.509  0.5446E+01  0.1905E+01
    -16.438  0.2130E+01  0.2057E+01
    -16.367  0.1013E+00  0.2064E+01
    -16.296 -0.4369E+00  0.2033E+01
    -16.225 -0.3056E+00  0.2011E+01
    -16.153 -0.1194E+00  0.2003E+01
    -16.082 -0.3177E-01  0.2001E+01
    -16.011 -0.6105E-02  0.2000E+01
    -15.940 -0.8703E-03  0.2000E+01
    -15.869 -0.9337E-04  0.2000E+01
    -15.797 -0.7601E-05  0.2000E+01
    -15.726 -0.4722E-06  0.2000E+01
    -15.655 -0.2247E-07  0.2000E+01
    -15.584 -0.8210E-09  0.2000E+01
    -15.513 -0.2309E-10  0.2000E+01
    -15.441 -0.5037E-12  0.2000E+01
    -15.370 -0.6237E-14  0.2000E+01
    -15.299  0.0000E+00  0.2000E+01
    -15.228  0.0000E+00  0.2000E+01
    -15.157  0.0000E+00  0.2000E+01
    -15.085  0.0000E+00  0.2000E+01
    -15.014  0.0000E+00  0.2000E+01
    -14.943  0.0000E+00  0.2000E+01
    -14.872  0.0000E+00  0.2000E+01
    -14.801  0.0000E+00  0.2000E+01
    -14.729  0.0000E+00  0.2000E+01
    -14.658  0.0000E+00  0.2000E+01
    -14.587  0.0000E+00  0.2000E+01
    -14.516  0.0000E+00  0.2000E+01
    -14.445  0.0000E+00  0.2000E+01
    -14.373  0.0000E+00  0.2000E+01
    -14.302  0.0000E+00  0.2000E+01
    -14.231  0.0000E+00  0.2000E+01
    -14.160  0.0000E+00  0.2000E+01
    -14.089  0.0000E+00  0.2000E+01
    -14.017  0.0000E+00  0.2000E+01
    -13.946  0.0000E+00  0.2000E+01
    -13.875  0.0000E+00  0.2000E+01
    -13.804  0.0000E+00  0.2000E+01
    -13.733  0.0000E+00  0.2000E+01
    -13.661  0.0000E+00  0.2000E+01
    -13.590  0.0000E+00  0.2000E+01
    -13.519  0.0000E+00  0.2000E+01
    -13.448  0.0000E+00  0.2000E+01
    -13.377  0.0000E+00  0.2000E+01
    -13.305  0.0000E+00  0.2000E+01
    -13.234  0.0000E+00  0.2000E+01
    -13.163  0.0000E+00  0.2000E+01
    -13.092  0.0000E+00  0.2000E+01
    -13.021  0.0000E+00  0.2000E+01
    -12.949  0.0000E+00  0.2000E+01
    -12.878  0.0000E+00  0.2000E+01
    -12.807  0.0000E+00  0.2000E+01
    -12.736  0.0000E+00  0.2000E+01
    -12.665  0.0000E+00  0.2000E+01
    -12.593  0.0000E+00  0.2000E+01
    -12.522  0.0000E+00  0.2000E+01
    -12.451  0.0000E+00  0.2000E+01
    -12.380  0.0000E+00  0.2000E+01
    -12.309  0.0000E+00  0.2000E+01
    -12.237  0.0000E+00  0.2000E+01
    -12.166  0.0000E+00  0.2000E+01
    -12.095  0.0000E+00  0.2000E+01
    -12.024  0.0000E+00  0.2000E+01
    -11.953  0.0000E+00  0.2000E+01
    -11.881  0.0000E+00  0.2000E+01
    -11.810  0.0000E+00  0.2000E+01
    -11.739  0.0000E+00  0.2000E+01
    -11.668  0.0000E+00  0.2000E+01
    -11.597  0.0000E+00  0.2000E+01
    -11.525  0.0000E+00  0.2000E+01
    -11.454  0.0000E+00  0.2000E+01
    -11.383  0.0000E+00  0.2000E+01
    -11.312  0.0000E+00  0.2000E+01
    -11.241  0.0000E+00  0.2000E+01
    -11.169  0.0000E+00  0.2000E+01
    -11.098  0.0000E+00  0.2000E+01
    -11.027 -0.2731E-26  0.2000E+01
    -10.956 -0.7232E-24  0.2000E+01
    -10.885 -0.1487E-21  0.2000E+01
    -10.813 -0.2368E-19  0.2000E+01
    -10.742 -0.2916E-17  0.2000E+01
    -10.671 -0.2778E-15  0.2000E+01
    -10.600 -0.2046E-13  0.2000E+01
    -10.529 -0.1127E-11  0.2000E+01
    -10.457 -0.4931E-10  0.2000E+01
    -10.386 -0.1661E-08  0.2000E+01
    -10.315 -0.4306E-07  0.2000E+01
    -10.244 -0.8567E-06  0.2000E+01
    -10.173 -0.1305E-04  0.2000E+01
    -10.101 -0.1515E-03  0.2000E+01
    -10.030 -0.1333E-02  0.2000E+01
     -9.959 -0.8804E-02  0.1999E+01
     -9.888 -0.4299E-01  0.1996E+01
     -9.817 -0.1506E+00  0.1985E+01
     -9.745 -0.3534E+00  0.1960E+01
     -9.674 -0.4320E+00  0.1930E+01
     -9.603  0.2894E+00  0.1950E+01
     -9.532  0.2495E+01  0.2128E+01
     -9.461  0.5689E+01  0.2533E+01
     -9.389  0.8083E+01  0.3108E+01
     -9.318  0.8678E+01  0.3726E+01
     -9.247  0.8451E+01  0.4328E+01
     -9.176  0.8326E+01  0.4921E+01
     -9.105  0.7823E+01  0.5478E+01
     -9.033  0.6993E+01  0.5976E+01
     -8.962  0.7076E+01  0.6480E+01
     -8.891  0.7930E+01  0.7044E+01
     -8.820  0.7507E+01  0.7579E+01
     -8.749  0.4945E+01  0.7931E+01
     -8.677  0.1854E+01  0.8063E+01
     -8.606  0.6918E-02  0.8063E+01
     -8.535 -0.4458E+00  0.8032E+01
     -8.464 -0.2952E+00  0.8011E+01
     -8.393 -0.1125E+00  0.8003E+01
     -8.321 -0.2937E-01  0.8000E+01
     -8.250 -0.5552E-02  0.8000E+01
     -8.179 -0.7795E-03  0.8000E+01
     -8.108 -0.8240E-04  0.8000E+01
     -8.037 -0.6612E-05  0.8000E+01
     -7.965 -0.4050E-06  0.8000E+01
     -7.894 -0.1900E-07  0.8000E+01
     -7.823 -0.6850E-09  0.8000E+01
     -7.752 -0.1900E-10  0.8000E+01
     -7.681 -0.4070E-12  0.8000E+01
     -7.609 -0.6237E-14  0.8000E+01
     -7.538  0.0000E+00  0.8000E+01
     -7.467  0.0000E+00  0.8000E+01
     -7.396  0.0000E+00  0.8000E+01
     -7.325  0.0000E+00  0.8000E+01
     -7.253  0.0000E+00  0.8000E+01
     -7.182  0.0000E+00  0.8000E+01
     -7.111  0.0000E+00  0.8000E+01
     -7.040  0.0000E+00  0.8000E+01
     -6.969  0.0000E+00  0.8000E+01
     -6.897  0.0000E+00  0.8000E+01
     -6.826  0.0000E+00  0.8000E+01
     -6.755  0.0000E+00  0.8000E+01
     -6.684  0.0000E+00  0.8000E+01
     -6.613  0.0000E+00  0.8000E+01
     -6.541  0.0000E+00  0.8000E+01
     -6.470  0.0000E+00  0.8000E+01
     -6.399  0.0000E+00  0.8000E+01
     -6.328  0.0000E+00  0.8000E+01
     -6.257  0.0000E+00  0.8000E+01
     -6.185  0.0000E+00  0.8000E+01
     -6.114  0.0000E+00  0.8000E+01
     -6.043  0.0000E+00  0.8000E+01
     -5.972  0.0000E+00  0.8000E+01
     -5.901  0.0000E+00  0.8000E+01
     -5.829  0.0000E+00  0.8000E+01
     -5.758  0.0000E+00  0.8000E+01
     -5.687  0.0000E+00  0.8000E+01
     -5.616  0.0000E+00  0.8000E+01
     -5.545  0.0000E+00  0.8000E+01
     -5.473  0.0000E+00  0.8000E+01
     -5.402  0.0000E+00  0.8000E+01
     -5.331  0.0000E+00  0.8000E+01
     -5.260  0.0000E+00  0.8000E+01
     -5.189  0.0000E+00  0.8000E+01
     -5.117  0.0000E+00  0.8000E+01
     -5.046  0.0000E+00  0.8000E+01
     -4.975  0.0000E+00  0.8000E+01
     -4.904  0.0000E+00  0.8000E+01
     -4.833  0.0000E+00  0.8000E+01
     -4.761  0.0000E+00  0.8000E+01
     -4.690  0.0000E+00  0.8000E+01
     -4.619  0.0000E+00  0.8000E+01
     -4.548  0.0000E+00  0.8000E+01
     -4.477  0.0000E+00  0.8000E+01
     -4.405  0.0000E+00  0.8000E+01
     -4.334  0.0000E+00  0.8000E+01
     -4.263  0.0000E+00  0.8000E+01
     -4.192  0.0000E+00  0.8000E+01
     -4.121  0.0000E+00  0.8000E+01
     -4.049  0.0000E+00  0.8000E+01
     -3.978  0.0000E+00  0.8000E+01
     -3.907  0.0000E+00  0.8000E+01
     -3.836  0.0000E+00  0.8000E+01
     -3.765  0.0000E+00  0.8000E+01
     -3.693  0.0000E+00  0.8000E+01
     -3.622  0.0000E+00  0.8000E+01
     -3.551  0.0000E+00  0.8000E+01
     -3.480  0.0000E+00  0.8000E+01
     -3.409  0.0000E+00  0.8000E+01
     -3.337  0.0000E+00  0.8000E+01
     -3.266  0.0000E+00  0.8000E+01
     -3.195  0.0000E+00  0.8000E+01
     -3.124  0.0000E+00  0.8000E+01
     -3.053  0.0000E+00  0.8000E+01