    5    5    1    1
  0.1932126E+03  0.9990581E-09  0.9817939E-09  0.9854429E-09  0.2000000E-14
   50.000000000000000     
  CAR 
 unknown system                          
      8      4      8

  0.2500000E+00  0.2500000E+00  0.2500000E+00  0.2500000E+00
    1      -17.065367   1.000000
    2       -9.669954   1.000000
    3       -9.433190   1.000046
    4       -8.977244   1.000056
    5       -0.292428   0.000000
    6        0.612358   0.000000
    7        0.699622   0.000000
    8        0.728697   0.000000

 -0.2500000E+00  0.2500000E+00  0.2500000E+00  0.2500000E+00
    1      -17.065380   1.000000
    2       -9.669723   1.000000
    3       -9.433067   1.000047
    4       -8.977043   0.999834
    5       -0.284774   0.000000
    6        0.592343   0.000000
    7        0.678579   0.000000
    8        0.713133   0.000000

  0.2500000E+00 -0.2500000E+00  0.2500000E+00  0.2500000E+00
    1      -17.065462   1.000000
    2       -9.669908   1.000000
    3       -9.433166   1.000047
    4       -8.977211   1.000019
    5       -0.292553   0.000000
    6        0.588764   0.000000
    7        0.705071   0.000000
    8        0.748274   0.000000

 -0.2500000E+00 -0.2500000E+00  0.2500000E+00  0.2500000E+00
    1      -17.065450   1.000000
    2       -9.669925   1.000000
    3       -9.433103   1.000047
    4       -8.977106   0.999904
    5       -0.289115   0.000000
    6        0.596737   0.000000
    7        0.678378   0.000000
    8        0.742247   0.000000
