 vasp.5.4.4.18Apr17-6-g9f103f2a35 (build Jul 12 2018 13:43:46) complex           
 executed on             LinuxGNU date 2019.06.22  02:17:35
 running on    1 total cores
 distrk:  each k-point on    1 cores,    1 groups
 distr:  one band on NCORES_PER_BAND=   1 cores,    1 groups


--------------------------------------------------------------------------------------------------------


 INCAR:
 POTCAR:    PAW_PBE H 15Jun2001                   
 POTCAR:    PAW_PBE C 08Apr2002                   
 POTCAR:    PAW_PBE H 15Jun2001                   
   VRHFIN =H: ultrasoft test                                                    
   LEXCH  = PE                                                                  
   EATOM  =    12.4884 eV,    0.9179 Ry                                         
                                                                                
   TITEL  = PAW_PBE H 15Jun2001                                                 
   LULTRA =        F    use ultrasoft PP ?                                      
   IUNSCR =        0    unscreen: 0-lin 1-nonlin 2-no                           
   RPACOR =    0.000    partial core radius                                     
   POMASS =    1.000; ZVAL   =    1.000    mass and valenz                      
   RCORE  =    1.100    outmost cutoff radius                                   
   RWIGS  =    0.700; RWIGS  =    0.370    wigner-seitz radius (au A)           
   ENMAX  =  250.000; ENMIN  =  200.000 eV                                      
   RCLOC  =    0.701    cutoff for local pot                                    
   LCOR   =        T    correct aug charges                                     
   LPAW   =        T    paw PP                                                  
   EAUG   =  400.000                                                            
   RMAX   =    1.123    core radius for proj-oper                               
   RAUG   =    1.200    factor for augmentation sphere                          
   RDEP   =    1.112    radius for radial grids                                 
   RDEPT  =    0.926    core radius for aug-charge                              
                                                                                
   Atomic configuration                                                         
    2 entries                                                                   
     n  l   j            E        occ.                                          
     1  0  0.50        -6.4927   1.0000                                         
     2  1  0.50        -3.4015   0.0000                                         
   Description                                                                  
     l       E           TYP  RCUT    TYP  RCUT                                 
     0     -6.4927494     23  1.100                                             
     0      6.8029130     23  1.100                                             
     1     -4.0817478     23  1.100                                             
  local pseudopotential read in
  atomic valenz-charges read in
  non local Contribution for L=           0  read in
    real space projection operators read in
  non local Contribution for L=           0  read in
    real space projection operators read in
  non local Contribution for L=           1  read in
    real space projection operators read in
    PAW grid and wavefunctions read in

   number of l-projection  operators is LMAX  =           3
   number of lm-projection operators is LMMAX =           5

 POTCAR:    PAW_PBE C 08Apr2002                   
   VRHFIN =C: s2p2                                                              
   LEXCH  = PE                                                                  
   EATOM  =   147.1560 eV,   10.8157 Ry                                         
                                                                                
   TITEL  = PAW_PBE C 08Apr2002                                                 
   LULTRA =        F    use ultrasoft PP ?                                      
   IUNSCR =        1    unscreen: 0-lin 1-nonlin 2-no                           
   RPACOR =    1.200    partial core radius                                     
   POMASS =   12.011; ZVAL   =    4.000    mass and valenz                      
   RCORE  =    1.500    outmost cutoff radius                                   
   RWIGS  =    1.630; RWIGS  =    0.863    wigner-seitz radius (au A)           
   ENMAX  =  400.000; ENMIN  =  300.000 eV                                      
   ICORE  =        2    local potential                                         
   LCOR   =        T    correct aug charges                                     
   LPAW   =        T    paw PP                                                  
   EAUG   =  644.873                                                            
   DEXC   =    0.000                                                            
   RMAX   =    1.529    core radius for proj-oper                               
   RAUG   =    1.300    factor for augmentation sphere                          
   RDEP   =    1.501    radius for radial grids                                 
   RDEPT  =    1.300    core radius for aug-charge                              
                                                                                
   Atomic configuration                                                         
    4 entries                                                                   
     n  l   j            E        occ.                                          
     1  0  0.50      -273.3789   2.0000                                         
     2  0  0.50       -13.7508   2.0000                                         
     2  1  0.50        -5.2854   2.0000                                         
     3  2  1.50        -5.4423   0.0000                                         
   Description                                                                  
     l       E           TYP  RCUT    TYP  RCUT                                 
     0    -13.7508458     23  1.200                                             
     0     -8.2022199     23  1.200                                             
     1     -5.2854383     23  1.500                                             
     1     34.0145650     23  1.500                                             
     2     -5.4423304      7  1.500                                             
  local pseudopotential read in
  partial core-charges read in
  partial kinetic energy density read in
  atomic valenz-charges read in
  non local Contribution for L=           0  read in
    real space projection operators read in
  non local Contribution for L=           0  read in
    real space projection operators read in
  non local Contribution for L=           1  read in
    real space projection operators read in
  non local Contribution for L=           1  read in
    real space projection operators read in
    PAW grid and wavefunctions read in

   number of l-projection  operators is LMAX  =           4
   number of lm-projection operators is LMMAX =           8


 ----------------------------------------------------------------------------- 
|                                                                             |
|  ADVICE TO THIS USER RUNNING 'VASP/VAMP'   (HEAR YOUR MASTER'S VOICE ...):  |
|                                                                             |
|      You have a (more or less) 'small supercell' and for smaller cells      |
|      it is recommended  to use the reciprocal-space projection scheme!      |
|      The real space optimization is not  efficient for small cells and it   |
|      is also less accurate ...                                              |
|      Therefore set LREAL=.FALSE. in the  INCAR file                         |
|                                                                             |
 ----------------------------------------------------------------------------- 


 ----------------------------------------------------------------------------- 
|                                                                             |
|           W    W    AA    RRRRR   N    N  II  N    N   GGGG   !!!           |
|           W    W   A  A   R    R  NN   N  II  NN   N  G    G  !!!           |
|           W    W  A    A  R    R  N N  N  II  N N  N  G       !!!           |
|           W WW W  AAAAAA  RRRRR   N  N N  II  N  N N  G  GGG   !            |
|           WW  WW  A    A  R   R   N   NN  II  N   NN  G    G                |
|           W    W  A    A  R    R  N    N  II  N    N   GGGG   !!!           |
|                                                                             |
|     The real-space-projection scheme for the treatment of the nonlocal      |
|     pseudopotentials has been switched on -- but on file POTCAR I have      |
|     not found any entries signalling me that you have ever performed a      |
|     real-space optimization of all nonlocal projectors! BE WARNED that      |
|     a calculation using the real-space-projection scheme together with      |
|     nonlocal projectors which were not real-space-optimized (according      |
|     to the plane-wave-cutoff used in this calculation) might give more      |
|     or less inaccurate results                                              |
|     I hope you know what you are doing                                      |
|                                                                             |
 ----------------------------------------------------------------------------- 

  PAW_PBE H 15Jun2001                   :
 energy of atom  1       EATOM=  -12.4884
 kinetic energy error for atom=    0.0098 (will be added to EATOM!!)
  PAW_PBE C 08Apr2002                   :
 energy of atom  2       EATOM= -147.1560
 kinetic energy error for atom=    0.0288 (will be added to EATOM!!)


 POSCAR:  H  C                                   
  positions in cartesian coordinates
  No initial velocities read in
 exchange correlation table for  LEXCH =        8
   RHO(1)=    0.500       N(1)  =     2000
   RHO(2)=  100.500       N(2)  =     4000



--------------------------------------------------------------------------------------------------------


 ion  position               nearest neighbor table
   1  0.538  0.407  0.361-   5 1.06
   2  0.395  0.480  0.438-   5 1.09
   3  0.552  0.566  0.442-   5 1.10
   4  0.529  0.416  0.539-   5 1.09
   5  0.503  0.466  0.445-   1 1.06   2 1.09   4 1.09   3 1.10


IMPORTANT INFORMATION: All symmetrisations will be switched off!
NOSYMM: (Re-)initialisation of all symmetry stuff for point group C_1.




Automatic generation of k-mesh.
 generate k-points for:    2    2    2
Space group operators:
 irot       det(A)        alpha          n_x          n_y          n_z        tau_x        tau_y        tau_z
    1     1.000000     0.000000     1.000000     0.000000     0.000000     0.000000     0.000000     0.000000
 
 Subroutine IBZKPT returns following result:
 ===========================================
 
 Found      4 irreducible k-points:
 
 Following reciprocal coordinates:
            Coordinates               Weight
  0.250000  0.250000  0.250000      2.000000
 -0.250000  0.250000  0.250000      2.000000
  0.250000 -0.250000  0.250000      2.000000
 -0.250000 -0.250000  0.250000      2.000000
 
 Following cartesian coordinates:
            Coordinates               Weight
  0.025024  0.025297  0.024963      2.000000
 -0.025024  0.025631  0.026455      2.000000
  0.025024 -0.025631  0.024310      2.000000
 -0.025024 -0.025297  0.025802      2.000000
 


--------------------------------------------------------------------------------------------------------




 Dimension of arrays:
   k-points           NKPTS =      4   k-points in BZ     NKDIM =      4   number of bands    NBANDS=      8
   number of dos      NEDOS =    301   number of ions     NIONS =      5
   non local maximal  LDIM  =      4   non local SUM 2l+1 LMDIM =      8
   total plane-waves  NPLWV = 286720
   max r-space proj   IRMAX =    708   max aug-charges    IRDMAX=   3701
   dimension x,y,z NGX =    70 NGY =   64 NGZ =   64
   dimension x,y,z NGXF=   140 NGYF=  128 NGZF=  128
   support grid    NGXF=   140 NGYF=  128 NGZF=  128
   ions per type =               4   1
   NGX,Y,Z   is equivalent  to a cutoff of  11.65, 10.84, 10.80 a.u.
   NGXF,Y,Z  is equivalent  to a cutoff of  23.30, 21.67, 21.59 a.u.

 SYSTEM =  unknown system                          
 POSCAR =   H  C                                   

 Startparameter for this run:
   NWRITE =      2    write-flag & timer
   PREC   = a         normal or accurate (medium, high low for compatibility)
   ISTART =      0    job   : 0-new  1-cont  2-samecut
   ICHARG =      2    charge: 1-file 2-atom 10-const
   ISPIN  =      1    spin polarized calculation?
   LNONCOLLINEAR =      F non collinear calculations
   LSORBIT =      F    spin-orbit coupling
   INIWAV =      1    electr: 0-lowe 1-rand  2-diag
   LASPH  =      F    aspherical Exc in radial PAW
   METAGGA=      F    non-selfconsistent MetaGGA calc.

 Electronic Relaxation 1
   ENCUT  =  400.0 eV  29.40 Ry    5.42 a.u.  16.29 16.01 16.07*2*pi/ulx,y,z
   ENINI  =  400.0     initial cutoff
   ENAUG  =  644.9 eV  augmentation charge cutoff
   NELM   =     60;   NELMIN=  2; NELMDL= -5     # of ELM steps 
   EDIFF  = 0.1E-05   stopping-criterion for ELM
   LREAL  =      T    real-space projection
   NLSPLINE    = F    spline interpolate recip. space projectors
   LCOMPAT=      F    compatible to vasp.4.4
   GGA_COMPAT  = T    GGA compatible to vasp.4.4-vasp.4.6
   LMAXPAW     = -100 max onsite density
   LMAXMIX     =    2 max onsite mixed and CHGCAR
   VOSKOWN=      0    Vosko Wilk Nusair interpolation
   ROPT   =    0.00000   0.00000
 Ionic relaxation
   EDIFFG = 0.1E-04   stopping-criterion for IOM
   NSW    =     10    number of steps for IOM
   NBLOCK =      1;   KBLOCK =      1    inner block; outer block 
   IBRION =      0    ionic relax: 0-MD 1-quasi-New 2-CG
   NFREE  =      0    steps in history (QN), initial steepest desc. (CG)
   ISIF   =      2    stress and relaxation
   IWAVPR =     12    prediction:  0-non 1-charg 2-wave 3-comb
   ISYM   =      0    0-nonsym 1-usesym 2-fastsym
   LCORR  =      T    Harris-Foulkes like correction to forces

   POTIM  = 2.0000    time-step for ionic-motion
   TEIN   =   50.0    initial temperature
   TEBEG  =   50.0;   TEEND  =  50.0 temperature during run
   SMASS  =   0.00    Nose mass-parameter (am)
   estimated Nose-frequenzy (Omega)   =  0.79E+14 period in steps = 40.00 mass=   0.123E-29a.u.
   SCALEE = 1.0000    scale energy and forces
   NPACO  =    256;   APACO  = 16.0  distance and # of slots for P.C.
   PSTRESS=    0.0 pullay stress

  Mass of Ions in am
   POMASS =   1.00 12.01
  Ionic Valenz
   ZVAL   =   1.00  4.00
  Atomic Wigner-Seitz radii
   RWIGS  =  -1.00 -1.00
  virtual crystal weights 
   VCA    =   1.00  1.00
   NELECT =       8.0000    total number of electrons
   NUPDOWN=      -1.0000    fix difference up-down

 DOS related values:
   EMIN   =  10.00;   EMAX   =-10.00  energy-range for DOS
   EFERMI =   0.00
   ISMEAR =     1;   SIGMA  =   0.20  broadening in eV -4-tet -1-fermi 0-gaus

 Electronic relaxation 2 (details)
   IALGO  =     68    algorithm
   LDIAG  =      T    sub-space diagonalisation (order eigenvalues)
   LSUBROT=      F    optimize rotation matrix (better conditioning)
   TURBO    =      0    0=normal 1=particle mesh
   IRESTART =      0    0=no restart 2=restart with 2 vectors
   NREBOOT  =      0    no. of reboots
   NMIN     =      0    reboot dimension
   EREF     =   0.00    reference energy to select bands
   IMIX   =      4    mixing-type and parameters
     AMIX     =   0.40;   BMIX     =  1.00
     AMIX_MAG =   1.60;   BMIX_MAG =  1.00
     AMIN     =   0.10
     WC   =   100.;   INIMIX=   1;  MIXPRE=   1;  MAXMIX=  50

 Intra band minimization:
   WEIMIN = 0.0010     energy-eigenvalue tresh-hold
   EBREAK =  0.31E-07  absolut break condition
   DEPER  =   0.30     relativ break condition  

   TIME   =   0.40     timestep for ELM

  volume/ion in A,a.u.               =     193.21      1303.86
  Fermi-wavevector in a.u.,A,eV,Ry     =   0.331210  0.625895  1.492557  0.109700
  Thomas-Fermi vector in A             =   1.227172

 Write flags
   LWAVE        =      F    write WAVECAR
   LDOWNSAMPLE  =      F    k-point downsampling of WAVECAR
   LCHARG       =      F    write CHGCAR
   LVTOT        =      F    write LOCPOT, total local potential
   LVHAR        =      F    write LOCPOT, Hartree potential only
   LELF         =      F    write electronic localiz. function (ELF)
   LORBIT       =      0    0 simple, 1 ext, 2 COOP (PROOUT), +10 PAW based schemes


 Dipole corrections
   LMONO  =      F    monopole corrections only (constant potential shift)
   LDIPOL =      F    correct potential (dipole corrections)
   IDIPOL =      0    1-x, 2-y, 3-z, 4-all directions 
   EPSILON=  1.0000000 bulk dielectric constant

 Exchange correlation treatment:
   GGA     =    --    GGA type
   LEXCH   =     8    internal setting for exchange type
   VOSKOWN=      0    Vosko Wilk Nusair interpolation
   LHFCALC =     F    Hartree Fock is set to
   LHFONE  =     F    Hartree Fock one center treatment
   AEXX    =    0.0000 exact exchange contribution

 Linear response parameters
   LEPSILON=     F    determine dielectric tensor
   LRPA    =     F    only Hartree local field effects (RPA)
   LNABLA  =     F    use nabla operator in PAW spheres
   LVEL    =     F    velocity operator in full k-point grid
   LINTERFAST=   F  fast interpolation
   KINTER  =     0    interpolate to denser k-point grid
   CSHIFT  =0.1000    complex shift for real part using Kramers Kronig
   OMEGAMAX=  -1.0    maximum frequency
   DEG_THRESHOLD= 0.2000000E-02 threshold for treating states as degnerate
   RTIME   =   -0.100 relaxation time in fs
  (WPLASMAI=    0.000 imaginary part of plasma frequency in eV, 0.658/RTIME)
   DFIELD  = 0.0000000 0.0000000 0.0000000 field for delta impulse in time

 Orbital magnetization related:
   ORBITALMAG=     F  switch on orbital magnetization
   LCHIMAG   =     F  perturbation theory with respect to B field
   DQ        =  0.001000  dq finite difference perturbation B field
   LLRAUG    =     F  two centre corrections for induced B field



--------------------------------------------------------------------------------------------------------


 molecular dynamics for ions
   using nose mass (canonical ensemble)
 charge density and potential will be updated during run
 non-spin polarized calculation
 RMM-DIIS sequential band-by-band and
  variant of blocked Davidson during initial phase
 perform sub-space diagonalisation
    before iterative eigenvector-optimisation
 modified Broyden-mixing scheme, WC =      100.0
 initial mixing is a Kerker type mixing with AMIX =  0.4000 and BMIX =      1.0000
 Hartree-type preconditioning will be used
 using additional bands            4
 real space projection scheme for non local part
 use partial core corrections
 calculate Harris-corrections to forces   (improved forces if not selfconsistent)
 use gradient corrections 
 use of overlap-Matrix (Vanderbilt PP)
 Methfessel and Paxton  Order N= 1 SIGMA  =   0.20


--------------------------------------------------------------------------------------------------------


  energy-cutoff  :      400.00
  volume of cell :      966.06
      direct lattice vectors                 reciprocal lattice vectors
     9.990581007  0.000000000  0.000000000     0.100094279 -0.000667128 -0.002983513
     0.065435125  9.817721212  0.000000000    -0.000000000  0.101856630  0.001305313
     0.292736286 -0.126220354  9.849271741     0.000000000  0.000000000  0.101530349

  length of vectors
     9.990581007  9.817939273  9.854429457     0.100140956  0.101864994  0.101530349



 k-points in units of 2pi/SCALE and weight: read from INCAR                         
   0.02502357  0.02529738  0.02496304       0.250
  -0.02502357  0.02563094  0.02645479       0.250
   0.02502357 -0.02563094  0.02431038       0.250
  -0.02502357 -0.02529738  0.02580214       0.250

 k-points in reciprocal lattice and weights: read from INCAR                         
   0.25000000  0.25000000  0.25000000       0.250
  -0.25000000  0.25000000  0.25000000       0.250
   0.25000000 -0.25000000  0.25000000       0.250
  -0.25000000 -0.25000000  0.25000000       0.250

 position of ions in fractional coordinates (direct lattice) 
   0.53802973  0.40677535  0.36056561
   0.39488736  0.48041419  0.43844223
   0.55247955  0.56594009  0.44246352
   0.52910849  0.41608705  0.53909463
   0.50283040  0.46639491  0.44509056

 position of ions in cartesian coordinates  (Angst):
   5.50739765  3.94809624  3.55130865
   4.10493810  4.66123224  4.31833662
   5.68614915  5.50039415  4.35794348
   5.47114052  4.01698194  5.30968951
   5.18438062  4.52275568  4.38381786



--------------------------------------------------------------------------------------------------------


 k-point  1 :   0.2500 0.2500 0.2500  plane waves:   17560
 k-point  2 :  -0.2500 0.2500 0.2500  plane waves:   17508
 k-point  3 :   0.2500-0.2500 0.2500  plane waves:   17552
 k-point  4 :  -0.2500-0.2500 0.2500  plane waves:   17546

 maximum and minimum number of plane-waves per node :     17560    17508

 maximum number of plane-waves:     17560
 maximum index in each direction: 
   IXMAX=   16   IYMAX=   16   IZMAX=   15
   IXMIN=  -16   IYMIN=  -16   IZMIN=  -16


 serial   3D FFT for wavefunctions
 parallel 3D FFT for charge:
    minimum data exchange during FFTs selected (reduces bandwidth)


 total amount of memory used by VASP MPI-rank0   259861. kBytes
=======================================================================

   base      :      30000. kBytes
   nonlr-proj:        145. kBytes
   fftplans  :      79272. kBytes
   grid      :     141424. kBytes
   one-center:         15. kBytes
   wavefun   :       9005. kBytes

     INWAV:  cpu time    0.0000: real time    0.0000
 Broyden mixing: mesh for mixing (old mesh)
   NGX = 33   NGY = 33   NGZ = 33
  (NGX  =140   NGY  =128   NGZ  =128)
  gives a total of  35937 points

 initial charge density was supplied:
 charge density of overlapping atoms calculated
 number of electron       8.0000000 magnetization 
 keeping initial charge density in first step


--------------------------------------------------------------------------------------------------------


 Maximum index for non-local projection operator          642
 Maximum index for augmentation-charges         3395 (set IRDMAX)


--------------------------------------------------------------------------------------------------------


 First call to EWALD:  gamma=   0.179
 Maximum number of real-space cells 3x 3x 3
 Maximum number of reciprocal cells 3x 3x 3

    FEWALD:  cpu time    0.0007: real time    0.0007


--------------------------------------- Iteration      1(   1)  ---------------------------------------


    POTLOK:  cpu time    1.4092: real time    1.4128
    SETDIJ:  cpu time    0.0063: real time    0.0063
     EDDAV:  cpu time    2.0589: real time    2.0638
       DOS:  cpu time    0.0003: real time    0.0003
    --------------------------------------------
      LOOP:  cpu time    3.4747: real time    3.4832

 eigenvalue-minimisations  :    96
 total energy-change (2. order) : 0.1821546E+02  (-0.1931213E+03)
 number of electron       8.0000000 magnetization 
 augmentation part        8.0000000 magnetization 

 Free energy of the ion-electron system (eV)
  ---------------------------------------------------
  alpha Z        PSCENC =         0.25076080
  Ewald energy   TEWEN  =       129.80808831
  -Hartree energ DENC   =      -243.86743115
  -exchange      EXHF   =         0.00000000
  -V(xc)+E(xc)   XCENC  =        22.07039888
  PAW double counting   =       117.05815612     -117.66307307
  entropy T*S    EENTRO =         0.00679239
  eigenvalues    EBANDS =       -86.48999044
  atomic energy  EATOM  =       197.04175453
  Solvation  Ediel_sol  =         0.00000000
  ---------------------------------------------------
  free energy    TOTEN  =        18.21545639 eV

  energy without entropy =       18.20866400  energy(sigma->0) =       18.21319226


--------------------------------------------------------------------------------------------------------




--------------------------------------- Iteration      1(   2)  ---------------------------------------


     EDDAV:  cpu time    1.4104: real time    1.4139
       DOS:  cpu time    0.0002: real time    0.0002
    --------------------------------------------
      LOOP:  cpu time    1.4107: real time    1.4141

 eigenvalue-minimisations  :    64
 total energy-change (2. order) :-0.3985164E+02  (-0.3985313E+02)
 number of electron       8.0000000 magnetization 
 augmentation part        8.0000000 magnetization 

 Free energy of the ion-electron system (eV)
  ---------------------------------------------------
  alpha Z        PSCENC =         0.25076080
  Ewald energy   TEWEN  =       129.80808831
  -Hartree energ DENC   =      -243.86743115
  -exchange      EXHF   =         0.00000000
  -V(xc)+E(xc)   XCENC  =        22.07039888
  PAW double counting   =       117.05815612     -117.66307307
  entropy T*S    EENTRO =         0.00457138
  eigenvalues    EBANDS =      -126.33940830
  atomic energy  EATOM  =       197.04175453
  Solvation  Ediel_sol  =         0.00000000
  ---------------------------------------------------
  free energy    TOTEN  =       -21.63618249 eV

  energy without entropy =      -21.64075387  energy(sigma->0) =      -21.63770628


--------------------------------------------------------------------------------------------------------




--------------------------------------- Iteration      1(   3)  ---------------------------------------


     EDDAV:  cpu time    1.4358: real time    1.4392
       DOS:  cpu time    0.0004: real time    0.0004
    --------------------------------------------
      LOOP:  cpu time    1.4361: real time    1.4395

 eigenvalue-minimisations  :    64
 total energy-change (2. order) :-0.5798955E+01  (-0.5805361E+01)
 number of electron       8.0000000 magnetization 
 augmentation part        8.0000000 magnetization 

 Free energy of the ion-electron system (eV)
  ---------------------------------------------------
  alpha Z        PSCENC =         0.25076080
  Ewald energy   TEWEN  =       129.80808831
  -Hartree energ DENC   =      -243.86743115
  -exchange      EXHF   =         0.00000000
  -V(xc)+E(xc)   XCENC  =        22.07039888
  PAW double counting   =       117.05815612     -117.66307307
  entropy T*S    EENTRO =         0.01980576
  eigenvalues    EBANDS =      -132.15359780
  atomic energy  EATOM  =       197.04175453
  Solvation  Ediel_sol  =         0.00000000
  ---------------------------------------------------
  free energy    TOTEN  =       -27.43513761 eV

  energy without entropy =      -27.45494336  energy(sigma->0) =      -27.44173953


--------------------------------------------------------------------------------------------------------




--------------------------------------- Iteration      1(   4)  ---------------------------------------


     EDDAV:  cpu time    2.6083: real time    2.6145
       DOS:  cpu time    0.0002: real time    0.0002
    --------------------------------------------
      LOOP:  cpu time    2.6086: real time    2.6147

 eigenvalue-minimisations  :   128
 total energy-change (2. order) :-0.2496604E+00  (-0.2476617E+00)
 number of electron       8.0000000 magnetization 
 augmentation part        8.0000000 magnetization 

 Free energy of the ion-electron system (eV)
  ---------------------------------------------------
  alpha Z        PSCENC =         0.25076080
  Ewald energy   TEWEN  =       129.80808831
  -Hartree energ DENC   =      -243.86743115
  -exchange      EXHF   =         0.00000000
  -V(xc)+E(xc)   XCENC  =        22.07039888
  PAW double counting   =       117.05815612     -117.66307307
  entropy T*S    EENTRO =         0.02093818
  eigenvalues    EBANDS =      -132.40439065
  atomic energy  EATOM  =       197.04175453
  Solvation  Ediel_sol  =         0.00000000
  ---------------------------------------------------
  free energy    TOTEN  =       -27.68479804 eV

  energy without entropy =      -27.70573622  energy(sigma->0) =      -27.69177744


--------------------------------------------------------------------------------------------------------




--------------------------------------- Iteration      1(   5)  ---------------------------------------


     EDDAV:  cpu time    2.0124: real time    2.0172
       DOS:  cpu time    0.0002: real time    0.0002
    CHARGE:  cpu time    0.1254: real time    0.1257
    MIXING:  cpu time    0.0339: real time    0.0340
    --------------------------------------------
      LOOP:  cpu time    2.1719: real time    2.1771

 eigenvalue-minimisations  :    96
 total energy-change (2. order) :-0.9854244E-04  (-0.9854093E-04)
 number of electron       8.0000001 magnetization 
 augmentation part        0.2289031 magnetization 

 Broyden mixing:
  rms(total) = 0.88958E+00    rms(broyden)= 0.88939E+00
  rms(prec ) = 0.12686E+01
  weight for this iteration     100.00

 Free energy of the ion-electron system (eV)
  ---------------------------------------------------
  alpha Z        PSCENC =         0.25076080
  Ewald energy   TEWEN  =       129.80808831
  -Hartree energ DENC   =      -243.86743115
  -exchange      EXHF   =         0.00000000
  -V(xc)+E(xc)   XCENC  =        22.07039888
  PAW double counting   =       117.05815612     -117.66307307
  entropy T*S    EENTRO =         0.02093965
  eigenvalues    EBANDS =      -132.40449067
  atomic energy  EATOM  =       197.04175453
  Solvation  Ediel_sol  =         0.00000000
  ---------------------------------------------------
  free energy    TOTEN  =       -27.68489659 eV

  energy without entropy =      -27.70583624  energy(sigma->0) =      -27.69187647


--------------------------------------------------------------------------------------------------------




--------------------------------------- Iteration      1(   6)  ---------------------------------------


    POTLOK:  cpu time    1.4208: real time    1.4241
    SETDIJ:  cpu time    0.0062: real time    0.0062
    EDDIAG:  cpu time    0.2922: real time    0.2929
  RMM-DIIS:  cpu time    1.0100: real time    1.0124
    ORTHCH:  cpu time    0.0111: real time    0.0112
       DOS:  cpu time    0.0002: real time    0.0002
    CHARGE:  cpu time    0.1195: real time    0.1198
    MIXING:  cpu time    0.0342: real time    0.0343
    --------------------------------------------
      LOOP:  cpu time    2.8943: real time    2.9012

 eigenvalue-minimisations  :    64
 total energy-change (2. order) : 0.3026915E+01  (-0.5642883E+00)
 number of electron       8.0000000 magnetization 
 augmentation part        0.2018029 magnetization 

 Broyden mixing:
  rms(total) = 0.43269E+00    rms(broyden)= 0.43261E+00
  rms(prec ) = 0.56905E+00
  weight for this iteration     100.00

 eigenvalues of (default mixing * dielectric matrix)
  average eigenvalue GAMMA=   1.3126
  1.3126

 Free energy of the ion-electron system (eV)
  ---------------------------------------------------
  alpha Z        PSCENC =         0.25076080
  Ewald energy   TEWEN  =       129.80808831
  -Hartree energ DENC   =      -264.03592034
  -exchange      EXHF   =         0.00000000
  -V(xc)+E(xc)   XCENC  =        23.29405678
  PAW double counting   =       235.30882206     -236.09462207
  entropy T*S    EENTRO =         0.03376236
  eigenvalues    EBANDS =      -110.26468447
  atomic energy  EATOM  =       197.04175453
  Solvation  Ediel_sol  =         0.00000000
  ---------------------------------------------------
  free energy    TOTEN  =       -24.65798204 eV

  energy without entropy =      -24.69174441  energy(sigma->0) =      -24.66923616


--------------------------------------------------------------------------------------------------------




--------------------------------------- Iteration      1(   7)  ---------------------------------------


    POTLOK:  cpu time    1.4141: real time    1.4175
    SETDIJ:  cpu time    0.0062: real time    0.0062
    EDDIAG:  cpu time    0.2965: real time    0.2972
  RMM-DIIS:  cpu time    1.0058: real time    1.0082
    ORTHCH:  cpu time    0.0105: real time    0.0105
       DOS:  cpu time    0.0002: real time    0.0002
    CHARGE:  cpu time    0.1115: real time    0.1118
    MIXING:  cpu time    0.0353: real time    0.0353
    --------------------------------------------
      LOOP:  cpu time    2.8800: real time    2.8868

 eigenvalue-minimisations  :    64
 total energy-change (2. order) : 0.5218511E+00  (-0.1336049E+00)
 number of electron       8.0000000 magnetization 
 augmentation part        0.1907861 magnetization 

 Broyden mixing:
  rms(total) = 0.22928E+00    rms(broyden)= 0.22922E+00
  rms(prec ) = 0.28088E+00
  weight for this iteration     100.00

 eigenvalues of (default mixing * dielectric matrix)
  average eigenvalue GAMMA=   1.6610
  1.6330  1.6891

 Free energy of the ion-electron system (eV)
  ---------------------------------------------------
  alpha Z        PSCENC =         0.25076080
  Ewald energy   TEWEN  =       129.80808831
  -Hartree energ DENC   =      -276.15844645
  -exchange      EXHF   =         0.00000000
  -V(xc)+E(xc)   XCENC  =        24.18122581
  PAW double counting   =       358.55411745     -359.38260737
  entropy T*S    EENTRO =         0.03741064
  eigenvalues    EBANDS =       -98.46843464
  atomic energy  EATOM  =       197.04175453
  Solvation  Ediel_sol  =         0.00000000
  ---------------------------------------------------
  free energy    TOTEN  =       -24.13613092 eV

  energy without entropy =      -24.17354155  energy(sigma->0) =      -24.14860113


--------------------------------------------------------------------------------------------------------




--------------------------------------- Iteration      1(   8)  ---------------------------------------


    POTLOK:  cpu time    1.4205: real time    1.4239
    SETDIJ:  cpu time    0.0064: real time    0.0065
    EDDIAG:  cpu time    0.3043: real time    0.3050
  RMM-DIIS:  cpu time    1.0524: real time    1.0549
    ORTHCH:  cpu time    0.0105: real time    0.0106
       DOS:  cpu time    0.0002: real time    0.0002
    CHARGE:  cpu time    0.1193: real time    0.1195
    MIXING:  cpu time    0.0357: real time    0.0358
    --------------------------------------------
      LOOP:  cpu time    2.9495: real time    2.9565

 eigenvalue-minimisations  :    64
 total energy-change (2. order) : 0.1283898E+00  (-0.1264989E-01)
 number of electron       8.0000000 magnetization 
 augmentation part        0.1896178 magnetization 

 Broyden mixing:
  rms(total) = 0.67642E-01    rms(broyden)= 0.67601E-01
  rms(prec ) = 0.10038E+00
  weight for this iteration     100.00

 eigenvalues of (default mixing * dielectric matrix)
  average eigenvalue GAMMA=   1.4633
  2.2332  1.4596  0.6972

 Free energy of the ion-electron system (eV)
  ---------------------------------------------------
  alpha Z        PSCENC =         0.25076080
  Ewald energy   TEWEN  =       129.80808831
  -Hartree energ DENC   =      -280.51440623
  -exchange      EXHF   =         0.00000000
  -V(xc)+E(xc)   XCENC  =        24.61314157
  PAW double counting   =       440.96824134     -441.76940662
  entropy T*S    EENTRO =         0.03351611
  eigenvalues    EBANDS =       -94.43943096
  atomic energy  EATOM  =       197.04175453
  Solvation  Ediel_sol  =         0.00000000
  ---------------------------------------------------
  free energy    TOTEN  =       -24.00774115 eV

  energy without entropy =      -24.04125726  energy(sigma->0) =      -24.01891318


--------------------------------------------------------------------------------------------------------




--------------------------------------- Iteration      1(   9)  ---------------------------------------


    POTLOK:  cpu time    1.4004: real time    1.4037
    SETDIJ:  cpu time    0.0061: real time    0.0061
    EDDIAG:  cpu time    0.2900: real time    0.2907
  RMM-DIIS:  cpu time    1.0229: real time    1.0253
    ORTHCH:  cpu time    0.0110: real time    0.0110
       DOS:  cpu time    0.0002: real time    0.0002
    CHARGE:  cpu time    0.1206: real time    0.1209
    MIXING:  cpu time    0.0358: real time    0.0359
    --------------------------------------------
      LOOP:  cpu time    2.8872: real time    2.8940

 eigenvalue-minimisations  :    64
 total energy-change (2. order) : 0.2233679E-01  (-0.2418819E-02)
 number of electron       8.0000000 magnetization 
 augmentation part        0.1891004 magnetization 

 Broyden mixing:
  rms(total) = 0.52520E-01    rms(broyden)= 0.52508E-01
  rms(prec ) = 0.78749E-01
  weight for this iteration     100.00

 eigenvalues of (default mixing * dielectric matrix)
  average eigenvalue GAMMA=   1.3241
  2.1690  1.4502  0.8386  0.8386

 Free energy of the ion-electron system (eV)
  ---------------------------------------------------
  alpha Z        PSCENC =         0.25076080
  Ewald energy   TEWEN  =       129.80808831
  -Hartree energ DENC   =      -282.31738354
  -exchange      EXHF   =         0.00000000
  -V(xc)+E(xc)   XCENC  =        24.76136550
  PAW double counting   =       464.03357985     -464.83006374
  entropy T*S    EENTRO =         0.03977411
  eigenvalues    EBANDS =       -92.77328018
  atomic energy  EATOM  =       197.04175453
  Solvation  Ediel_sol  =         0.00000000
  ---------------------------------------------------
  free energy    TOTEN  =       -23.98540436 eV

  energy without entropy =      -24.02517847  energy(sigma->0) =      -23.99866240


--------------------------------------------------------------------------------------------------------




--------------------------------------- Iteration      1(  10)  ---------------------------------------


    POTLOK:  cpu time    1.4092: real time    1.4125
    SETDIJ:  cpu time    0.0061: real time    0.0062
    EDDIAG:  cpu time    0.2515: real time    0.2521
  RMM-DIIS:  cpu time    1.0077: real time    1.0101
    ORTHCH:  cpu time    0.0108: real time    0.0108
       DOS:  cpu time    0.0002: real time    0.0002
    CHARGE:  cpu time    0.1229: real time    0.1232
    MIXING:  cpu time    0.0374: real time    0.0375
    --------------------------------------------
      LOOP:  cpu time    2.8460: real time    2.8527

 eigenvalue-minimisations  :    64
 total energy-change (2. order) : 0.4006502E-02  (-0.1047326E-02)
 number of electron       8.0000000 magnetization 
 augmentation part        0.1885781 magnetization 

 Broyden mixing:
  rms(total) = 0.38438E-01    rms(broyden)= 0.38356E-01
  rms(prec ) = 0.58941E-01
  weight for this iteration     100.00

 eigenvalues of (default mixing * dielectric matrix)
  average eigenvalue GAMMA=   1.2427
  2.0742  1.5259  1.1313  0.7411  0.7411

 Free energy of the ion-electron system (eV)
  ---------------------------------------------------
  alpha Z        PSCENC =         0.25076080
  Ewald energy   TEWEN  =       129.80808831
  -Hartree energ DENC   =      -283.00484019
  -exchange      EXHF   =         0.00000000
  -V(xc)+E(xc)   XCENC  =        24.78620163
  PAW double counting   =       460.90536653     -461.70449963
  entropy T*S    EENTRO =         0.03758662
  eigenvalues    EBANDS =       -92.10181647
  atomic energy  EATOM  =       197.04175453
  Solvation  Ediel_sol  =         0.00000000
  ---------------------------------------------------
  free energy    TOTEN  =       -23.98139786 eV

  energy without entropy =      -24.01898448  energy(sigma->0) =      -23.99392673


--------------------------------------------------------------------------------------------------------




--------------------------------------- Iteration      1(  11)  ---------------------------------------


    POTLOK:  cpu time    1.4116: real time    1.4150
    SETDIJ:  cpu time    0.0061: real time    0.0061
    EDDIAG:  cpu time    0.2877: real time    0.2884
  RMM-DIIS:  cpu time    0.9992: real time    1.0016
    ORTHCH:  cpu time    0.0106: real time    0.0106
       DOS:  cpu time    0.0002: real time    0.0002
    CHARGE:  cpu time    0.1187: real time    0.1190
    MIXING:  cpu time    0.0376: real time    0.0377
    --------------------------------------------
      LOOP:  cpu time    2.8718: real time    2.8786

 eigenvalue-minimisations  :    64
 total energy-change (2. order) : 0.2141284E-02  (-0.3670714E-03)
 number of electron       8.0000000 magnetization 
 augmentation part        0.1882088 magnetization 

 Broyden mixing:
  rms(total) = 0.14115E-01    rms(broyden)= 0.14103E-01
  rms(prec ) = 0.28261E-01
  weight for this iteration     100.00

 eigenvalues of (default mixing * dielectric matrix)
  average eigenvalue GAMMA=   1.3846
  2.3370  2.3370  1.2608  0.8703  0.8703  0.6321

 Free energy of the ion-electron system (eV)
  ---------------------------------------------------
  alpha Z        PSCENC =         0.25076080
  Ewald energy   TEWEN  =       129.80808831
  -Hartree energ DENC   =      -283.92498952
  -exchange      EXHF   =         0.00000000
  -V(xc)+E(xc)   XCENC  =        24.82567508
  PAW double counting   =       459.08781386     -459.88726251
  entropy T*S    EENTRO =         0.03802944
  eigenvalues    EBANDS =       -91.21912656
  atomic energy  EATOM  =       197.04175453
  Solvation  Ediel_sol  =         0.00000000
  ---------------------------------------------------
  free energy    TOTEN  =       -23.97925657 eV

  energy without entropy =      -24.01728601  energy(sigma->0) =      -23.99193305


--------------------------------------------------------------------------------------------------------




--------------------------------------- Iteration      1(  12)  ---------------------------------------


    POTLOK:  cpu time    1.3544: real time    1.3578
    SETDIJ:  cpu time    0.0065: real time    0.0065
    EDDIAG:  cpu time    0.2968: real time    0.2975
  RMM-DIIS:  cpu time    1.0244: real time    1.0269
    ORTHCH:  cpu time    0.0107: real time    0.0108
       DOS:  cpu time    0.0002: real time    0.0002
    CHARGE:  cpu time    0.1163: real time    0.1166
    MIXING:  cpu time    0.0384: real time    0.0384
    --------------------------------------------
      LOOP:  cpu time    2.8478: real time    2.8547

 eigenvalue-minimisations  :    64
 total energy-change (2. order) : 0.3097477E-02  (-0.2361828E-03)
 number of electron       8.0000000 magnetization 
 augmentation part        0.1881451 magnetization 

 Broyden mixing:
  rms(total) = 0.22401E-01    rms(broyden)= 0.22374E-01
  rms(prec ) = 0.32133E-01
  weight for this iteration     100.00

 eigenvalues of (default mixing * dielectric matrix)
  average eigenvalue GAMMA=   1.4253
  3.0384  2.4570  1.1742  1.0655  0.8360  0.7028  0.7028

 Free energy of the ion-electron system (eV)
  ---------------------------------------------------
  alpha Z        PSCENC =         0.25076080
  Ewald energy   TEWEN  =       129.80808831
  -Hartree energ DENC   =      -284.74010763
  -exchange      EXHF   =         0.00000000
  -V(xc)+E(xc)   XCENC  =        24.85949278
  PAW double counting   =       456.64789826     -457.44472777
  entropy T*S    EENTRO =         0.03915433
  eigenvalues    EBANDS =       -90.43847271
  atomic energy  EATOM  =       197.04175453
  Solvation  Ediel_sol  =         0.00000000
  ---------------------------------------------------
  free energy    TOTEN  =       -23.97615910 eV

  energy without entropy =      -24.01531342  energy(sigma->0) =      -23.98921054


--------------------------------------------------------------------------------------------------------




--------------------------------------- Iteration      1(  13)  ---------------------------------------


    POTLOK:  cpu time    1.3053: real time    1.3084
    SETDIJ:  cpu time    0.0061: real time    0.0061
    EDDIAG:  cpu time    0.2957: real time    0.2964
  RMM-DIIS:  cpu time    1.0275: real time    1.0300
    ORTHCH:  cpu time    0.0109: real time    0.0109
       DOS:  cpu time    0.0002: real time    0.0002
    CHARGE:  cpu time    0.1210: real time    0.1213
    MIXING:  cpu time    0.0396: real time    0.0397
    --------------------------------------------
      LOOP:  cpu time    2.8063: real time    2.8130

 eigenvalue-minimisations  :    64
 total energy-change (2. order) :-0.6567095E-03  (-0.5522890E-04)
 number of electron       8.0000000 magnetization 
 augmentation part        0.1880846 magnetization 

 Broyden mixing:
  rms(total) = 0.70010E-02    rms(broyden)= 0.69698E-02
  rms(prec ) = 0.12562E-01
  weight for this iteration     100.00

 eigenvalues of (default mixing * dielectric matrix)
  average eigenvalue GAMMA=   1.5130
  3.6435  2.3810  1.7370  1.1828  1.0445  0.7296  0.7296  0.6559

 Free energy of the ion-electron system (eV)
  ---------------------------------------------------
  alpha Z        PSCENC =         0.25076080
  Ewald energy   TEWEN  =       129.80808831
  -Hartree energ DENC   =      -285.05433692
  -exchange      EXHF   =         0.00000000
  -V(xc)+E(xc)   XCENC  =        24.86930746
  PAW double counting   =       455.22235571     -456.01844398
  entropy T*S    EENTRO =         0.03795000
  eigenvalues    EBANDS =       -90.13425172
  atomic energy  EATOM  =       197.04175453
  Solvation  Ediel_sol  =         0.00000000
  ---------------------------------------------------
  free energy    TOTEN  =       -23.97681581 eV

  energy without entropy =      -24.01476581  energy(sigma->0) =      -23.98946581


--------------------------------------------------------------------------------------------------------




--------------------------------------- Iteration      1(  14)  ---------------------------------------


    POTLOK:  cpu time    1.2589: real time    1.2619
    SETDIJ:  cpu time    0.0063: real time    0.0064
    EDDIAG:  cpu time    0.2864: real time    0.2870
  RMM-DIIS:  cpu time    1.0113: real time    1.0137
    ORTHCH:  cpu time    0.0107: real time    0.0107
       DOS:  cpu time    0.0002: real time    0.0002
    CHARGE:  cpu time    0.1271: real time    0.1274
    MIXING:  cpu time    0.0405: real time    0.0405
    --------------------------------------------
      LOOP:  cpu time    2.7414: real time    2.7479

 eigenvalue-minimisations  :    64
 total energy-change (2. order) :-0.5510191E-02  (-0.1083818E-03)
 number of electron       8.0000000 magnetization 
 augmentation part        0.1879674 magnetization 

 Broyden mixing:
  rms(total) = 0.21589E-01    rms(broyden)= 0.21578E-01
  rms(prec ) = 0.29151E-01
  weight for this iteration     100.00

 eigenvalues of (default mixing * dielectric matrix)
  average eigenvalue GAMMA=   1.6147
  4.1635  2.7456  2.1592  1.2852  1.0760  1.0760  0.7220  0.7220  0.5832

 Free energy of the ion-electron system (eV)
  ---------------------------------------------------
  alpha Z        PSCENC =         0.25076080
  Ewald energy   TEWEN  =       129.80808831
  -Hartree energ DENC   =      -285.33638043
  -exchange      EXHF   =         0.00000000
  -V(xc)+E(xc)   XCENC  =        24.87464300
  PAW double counting   =       454.78738346     -455.58383207
  entropy T*S    EENTRO =         0.03755128
  eigenvalues    EBANDS =       -89.86229487
  atomic energy  EATOM  =       197.04175453
  Solvation  Ediel_sol  =         0.00000000
  ---------------------------------------------------
  free energy    TOTEN  =       -23.98232600 eV

  energy without entropy =      -24.01987728  energy(sigma->0) =      -23.99484309


--------------------------------------------------------------------------------------------------------




--------------------------------------- Iteration      1(  15)  ---------------------------------------


    POTLOK:  cpu time    1.2365: real time    1.2394
    SETDIJ:  cpu time    0.0062: real time    0.0062
    EDDIAG:  cpu time    0.2902: real time    0.2909
  RMM-DIIS:  cpu time    1.0152: real time    1.0176
    ORTHCH:  cpu time    0.0105: real time    0.0106
       DOS:  cpu time    0.0002: real time    0.0002
    CHARGE:  cpu time    0.1160: real time    0.1163
    MIXING:  cpu time    0.0413: real time    0.0414
    --------------------------------------------
      LOOP:  cpu time    2.7160: real time    2.7224

 eigenvalue-minimisations  :    64
 total energy-change (2. order) :-0.3005974E-02  (-0.1143407E-03)
 number of electron       8.0000000 magnetization 
 augmentation part        0.1880369 magnetization 

 Broyden mixing:
  rms(total) = 0.95612E-02    rms(broyden)= 0.95204E-02
  rms(prec ) = 0.12954E-01
  weight for this iteration     100.00

 eigenvalues of (default mixing * dielectric matrix)
  average eigenvalue GAMMA=   1.7616
  5.0629  3.1028  2.3266  1.4636  1.3154  1.3154  0.9924  0.7183  0.7183  0.6002

 Free energy of the ion-electron system (eV)
  ---------------------------------------------------
  alpha Z        PSCENC =         0.25076080
  Ewald energy   TEWEN  =       129.80808831
  -Hartree energ DENC   =      -285.27480553
  -exchange      EXHF   =         0.00000000
  -V(xc)+E(xc)   XCENC  =        24.86492035
  PAW double counting   =       454.46401169     -455.26002345
  entropy T*S    EENTRO =         0.03836825
  eigenvalues    EBANDS =       -89.91840692
  atomic energy  EATOM  =       197.04175453
  Solvation  Ediel_sol  =         0.00000000
  ---------------------------------------------------
  free energy    TOTEN  =       -23.98533197 eV

  energy without entropy =      -24.02370022  energy(sigma->0) =      -23.99812139


--------------------------------------------------------------------------------------------------------




--------------------------------------- Iteration      1(  16)  ---------------------------------------


    POTLOK:  cpu time    1.2093: real time    1.2122
    SETDIJ:  cpu time    0.0063: real time    0.0064
    EDDIAG:  cpu time    0.3031: real time    0.3038
  RMM-DIIS:  cpu time    1.0267: real time    1.0291
    ORTHCH:  cpu time    0.0108: real time    0.0108
       DOS:  cpu time    0.0002: real time    0.0002
    CHARGE:  cpu time    0.1203: real time    0.1206
    MIXING:  cpu time    0.0422: real time    0.0423
    --------------------------------------------
      LOOP:  cpu time    2.7189: real time    2.7254

 eigenvalue-minimisations  :    64
 total energy-change (2. order) :-0.1360857E-02  (-0.2360718E-04)
 number of electron       8.0000000 magnetization 
 augmentation part        0.1880424 magnetization 

 Broyden mixing:
  rms(total) = 0.44045E-02    rms(broyden)= 0.44035E-02
  rms(prec ) = 0.60764E-02
  weight for this iteration     100.00

 eigenvalues of (default mixing * dielectric matrix)
  average eigenvalue GAMMA=   1.8055
  5.7430  3.3026  2.1496  2.1496  1.3433  1.0843  1.0843  0.9603  0.7202  0.7202
  0.6027

 Free energy of the ion-electron system (eV)
  ---------------------------------------------------
  alpha Z        PSCENC =         0.25076080
  Ewald energy   TEWEN  =       129.80808831
  -Hartree energ DENC   =      -285.29405269
  -exchange      EXHF   =         0.00000000
  -V(xc)+E(xc)   XCENC  =        24.86319438
  PAW double counting   =       454.72331825     -455.51914930
  entropy T*S    EENTRO =         0.03815115
  eigenvalues    EBANDS =       -89.89875825
  atomic energy  EATOM  =       197.04175453
  Solvation  Ediel_sol  =         0.00000000
  ---------------------------------------------------
  free energy    TOTEN  =       -23.98669283 eV

  energy without entropy =      -24.02484398  energy(sigma->0) =      -23.99940988


--------------------------------------------------------------------------------------------------------




--------------------------------------- Iteration      1(  17)  ---------------------------------------


    POTLOK:  cpu time    1.2782: real time    1.2813
    SETDIJ:  cpu time    0.0057: real time    0.0057
    EDDIAG:  cpu time    0.2469: real time    0.2475
  RMM-DIIS:  cpu time    1.0654: real time    1.0680
    ORTHCH:  cpu time    0.0112: real time    0.0112
       DOS:  cpu time    0.0002: real time    0.0002
    CHARGE:  cpu time    0.1303: real time    0.1306
    MIXING:  cpu time    0.0435: real time    0.0436
    --------------------------------------------
      LOOP:  cpu time    2.7814: real time    2.7881

 eigenvalue-minimisations  :    64
 total energy-change (2. order) :-0.6825799E-03  (-0.1482991E-04)
 number of electron       8.0000000 magnetization 
 augmentation part        0.1879885 magnetization 

 Broyden mixing:
  rms(total) = 0.22011E-02    rms(broyden)= 0.21936E-02
  rms(prec ) = 0.30242E-02
  weight for this iteration     100.00

 eigenvalues of (default mixing * dielectric matrix)
  average eigenvalue GAMMA=   1.9462
  6.4497  3.2974  2.5649  2.5649  1.9450  1.2763  1.2763  0.7197  0.7197  0.9701
  0.9701  0.6006

 Free energy of the ion-electron system (eV)
  ---------------------------------------------------
  alpha Z        PSCENC =         0.25076080
  Ewald energy   TEWEN  =       129.80808831
  -Hartree energ DENC   =      -285.31839884
  -exchange      EXHF   =         0.00000000
  -V(xc)+E(xc)   XCENC  =        24.86211133
  PAW double counting   =       454.56773486     -455.36410700
  entropy T*S    EENTRO =         0.03804153
  eigenvalues    EBANDS =       -89.87336092
  atomic energy  EATOM  =       197.04175453
  Solvation  Ediel_sol  =         0.00000000
  ---------------------------------------------------
  free energy    TOTEN  =       -23.98737541 eV

  energy without entropy =      -24.02541694  energy(sigma->0) =      -24.00005592


--------------------------------------------------------------------------------------------------------




--------------------------------------- Iteration      1(  18)  ---------------------------------------


    POTLOK:  cpu time    1.2054: real time    1.2082
    SETDIJ:  cpu time    0.0062: real time    0.0062
    EDDIAG:  cpu time    0.2873: real time    0.2880
  RMM-DIIS:  cpu time    1.0252: real time    1.0277
    ORTHCH:  cpu time    0.0106: real time    0.0106
       DOS:  cpu time    0.0002: real time    0.0002
    CHARGE:  cpu time    0.1225: real time    0.1228
    MIXING:  cpu time    0.0448: real time    0.0449
    --------------------------------------------
      LOOP:  cpu time    2.7021: real time    2.7085

 eigenvalue-minimisations  :    64
 total energy-change (2. order) :-0.3530455E-03  (-0.6418159E-05)
 number of electron       8.0000000 magnetization 
 augmentation part        0.1879570 magnetization 

 Broyden mixing:
  rms(total) = 0.22894E-02    rms(broyden)= 0.22871E-02
  rms(prec ) = 0.30522E-02
  weight for this iteration     100.00

 eigenvalues of (default mixing * dielectric matrix)
  average eigenvalue GAMMA=   1.9344
  7.0906  4.2687  2.6851  2.3519  1.4266  1.2619  1.2619  0.7205  0.7205  0.5990
  1.0471  0.8569  0.8569

 Free energy of the ion-electron system (eV)
  ---------------------------------------------------
  alpha Z        PSCENC =         0.25076080
  Ewald energy   TEWEN  =       129.80808831
  -Hartree energ DENC   =      -285.33902666
  -exchange      EXHF   =         0.00000000
  -V(xc)+E(xc)   XCENC  =        24.86319610
  PAW double counting   =       454.83831413     -455.63466076
  entropy T*S    EENTRO =         0.03797725
  eigenvalues    EBANDS =       -89.85413216
  atomic energy  EATOM  =       197.04175453
  Solvation  Ediel_sol  =         0.00000000
  ---------------------------------------------------
  free energy    TOTEN  =       -23.98772845 eV

  energy without entropy =      -24.02570570  energy(sigma->0) =      -24.00038754


--------------------------------------------------------------------------------------------------------




--------------------------------------- Iteration      1(  19)  ---------------------------------------


    POTLOK:  cpu time    1.3337: real time    1.3397
    SETDIJ:  cpu time    0.0066: real time    0.0066
    EDDIAG:  cpu time    0.2862: real time    0.2869
  RMM-DIIS:  cpu time    1.0264: real time    1.0288
    ORTHCH:  cpu time    0.0106: real time    0.0107
       DOS:  cpu time    0.0002: real time    0.0002
    CHARGE:  cpu time    0.1194: real time    0.1197
    MIXING:  cpu time    0.0458: real time    0.0459
    --------------------------------------------
      LOOP:  cpu time    2.8288: real time    2.8384

 eigenvalue-minimisations  :    64
 total energy-change (2. order) :-0.7622134E-04  (-0.1681558E-05)
 number of electron       8.0000000 magnetization 
 augmentation part        0.1879732 magnetization 

 Broyden mixing:
  rms(total) = 0.52084E-03    rms(broyden)= 0.51975E-03
  rms(prec ) = 0.73749E-03
  weight for this iteration     100.00

 eigenvalues of (default mixing * dielectric matrix)
  average eigenvalue GAMMA=   1.9646
  7.3179  4.5307  2.4727  1.9968  1.9968  1.7888  1.3408  1.3408  0.7202  0.7202
  0.5997  0.9638  0.8579  0.8579

 Free energy of the ion-electron system (eV)
  ---------------------------------------------------
  alpha Z        PSCENC =         0.25076080
  Ewald energy   TEWEN  =       129.80808831
  -Hartree energ DENC   =      -285.31405370
  -exchange      EXHF   =         0.00000000
  -V(xc)+E(xc)   XCENC  =        24.86183866
  PAW double counting   =       454.85939806     -455.65554408
  entropy T*S    EENTRO =         0.03801373
  eigenvalues    EBANDS =       -89.87806099
  atomic energy  EATOM  =       197.04175453
  Solvation  Ediel_sol  =         0.00000000
  ---------------------------------------------------
  free energy    TOTEN  =       -23.98780468 eV

  energy without entropy =      -24.02581841  energy(sigma->0) =      -24.00047592


--------------------------------------------------------------------------------------------------------




--------------------------------------- Iteration      1(  20)  ---------------------------------------


    POTLOK:  cpu time    1.2196: real time    1.2225
    SETDIJ:  cpu time    0.0063: real time    0.0063
    EDDIAG:  cpu time    0.2573: real time    0.2579
  RMM-DIIS:  cpu time    1.1078: real time    1.1104
    ORTHCH:  cpu time    0.0109: real time    0.0109
       DOS:  cpu time    0.0002: real time    0.0002
    CHARGE:  cpu time    0.1202: real time    0.1205
    MIXING:  cpu time    0.0468: real time    0.0469
    --------------------------------------------
      LOOP:  cpu time    2.7691: real time    2.7756

 eigenvalue-minimisations  :    64
 total energy-change (2. order) :-0.4753604E-04  (-0.9506159E-06)
 number of electron       8.0000000 magnetization 
 augmentation part        0.1879925 magnetization 

 Broyden mixing:
  rms(total) = 0.43797E-03    rms(broyden)= 0.43709E-03
  rms(prec ) = 0.58377E-03
  weight for this iteration     100.00

 eigenvalues of (default mixing * dielectric matrix)
  average eigenvalue GAMMA=   2.1083
  8.1792  5.1670  3.6580  2.5393  2.3615  0.7202  0.7202  1.2367  1.2367  0.5998
  1.0809  1.0809  1.1534  1.0068  0.8839

 Free energy of the ion-electron system (eV)
  ---------------------------------------------------
  alpha Z        PSCENC =         0.25076080
  Ewald energy   TEWEN  =       129.80808831
  -Hartree energ DENC   =      -285.30302975
  -exchange      EXHF   =         0.00000000
  -V(xc)+E(xc)   XCENC  =        24.86131726
  PAW double counting   =       454.79313402     -455.58915050
  entropy T*S    EENTRO =         0.03802256
  eigenvalues    EBANDS =       -89.88874944
  atomic energy  EATOM  =       197.04175453
  Solvation  Ediel_sol  =         0.00000000
  ---------------------------------------------------
  free energy    TOTEN  =       -23.98785221 eV

  energy without entropy =      -24.02587477  energy(sigma->0) =      -24.00052640


--------------------------------------------------------------------------------------------------------




--------------------------------------- Iteration      1(  21)  ---------------------------------------


    POTLOK:  cpu time    1.2913: real time    1.2944
    SETDIJ:  cpu time    0.0063: real time    0.0064
    EDDIAG:  cpu time    0.2715: real time    0.2722
  RMM-DIIS:  cpu time    0.9740: real time    0.9762
    ORTHCH:  cpu time    0.0106: real time    0.0106
       DOS:  cpu time    0.0003: real time    0.0003
    CHARGE:  cpu time    0.1224: real time    0.1227
    MIXING:  cpu time    0.0483: real time    0.0485
    --------------------------------------------
      LOOP:  cpu time    2.7248: real time    2.7312

 eigenvalue-minimisations  :    60
 total energy-change (2. order) :-0.3602520E-04  (-0.3526104E-06)
 number of electron       8.0000000 magnetization 
 augmentation part        0.1879843 magnetization 

 Broyden mixing:
  rms(total) = 0.11118E-03    rms(broyden)= 0.11114E-03
  rms(prec ) = 0.14768E-03
  weight for this iteration     100.00

 eigenvalues of (default mixing * dielectric matrix)
  average eigenvalue GAMMA=   2.0486
  8.2687  5.1823  3.6140  2.5574  2.2071  1.4205  1.4205  1.1459  1.1459  0.7202
  0.7202  0.5998  0.9727  0.9727  0.9151  0.9151

 Free energy of the ion-electron system (eV)
  ---------------------------------------------------
  alpha Z        PSCENC =         0.25076080
  Ewald energy   TEWEN  =       129.80808831
  -Hartree energ DENC   =      -285.31521205
  -exchange      EXHF   =         0.00000000
  -V(xc)+E(xc)   XCENC  =        24.86182546
  PAW double counting   =       454.71413601     -455.51027233
  entropy T*S    EENTRO =         0.03802081
  eigenvalues    EBANDS =       -89.87698978
  atomic energy  EATOM  =       197.04175453
  Solvation  Ediel_sol  =         0.00000000
  ---------------------------------------------------
  free energy    TOTEN  =       -23.98788824 eV

  energy without entropy =      -24.02590905  energy(sigma->0) =      -24.00056184


--------------------------------------------------------------------------------------------------------




--------------------------------------- Iteration      1(  22)  ---------------------------------------


    POTLOK:  cpu time    1.3647: real time    1.3683
    SETDIJ:  cpu time    0.0062: real time    0.0062
    EDDIAG:  cpu time    0.2742: real time    0.2751
  RMM-DIIS:  cpu time    0.7866: real time    0.7887
    ORTHCH:  cpu time    0.0107: real time    0.0107
       DOS:  cpu time    0.0002: real time    0.0002
    CHARGE:  cpu time    0.1119: real time    0.1123
    MIXING:  cpu time    0.0478: real time    0.0480
    --------------------------------------------
      LOOP:  cpu time    2.6023: real time    2.6095

 eigenvalue-minimisations  :    48
 total energy-change (2. order) :-0.1663448E-05  (-0.4200030E-07)
 number of electron       8.0000000 magnetization 
 augmentation part        0.1879826 magnetization 

 Broyden mixing:
  rms(total) = 0.98341E-04    rms(broyden)= 0.98244E-04
  rms(prec ) = 0.12732E-03
  weight for this iteration     100.00

 eigenvalues of (default mixing * dielectric matrix)
  average eigenvalue GAMMA=   2.1155
  8.2908  5.3885  3.6336  2.8709  2.7026  2.2148  1.3263  1.3263  1.1569  1.1569
  0.7202  0.7202  0.5998  1.0575  0.9592  0.9194  0.9194

 Free energy of the ion-electron system (eV)
  ---------------------------------------------------
  alpha Z        PSCENC =         0.25076080
  Ewald energy   TEWEN  =       129.80808831
  -Hartree energ DENC   =      -285.31518271
  -exchange      EXHF   =         0.00000000
  -V(xc)+E(xc)   XCENC  =        24.86175581
  PAW double counting   =       454.70401548     -455.50016896
  entropy T*S    EENTRO =         0.03802405
  eigenvalues    EBANDS =       -89.87693722
  atomic energy  EATOM  =       197.04175453
  Solvation  Ediel_sol  =         0.00000000
  ---------------------------------------------------
  free energy    TOTEN  =       -23.98788990 eV

  energy without entropy =      -24.02591395  energy(sigma->0) =      -24.00056458


--------------------------------------------------------------------------------------------------------




--------------------------------------- Iteration      1(  23)  ---------------------------------------


    POTLOK:  cpu time    1.4507: real time    1.4547
    SETDIJ:  cpu time    0.0112: real time    0.0112
    EDDIAG:  cpu time    0.3654: real time    0.3663
  RMM-DIIS:  cpu time    0.7971: real time    0.7990
    ORTHCH:  cpu time    0.0110: real time    0.0110
       DOS:  cpu time    0.0002: real time    0.0002
    CHARGE:  cpu time    0.1156: real time    0.1159
    MIXING:  cpu time    0.0519: real time    0.0520
    --------------------------------------------
      LOOP:  cpu time    2.8032: real time    2.8103

 eigenvalue-minimisations  :    48
 total energy-change (2. order) :-0.2807062E-05  (-0.1388890E-07)
 number of electron       8.0000000 magnetization 
 augmentation part        0.1879839 magnetization 

 Broyden mixing:
  rms(total) = 0.53627E-04    rms(broyden)= 0.53525E-04
  rms(prec ) = 0.69849E-04
  weight for this iteration     100.00

 eigenvalues of (default mixing * dielectric matrix)
  average eigenvalue GAMMA=   2.0999
  8.3815  5.4020  4.0226  3.1574  2.4768  2.2815  0.7202  0.7202  1.1575  1.1575
  1.2796  1.2796  0.5998  1.1546  1.1546  0.9561  0.9481  0.9481

 Free energy of the ion-electron system (eV)
  ---------------------------------------------------
  alpha Z        PSCENC =         0.25076080
  Ewald energy   TEWEN  =       129.80808831
  -Hartree energ DENC   =      -285.31332926
  -exchange      EXHF   =         0.00000000
  -V(xc)+E(xc)   XCENC  =        24.86169492
  PAW double counting   =       454.73394249     -455.53006557
  entropy T*S    EENTRO =         0.03802621
  eigenvalues    EBANDS =       -89.87876513
  atomic energy  EATOM  =       197.04175453
  Solvation  Ediel_sol  =         0.00000000
  ---------------------------------------------------
  free energy    TOTEN  =       -23.98789271 eV

  energy without entropy =      -24.02591892  energy(sigma->0) =      -24.00056811


--------------------------------------------------------------------------------------------------------




--------------------------------------- Iteration      1(  24)  ---------------------------------------


    POTLOK:  cpu time    1.3659: real time    1.3691
    SETDIJ:  cpu time    0.0063: real time    0.0063
    EDDIAG:  cpu time    0.2935: real time    0.2942
  RMM-DIIS:  cpu time    0.6788: real time    0.6804
    ORTHCH:  cpu time    0.0109: real time    0.0110
       DOS:  cpu time    0.0002: real time    0.0002
    --------------------------------------------
      LOOP:  cpu time    2.3556: real time    2.3612

 eigenvalue-minimisations  :    32
 total energy-change (2. order) :-0.2635041E-06  ( 0.0000000E+00)
 number of electron       8.0000000 magnetization 
 augmentation part        0.1879839 magnetization 

 Free energy of the ion-electron system (eV)
  ---------------------------------------------------
  alpha Z        PSCENC =         0.25076080
  Ewald energy   TEWEN  =       129.80808831
  -Hartree energ DENC   =      -285.31402207
  -exchange      EXHF   =         0.00000000
  -V(xc)+E(xc)   XCENC  =        24.86171205
  PAW double counting   =       454.72819737     -455.52433107
  entropy T*S    EENTRO =         0.03802547
  eigenvalues    EBANDS =       -89.87807836
  atomic energy  EATOM  =       197.04175453
  Solvation  Ediel_sol  =         0.00000000
  ---------------------------------------------------
  free energy    TOTEN  =       -23.98789297 eV

  energy without entropy =      -24.02591844  energy(sigma->0) =      -24.00056813


--------------------------------------------------------------------------------------------------------




 average (electrostatic) potential at core
  the test charge radii are     0.5201  0.6991
  (the norm of the test charge is              1.0000)
       1 -41.6331       2 -41.4547       3 -41.6502       4 -41.4977       5 -57.8936



 E-fermi :  -9.1321     XC(G=0):  -0.7176     alpha+bet : -0.2181


 k-point     1 :       0.2500    0.2500    0.2500
  band No.  band energies     occupation 
      1     -16.9699      2.00000
      2      -9.3849      2.07046
      3      -9.3106      2.02023
      4      -9.2692      1.90953
      5      -0.3010      0.00000
      6       0.5958      0.00000
      7       0.6970      0.00000
      8       0.7203      0.00000

 k-point     2 :      -0.2500    0.2500    0.2500
  band No.  band energies     occupation 
      1     -16.9699      2.00000
      2      -9.3847      2.07049
      3      -9.3105      2.01997
      4      -9.2691      1.90897
      5      -0.2941      0.00000
      6       0.5796      0.00000
      7       0.6717      0.00000
      8       0.7089      0.00000

 k-point     3 :       0.2500   -0.2500    0.2500
  band No.  band energies     occupation 
      1     -16.9699      2.00000
      2      -9.3848      2.07047
      3      -9.3107      2.02029
      4      -9.2693      1.90959
      5      -0.3020      0.00000
      6       0.5920      0.00000
      7       0.6960      0.00000
      8       0.7280      0.00000

 k-point     4 :      -0.2500   -0.2500    0.2500
  band No.  band energies     occupation 
      1     -16.9700      2.00000
      2      -9.3848      2.07047
      3      -9.3106      2.02006
      4      -9.2692      1.90947
      5      -0.2973      0.00000
      6       0.5826      0.00000
      7       0.6837      0.00000
      8       0.7213      0.00000


--------------------------------------------------------------------------------------------------------


 soft charge-density along one line, spin component           1
         0         1         2         3         4         5         6         7         8         9
 total charge-density along one line

 pseudopotential strength for first ion, spin component:           1
 -2.341  -4.035  -0.001  -0.002   0.001
 -4.035  -6.867  -0.003  -0.005   0.002
 -0.001  -0.003  -0.335   0.003  -0.001
 -0.002  -0.005   0.003  -0.333  -0.001
  0.001   0.002  -0.001  -0.001  -0.336
 total augmentation occupancy for first ion, spin component:           1
  4.011  -0.779   0.268   0.396  -0.131
 -0.779   0.165  -0.053  -0.078   0.026
  0.268  -0.053   0.025   0.022  -0.007
  0.396  -0.078   0.022   0.043  -0.011
 -0.131   0.026  -0.007  -0.011   0.015


------------------------ aborting loop because EDIFF is reached ----------------------------------------


    CHARGE:  cpu time    0.1295: real time    0.1298
    FORLOC:  cpu time    0.1757: real time    0.1761
    FORNL :  cpu time    0.3999: real time    0.4009
    STRESS:  cpu time    1.3434: real time    1.3466
    FORCOR:  cpu time    1.4114: real time    1.4147
    FORHAR:  cpu time    0.4558: real time    0.4569
    MIXING:  cpu time    0.0832: real time    0.0833
    OFIELD:  cpu time    0.0000: real time    0.0000

  FORCE on cell =-STRESS in cart. coord.  units (eV):
  Direction    XX          YY          ZZ          XY          YZ          ZX
  --------------------------------------------------------------------------------------
  Alpha Z     0.25076     0.25076     0.25076
  Ewald      42.65648    42.87238    44.27920    -0.55704     0.69672     2.03987
  Hartree    94.22485    95.50325    95.58673    -0.16425     0.04541     1.35322
  E(xc)     -27.33328   -27.34747   -27.34098    -0.00211    -0.00009     0.01260
  Local    -195.58571  -196.98245  -198.42087     0.86988    -0.78673    -3.69956
  n-local   -16.05284   -16.43462   -15.84488    -0.30492     0.04256     0.01919
  augment     0.11446     0.11347     0.10927    -0.00024     0.00029     0.00463
  Kinetic   101.67720   101.80616   102.26064    -0.53398     0.95028     0.38459
  Fock        0.00000     0.00000     0.00000     0.00000     0.00000     0.00000
  -------------------------------------------------------------------------------------
  Total      -0.04808    -0.21851     0.87987    -0.69266     0.94843     0.11455
  in kB      -0.07974    -0.36239     1.45923    -1.14876     1.57294     0.18997
  external pressure =        0.34 kB  Pullay stress =        0.00 kB

  kinetic pressure (ideal gas correction) =      0.03 kB
  total pressure  =      0.37 kB
  Total+kin.    -0.029      -0.347       1.479      -1.168       1.556       0.212

 VOLUME and BASIS-vectors are now :
 -----------------------------------------------------------------------------
  energy-cutoff  :      400.00
  volume of cell :      966.06
      direct lattice vectors                 reciprocal lattice vectors
     9.990581007  0.000000000  0.000000000     0.100094279 -0.000667128 -0.002983513
     0.065435125  9.817721212  0.000000000    -0.000000000  0.101856630  0.001305313
     0.292736286 -0.126220354  9.849271741     0.000000000  0.000000000  0.101530349

  length of vectors
     9.990581007  9.817939273  9.854429457     0.100140956  0.101864994  0.101530349


 FORCES acting on ions
    electron-ion (+dipol)            ewald-force                    non-local-force                 convergence-correction
 -----------------------------------------------------------------------------------------------
   -.167E+02 0.295E+02 0.428E+02   0.188E+02 -.336E+02 -.485E+02   -.208E+01 0.339E+01 0.509E+01   0.364E-04 -.301E-04 -.486E-04
   0.528E+02 -.666E+01 0.292E+01   -.585E+02 0.748E+01 -.333E+01   0.511E+01 -.590E+00 0.540E+00   -.788E-04 0.206E-04 0.234E-04
   -.241E+02 -.469E+02 0.146E+01   0.265E+02 0.519E+02 -.132E+01   -.208E+01 -.458E+01 0.860E-01   0.430E-04 0.818E-04 0.174E-04
   -.136E+02 0.248E+02 -.450E+02   0.152E+02 -.272E+02 0.498E+02   -.175E+01 0.258E+01 -.463E+01   0.148E-04 -.173E-04 0.823E-04
   0.152E+01 -.153E+01 -.292E+01   -.198E+01 0.140E+01 0.327E+01   0.210E+00 0.131E+01 -.249E+00   0.258E-03 0.261E-03 0.375E-03
 -----------------------------------------------------------------------------------------------
   -.121E-01 -.836E+00 -.767E+00   -.107E-13 0.000E+00 0.000E+00   -.588E+00 0.211E+01 0.832E+00   0.273E-03 0.316E-03 0.449E-03


 POSITION                                       TOTAL-FORCE (eV/Angst)
 -----------------------------------------------------------------------------------
      5.50740      3.94810      3.55131         0.010773     -0.628700     -0.562869
      4.10494      4.66123      4.31834        -0.579898      0.224751      0.128426
      5.68615      5.50039      4.35794         0.349978      0.399001      0.219029
      5.47114      4.01698      5.30969        -0.136026      0.097684      0.177284
      5.18438      4.52276      4.38382        -0.244409      1.183322      0.103536
 -----------------------------------------------------------------------------------
    total drift:                               -0.599581      1.276058      0.065406


--------------------------------------------------------------------------------------------------------



  FREE ENERGIE OF THE ION-ELECTRON SYSTEM (eV)
  ---------------------------------------------------
  free  energy   TOTEN  =       -23.98789297 eV

  energy  without entropy=      -24.02591844  energy(sigma->0) =      -24.00056813



--------------------------------------------------------------------------------------------------------


    POTLOK:  cpu time    1.4286: real time    1.4320


--------------------------------------------------------------------------------------------------------


           RANDOM_SEED =         578496014                0                0
           RANDOM_SEED =         578496014               30                0
   IONSTEP:  cpu time    0.0016: real time    0.0018

  ENERGY OF THE ELECTRON-ION-THERMOSTAT SYSTEM (eV)
  ---------------------------------------------------
% ion-electron   TOTEN  =       -23.987893  see above
  kinetic energy EKIN   =         0.031627
  kin. lattice  EKIN_LAT=         0.000000  (temperature   61.17 K)
  nose potential ES     =         0.000000
  nose kinetic   EPS    =         0.000004
  ---------------------------------------------------
  total energy   ETOTAL =       -23.956262 eV

  maximum distance moved by ions :      0.43E-02


 mean value of Nose-termostat <S>:     1.003 mean value of <T> :    61.170
 mean temperature <T/S>/<1/S>  :    61.170

    WAVPRE:  cpu time    0.3808: real time    0.3888
    FEWALD:  cpu time    0.0004: real time    0.0003
    ORTHCH:  cpu time    0.1504: real time    0.1507
     LOOP+:  cpu time   69.7986: real time   69.9780


--------------------------------------- Iteration      2(   1)  ---------------------------------------


    POTLOK:  cpu time    1.3889: real time    1.3922
    SETDIJ:  cpu time    0.0061: real time    0.0062
     EDDAV:  cpu time    1.5133: real time    1.5168
       DOS:  cpu time    0.0002: real time    0.0002
    CHARGE:  cpu time    0.1168: real time    0.1171
    MIXING:  cpu time    0.0383: real time    0.0383
    --------------------------------------------
      LOOP:  cpu time    3.0635: real time    3.0709

 eigenvalue-minimisations  :    64
 total energy-change (2. order) :-0.3989555E-01  (-0.1706101E+00)
 number of electron       8.0000001 magnetization 
 augmentation part        0.1811009 magnetization 

 Broyden mixing:
  rms(total) = 0.67572E-01    rms(broyden)= 0.67512E-01
  rms(prec ) = 0.86378E-01
  weight for this iteration     100.00

 Free energy of the ion-electron system (eV)
  ---------------------------------------------------
  alpha Z        PSCENC =         0.25076080
  Ewald energy   TEWEN  =       124.91853476
  -Hartree energ DENC   =      -282.48327787
  -exchange      EXHF   =         0.00000000
  -V(xc)+E(xc)   XCENC  =        24.71851391
  PAW double counting   =       454.72676073     -455.52290653
  entropy T*S    EENTRO =         0.02684169
  eigenvalues    EBANDS =       -87.70477028
  atomic energy  EATOM  =       197.04175453
  Solvation  Ediel_sol  =         0.00000000
  ---------------------------------------------------
  free energy    TOTEN  =       -24.02778825 eV

  energy without entropy =      -24.05462994  energy(sigma->0) =      -24.03673548


--------------------------------------------------------------------------------------------------------




--------------------------------------- Iteration      2(   2)  ---------------------------------------


    POTLOK:  cpu time    1.2309: real time    1.2338
    SETDIJ:  cpu time    0.0063: real time    0.0063
    EDDIAG:  cpu time    0.2694: real time    0.2700
  RMM-DIIS:  cpu time    0.9991: real time    1.0014
    ORTHCH:  cpu time    0.0108: real time    0.0108
       DOS:  cpu time    0.0002: real time    0.0002
    CHARGE:  cpu time    0.1607: real time    0.1611
    MIXING:  cpu time    0.0724: real time    0.0726
    --------------------------------------------
      LOOP:  cpu time    2.7498: real time    2.7563

 eigenvalue-minimisations  :    64
 total energy-change (2. order) : 0.1215796E-01  (-0.8265122E-02)
 number of electron       8.0000001 magnetization 
 augmentation part        0.1829734 magnetization 

 Broyden mixing:
  rms(total) = 0.47014E-01    rms(broyden)= 0.47005E-01
  rms(prec ) = 0.61274E-01
  weight for this iteration     100.00

 eigenvalues of (default mixing * dielectric matrix)
  average eigenvalue GAMMA=   2.1440
  8.3786  5.4492  4.2738  3.2850  2.6336  2.4535  2.4535  2.0569  1.3474  1.3474
  1.1809  1.1809  0.7202  0.7202  0.5998  0.9384  0.9384  1.0511  0.9696  0.9022

 Free energy of the ion-electron system (eV)
  ---------------------------------------------------
  alpha Z        PSCENC =         0.25076080
[...]
  rms(total) = 0.88996E-03    rms(broyden)= 0.88987E-03
  rms(prec ) = 0.11578E-02
  weight for this iteration     100.00

 eigenvalues of (default mixing * dielectric matrix)
  average eigenvalue GAMMA=   2.4707
  6.3378  5.0847  4.6795  3.9719  0.6787  0.9008  0.9008  0.9012  1.0722  1.0722
  1.6044  1.6044  3.0780  3.0780  1.4760  1.4760  1.8637  1.8637  1.4900  3.3383
  3.3383  3.0085  3.0085  3.0802  2.7264  2.7264  2.0341  2.0341  2.4854  2.4854
  2.8646  2.7561  2.7561  2.7634  2.1253  2.6694  2.5222  2.5222  2.4075  2.4075
  2.3060  2.3060  2.4724  2.4724  2.4297

 Free energy of the ion-electron system (eV)
  ---------------------------------------------------
  alpha Z        PSCENC =         0.25076080
  Ewald energy   TEWEN  =       127.49985111
  -Hartree energ DENC   =      -283.18277322
  -exchange      EXHF   =         0.00000000
  -V(xc)+E(xc)   XCENC  =        24.75110999
  PAW double counting   =       440.39540791     -441.18718248
  entropy T*S    EENTRO =         0.01168930
  eigenvalues    EBANDS =       -89.55264711
  atomic energy  EATOM  =       197.04175453
  Solvation  Ediel_sol  =         0.00000000
  ---------------------------------------------------
  free energy    TOTEN  =       -23.97202917 eV

  energy without entropy =      -23.98371847  energy(sigma->0) =      -23.97592561


--------------------------------------------------------------------------------------------------------




--------------------------------------- Iteration     10(  11)  ---------------------------------------


    POTLOK:  cpu time    1.2539: real time    1.2568
    SETDIJ:  cpu time    0.0063: real time    0.0063
    EDDIAG:  cpu time    0.2842: real time    0.2849
  RMM-DIIS:  cpu time    1.1142: real time    1.1169
    ORTHCH:  cpu time    0.0107: real time    0.0107
       DOS:  cpu time    0.0002: real time    0.0002
    CHARGE:  cpu time    0.1192: real time    0.1195
    MIXING:  cpu time    0.1283: real time    0.1286
    --------------------------------------------
      LOOP:  cpu time    2.9170: real time    2.9239

 eigenvalue-minimisations  :    64
 total energy-change (2. order) :-0.4267032E-05  (-0.6916897E-06)
 number of electron       8.0000000 magnetization 
 augmentation part        0.1885049 magnetization 

 Broyden mixing:
  rms(total) = 0.71105E-03    rms(broyden)= 0.71101E-03
  rms(prec ) = 0.90052E-03
  weight for this iteration     100.00

 eigenvalues of (default mixing * dielectric matrix)
  average eigenvalue GAMMA=   2.4688
  6.3369  5.1594  4.7832  4.1421  3.4587  3.4587  0.6772  0.8912  0.8912  0.9138
  0.9138  1.3181  1.3181  1.2535  1.5382  1.5382  3.3201  1.6237  1.6237  2.1261
  2.1261  2.8778  2.8778  1.9639  1.9639  3.0871  2.8991  2.8991  2.8674  2.8674
  2.4855  2.4855  2.1929  2.1929  2.6730  2.6730  2.7291  2.7291  2.5447  2.5447
  2.4023  2.4023  2.4664  2.4664  2.4024  2.4598

 Free energy of the ion-electron system (eV)
  ---------------------------------------------------
  alpha Z        PSCENC =         0.25076080
  Ewald energy   TEWEN  =       127.49985111
  -Hartree energ DENC   =      -283.16517395
  -exchange      EXHF   =         0.00000000
  -V(xc)+E(xc)   XCENC  =        24.75043380
  PAW double counting   =       440.49260827     -441.28421629
  entropy T*S    EENTRO =         0.01168835
  eigenvalues    EBANDS =       -89.56974006
  atomic energy  EATOM  =       197.04175453
  Solvation  Ediel_sol  =         0.00000000
  ---------------------------------------------------
  free energy    TOTEN  =       -23.97203344 eV

  energy without entropy =      -23.98372179  energy(sigma->0) =      -23.97592956


--------------------------------------------------------------------------------------------------------




--------------------------------------- Iteration     10(  12)  ---------------------------------------


    POTLOK:  cpu time    1.2757: real time    1.2788
    SETDIJ:  cpu time    0.0063: real time    0.0064
    EDDIAG:  cpu time    0.2916: real time    0.2923
  RMM-DIIS:  cpu time    0.9105: real time    0.9127
    ORTHCH:  cpu time    0.0105: real time    0.0105
       DOS:  cpu time    0.0002: real time    0.0002
    CHARGE:  cpu time    0.1196: real time    0.1199
    MIXING:  cpu time    0.1368: real time    0.1372
    --------------------------------------------
      LOOP:  cpu time    2.7513: real time    2.7579

 eigenvalue-minimisations  :    56
 total energy-change (2. order) :-0.4566815E-05  (-0.3197095E-06)
 number of electron       8.0000000 magnetization 
 augmentation part        0.1885117 magnetization 

 Broyden mixing:
  rms(total) = 0.22328E-03    rms(broyden)= 0.22325E-03
  rms(prec ) = 0.28960E-03
  weight for this iteration     100.00

 eigenvalues of (default mixing * dielectric matrix)
  average eigenvalue GAMMA=   2.4587
  6.3726  5.2326  4.9342  4.1387  0.6800  0.7377  0.9405  0.9405  0.9484  1.3279
  1.3279  1.1767  1.1767  1.6333  1.6333  3.4915  3.4915  1.4192  1.9354  1.9354
  3.4047  2.9039  2.9039  3.1508  1.9445  2.9685  2.9685  2.1184  2.1184  2.4957
  2.4957  2.7957  2.7957  2.7199  2.7199  2.6447  2.6447  2.2193  2.2193  2.5429
  2.5429  2.3860  2.3860  2.4929  2.4929  2.4498  2.5590

 Free energy of the ion-electron system (eV)
  ---------------------------------------------------
  alpha Z        PSCENC =         0.25076080
  Ewald energy   TEWEN  =       127.49985111
  -Hartree energ DENC   =      -283.16135667
  -exchange      EXHF   =         0.00000000
  -V(xc)+E(xc)   XCENC  =        24.75033973
  PAW double counting   =       440.50166298     -441.29323143
  entropy T*S    EENTRO =         0.01168968
  eigenvalues    EBANDS =       -89.57350874
  atomic energy  EATOM  =       197.04175453
  Solvation  Ediel_sol  =         0.00000000
  ---------------------------------------------------
  free energy    TOTEN  =       -23.97203801 eV

  energy without entropy =      -23.98372768  energy(sigma->0) =      -23.97593457


--------------------------------------------------------------------------------------------------------




--------------------------------------- Iteration     10(  13)  ---------------------------------------


    POTLOK:  cpu time    1.3624: real time    1.3657
    SETDIJ:  cpu time    0.0062: real time    0.0062
    EDDIAG:  cpu time    0.2874: real time    0.2880
  RMM-DIIS:  cpu time    0.7988: real time    0.8007
    ORTHCH:  cpu time    0.0108: real time    0.0108
       DOS:  cpu time    0.0002: real time    0.0002
    CHARGE:  cpu time    0.1206: real time    0.1209
    MIXING:  cpu time    0.1361: real time    0.1364
    --------------------------------------------
      LOOP:  cpu time    2.7225: real time    2.7291

 eigenvalue-minimisations  :    48
 total energy-change (2. order) :-0.1989750E-05  (-0.1199544E-06)
 number of electron       8.0000000 magnetization 
 augmentation part        0.1885116 magnetization 

 Broyden mixing:
  rms(total) = 0.24889E-03    rms(broyden)= 0.24888E-03
  rms(prec ) = 0.32641E-03
  weight for this iteration     100.00

 eigenvalues of (default mixing * dielectric matrix)
  average eigenvalue GAMMA=   2.4550
  6.3903  5.2817  4.9604  4.1458  0.6778  0.9153  0.9153  1.2256  1.2256  0.9388
  0.9388  1.0463  1.1951  1.1951  3.6225  3.6225  1.6796  1.6796  2.0338  2.0338
  2.8788  2.8788  3.2050  2.9995  2.9995  2.0286  2.0286  1.9964  3.0131  2.4883
  2.4883  2.6833  2.6833  2.7886  2.7886  2.8069  2.1824  2.1824  2.7225  2.3663
  2.3663  2.4712  2.4712  2.6417  2.4909  2.4909  2.4386  2.5377

 Free energy of the ion-electron system (eV)
  ---------------------------------------------------
  alpha Z        PSCENC =         0.25076080
  Ewald energy   TEWEN  =       127.49985111
  -Hartree energ DENC   =      -283.16268361
  -exchange      EXHF   =         0.00000000
  -V(xc)+E(xc)   XCENC  =        24.75037469
  PAW double counting   =       440.50297922     -441.29457901
  entropy T*S    EENTRO =         0.01168805
  eigenvalues    EBANDS =       -89.57218578
  atomic energy  EATOM  =       197.04175453
  Solvation  Ediel_sol  =         0.00000000
  ---------------------------------------------------
  free energy    TOTEN  =       -23.97204000 eV

  energy without entropy =      -23.98372805  energy(sigma->0) =      -23.97593601


--------------------------------------------------------------------------------------------------------




--------------------------------------- Iteration     10(  14)  ---------------------------------------


    POTLOK:  cpu time    1.3042: real time    1.3073
    SETDIJ:  cpu time    0.0064: real time    0.0064
    EDDIAG:  cpu time    0.3976: real time    0.3985
  RMM-DIIS:  cpu time    0.7870: real time    0.7888
    ORTHCH:  cpu time    0.0105: real time    0.0105
       DOS:  cpu time    0.0002: real time    0.0002
    --------------------------------------------
      LOOP:  cpu time    2.5059: real time    2.5118

 eigenvalue-minimisations  :    48
 total energy-change (2. order) :-0.8979447E-06  (-0.6427765E-07)
 number of electron       8.0000000 magnetization 
 augmentation part        0.1885116 magnetization 

 Free energy of the ion-electron system (eV)
  ---------------------------------------------------
  alpha Z        PSCENC =         0.25076080
  Ewald energy   TEWEN  =       127.49985111
  -Hartree energ DENC   =      -283.15913402
  -exchange      EXHF   =         0.00000000
  -V(xc)+E(xc)   XCENC  =        24.75021478
  PAW double counting   =       440.51066513     -441.30222985
  entropy T*S    EENTRO =         0.01168916
  eigenvalues    EBANDS =       -89.57561253
  atomic energy  EATOM  =       197.04175453
  Solvation  Ediel_sol  =         0.00000000
  ---------------------------------------------------
  free energy    TOTEN  =       -23.97204090 eV

  energy without entropy =      -23.98373005  energy(sigma->0) =      -23.97593728


--------------------------------------------------------------------------------------------------------




 average (electrostatic) potential at core
  the test charge radii are     0.5201  0.6991
  (the norm of the test charge is              1.0000)
       1 -41.1066       2 -41.7387       3 -41.9415       4 -41.2978       5 -57.9694



 E-fermi :  -8.7192     XC(G=0):  -0.7132     alpha+bet : -0.2181


 k-point     1 :       0.2500    0.2500    0.2500
  band No.  band energies     occupation 
      1     -16.9265      2.00000
      2      -9.6575      2.00000
      3      -9.3165      2.00020
      4      -8.8875      1.99996
      5      -0.3193      0.00000
      6       0.5872      0.00000
      7       0.6969      0.00000
      8       0.7239      0.00000

 k-point     2 :      -0.2500    0.2500    0.2500
  band No.  band energies     occupation 
      1     -16.9265      2.00000
      2      -9.6573      2.00000
      3      -9.3163      2.00020
      4      -8.8873      1.99960
      5      -0.3121      0.00000
      6       0.5725      0.00000
      7       0.6712      0.00000
      8       0.7076      0.00000

 k-point     3 :       0.2500   -0.2500    0.2500
  band No.  band energies     occupation 
      1     -16.9265      2.00000
      2      -9.6575      2.00000
      3      -9.3164      2.00020
      4      -8.8875      1.99994
      5      -0.3208      0.00000
      6       0.5885      0.00000
      7       0.6912      0.00000
      8       0.7317      0.00000

 k-point     4 :      -0.2500   -0.2500    0.2500
  band No.  band energies     occupation 
      1     -16.9265      2.00000
      2      -9.6575      2.00000
      3      -9.3164      2.00020
      4      -8.8874      1.99970
      5      -0.3174      0.00000
      6       0.5911      0.00000
      7       0.6682      0.00000
      8       0.7284      0.00000


--------------------------------------------------------------------------------------------------------


 soft charge-density along one line, spin component           1
         0         1         2         3         4         5         6         7         8         9
 total charge-density along one line

 pseudopotential strength for first ion, spin component:           1
 -2.337  -4.026  -0.001  -0.001   0.000
 -4.026  -6.850  -0.003  -0.004   0.000
 -0.001  -0.003  -0.341   0.002  -0.000
 -0.001  -0.004   0.002  -0.340  -0.000
  0.000   0.000  -0.000  -0.000  -0.343
 total augmentation occupancy for first ion, spin component:           1
  2.568  -0.320   0.207   0.278  -0.022
 -0.320   0.056  -0.027  -0.036   0.005
  0.207  -0.027   0.022   0.019  -0.002
  0.278  -0.036   0.019   0.033  -0.002
 -0.022   0.005  -0.002  -0.002   0.009


------------------------ aborting loop because EDIFF is reached ----------------------------------------


    CHARGE:  cpu time    0.1149: real time    0.1151
    FORLOC:  cpu time    0.0982: real time    0.0984
    FORNL :  cpu time    0.4105: real time    0.4115
    STRESS:  cpu time    1.3831: real time    1.3863
    FORCOR:  cpu time    1.4859: real time    1.4894
    FORHAR:  cpu time    0.4605: real time    0.4616
    MIXING:  cpu time    0.1409: real time    0.1412
    OFIELD:  cpu time    0.0000: real time    0.0000

  FORCE on cell =-STRESS in cart. coord.  units (eV):
  Direction    XX          YY          ZZ          XY          YZ          ZX
  --------------------------------------------------------------------------------------
  Alpha Z     0.25076     0.25076     0.25076
  Ewald      42.71027    42.52734    42.26221     5.41933    -2.04001     5.26757
  Hartree    92.39058    94.65548    96.11331     0.97942    -0.20141     1.97061
  E(xc)     -27.23217   -27.23195   -27.19903     0.01668    -0.00043     0.02947
  Local    -192.73465  -195.77370  -198.27445    -5.00381     1.59106    -6.53846
  n-local   -16.65167   -15.51290   -14.92699    -0.31442    -0.02851     0.25173
  augment     0.12314     0.13241     0.14903    -0.01260     0.00569    -0.00373
  Kinetic   101.83550   101.61896   100.05614    -0.87794     0.14715    -1.52120
  Fock        0.00000     0.00000     0.00000     0.00000     0.00000     0.00000
  -------------------------------------------------------------------------------------
  Total       0.69176     0.66640    -1.56901     0.20666    -0.52647    -0.54400
  in kB       1.14726     1.10519    -2.60215     0.34273    -0.87312    -0.90220
  external pressure =       -0.12 kB  Pullay stress =        0.00 kB

  kinetic pressure (ideal gas correction) =      0.13 kB
  total pressure  =      0.02 kB
  Total+kin.     1.208       1.429      -2.588       0.422      -0.834      -0.895

 VOLUME and BASIS-vectors are now :
 -----------------------------------------------------------------------------
  energy-cutoff  :      400.00
  volume of cell :      966.06
      direct lattice vectors                 reciprocal lattice vectors
     9.990581007  0.000000000  0.000000000     0.100094279 -0.000667128 -0.002983513
     0.065435125  9.817721212  0.000000000    -0.000000000  0.101856630  0.001305313
     0.292736286 -0.126220354  9.849271741     0.000000000  0.000000000  0.101530349

  length of vectors
     9.990581007  9.817939273  9.854429457     0.100140956  0.101864994  0.101530349


 FORCES acting on ions
    electron-ion (+dipol)            ewald-force                    non-local-force                 convergence-correction
 -----------------------------------------------------------------------------------------------
   -.363E+01 0.297E+02 0.408E+02   0.423E+01 -.317E+02 -.434E+02   0.116E+00 0.284E+01 0.387E+01   -.114E-05 -.374E-03 0.130E-03
   0.531E+02 -.115E+02 -.154E+01   -.601E+02 0.132E+02 0.198E+01   0.669E+01 -.873E+00 -.759E+00   0.803E-04 0.200E-03 -.262E-03
   -.300E+02 -.456E+02 0.624E+01   0.344E+02 0.522E+02 -.725E+01   -.372E+01 -.518E+01 0.552E+00   -.269E-03 0.142E-03 0.972E-04
   -.142E+02 0.248E+02 -.428E+02   0.154E+02 -.269E+02 0.461E+02   -.136E+01 0.237E+01 -.403E+01   0.201E-03 -.297E-03 -.237E-03
   -.564E+01 0.543E+01 -.250E+01   0.615E+01 -.687E+01 0.264E+01   -.794E+00 -.119E+01 -.147E+01   0.455E-03 -.170E-02 -.106E-02
 -----------------------------------------------------------------------------------------------
   -.343E+00 0.271E+01 0.258E+00   0.000E+00 0.711E-14 -.711E-14   0.930E+00 -.204E+01 -.184E+01   0.465E-03 -.202E-02 -.133E-02


 POSITION                                       TOTAL-FORCE (eV/Angst)
 -----------------------------------------------------------------------------------
      5.26581      3.86023      3.46029         0.711000      0.768839      1.237926
      4.15187      4.75557      4.41334        -0.318951      0.809454     -0.319316
      5.75972      5.40520      4.26589         0.681634      1.446038     -0.458808
      5.49980      3.98641      5.32704        -0.203280      0.280968     -0.708222
      5.19207      4.53269      4.38971        -0.282539     -2.630411     -1.330639
 -----------------------------------------------------------------------------------
    total drift:                                0.587865      0.674888     -1.579059


--------------------------------------------------------------------------------------------------------



  FREE ENERGIE OF THE ION-ELECTRON SYSTEM (eV)
  ---------------------------------------------------
  free  energy   TOTEN  =       -23.97204090 eV

  energy  without entropy=      -23.98373005  energy(sigma->0) =      -23.97593728

 d Force =-0.8920577E-02[-0.192E+00, 0.174E+00]  d Energy =-0.1455610E-01 0.564E-02
 d Force =-0.5003042E+01[-0.538E+01,-0.463E+01]  d Ewald  =-0.4992000E+01-0.110E-01


--------------------------------------------------------------------------------------------------------


    POTLOK:  cpu time    1.3275: real time    1.3307


--------------------------------------------------------------------------------------------------------


           RANDOM_SEED =         578496014               30                0
   IONSTEP:  cpu time    0.0001: real time    0.0001

  ENERGY OF THE ELECTRON-ION-THERMOSTAT SYSTEM (eV)
  ---------------------------------------------------
% ion-electron   TOTEN  =       -23.972041  see above
  kinetic energy EKIN   =         0.049778
  kin. lattice  EKIN_LAT=         0.000000  (temperature   96.27 K)
  nose potential ES     =         0.047810
  nose kinetic   EPS    =         0.081898
  ---------------------------------------------------
  total energy   ETOTAL =       -23.792554 eV

  maximum distance moved by ions :      0.54E-02


 mean value of Nose-termostat <S>:     3.083 mean value of <T> :    96.274
 mean temperature <T/S>/<1/S>  :    96.274

    WAVPRE:  cpu time    0.4027: real time    0.4112
    FEWALD:  cpu time    0.0004: real time    0.0004
    ORTHCH:  cpu time    0.1486: real time    0.1489
 Prediction of Wavefunctions ALPHA= 0.393 BETA=-0.697
    POTLOK:  cpu time    1.3891: real time    1.3924
    EDDIAG:  cpu time    0.2929: real time    0.2936
     LOOP+:  cpu time   46.7187: real time   46.8424
    4ORBIT:  cpu time    0.0000: real time    0.0000

 total amount of memory used by VASP MPI-rank0   277871. kBytes
=======================================================================

   base      :      30000. kBytes
   nonlr-proj:        145. kBytes
   fftplans  :      79272. kBytes
   grid      :     141424. kBytes
   one-center:         15. kBytes
   wavefun   :      27015. kBytes

  
  
 General timing and accounting informations for this job:
 ========================================================
  
                  Total CPU time used (sec):      499.822
                            User time (sec):      488.091
                          System time (sec):       11.731
                         Elapsed time (sec):      501.141
  
                   Maximum memory used (kb):      433760.
                   Average memory used (kb):           0.
  
                          Minor page faults:      2246595
                          Major page faults:            0
                 Voluntary context switches:          412
