 running on    1 total cores
 distrk:  each k-point on    1 cores,    1 groups
 distr:  one band on    1 cores,    1 groups
 using from now: INCAR     
 vasp.5.4.4.18Apr17-6-g9f103f2a35 (build Jul 12 2018 13:43:46) complex           
 POSCAR found type information on POSCAR  H  C 
 POSCAR found :  2 types and       5 ions
 scaLAPACK will be used

 ----------------------------------------------------------------------------- 
|                                                                             |
|  ADVICE TO THIS USER RUNNING 'VASP/VAMP'   (HEAR YOUR MASTER'S VOICE ...):  |
|                                                                             |
|      You have a (more or less) 'small supercell' and for smaller cells      |
|      it is recommended  to use the reciprocal-space projection scheme!      |
|      The real space optimization is not  efficient for small cells and it   |
|      is also less accurate ...                                              |
|      Therefore set LREAL=.FALSE. in the  INCAR file                         |
|                                                                             |
 ----------------------------------------------------------------------------- 


 ----------------------------------------------------------------------------- 
|                                                                             |
|           W    W    AA    RRRRR   N    N  II  N    N   GGGG   !!!           |
|           W    W   A  A   R    R  NN   N  II  NN   N  G    G  !!!           |
|           W    W  A    A  R    R  N N  N  II  N N  N  G       !!!           |
|           W WW W  AAAAAA  RRRRR   N  N N  II  N  N N  G  GGG   !            |
|           WW  WW  A    A  R   R   N   NN  II  N   NN  G    G                |
|           W    W  A    A  R    R  N    N  II  N    N   GGGG   !!!           |
|                                                                             |
|     The real-space-projection scheme for the treatment of the nonlocal      |
|     pseudopotentials has been switched on -- but on file POTCAR I have      |
|     not found any entries signalling me that you have ever performed a      |
|     real-space optimization of all nonlocal projectors! BE WARNED that      |
|     a calculation using the real-space-projection scheme together with      |
|     nonlocal projectors which were not real-space-optimized (according      |
|     to the plane-wave-cutoff used in this calculation) might give more      |
|     or less inaccurate results                                              |
|     I hope you know what you are doing                                      |
|                                                                             |
 ----------------------------------------------------------------------------- 

 LDA part: xc-table for Pade appr. of Perdew
 generate k-points for:    2    2    2
 POSCAR, INCAR and KPOINTS ok, starting setup
 FFT: planning ...
 WAVECAR not read
 prediction of wavefunctions initialized - no I/O
 entering main loop
       N       E                     dE             d eps       ncg     rms          rms(c)
DAV:   1     0.182154563907E+02    0.18215E+02   -0.19312E+03    96   0.411E+02
DAV:   2    -0.216361824868E+02   -0.39852E+02   -0.39853E+02    64   0.114E+02
DAV:   3    -0.274351376066E+02   -0.57990E+01   -0.58054E+01    64   0.490E+01
DAV:   4    -0.276847980439E+02   -0.24966E+00   -0.24766E+00   128   0.117E+01
DAV:   5    -0.276848965864E+02   -0.98542E-04   -0.98541E-04    96   0.258E-01    0.890E+00
RMM:   6    -0.246579820449E+02    0.30269E+01   -0.56429E+00    64   0.146E+01    0.433E+00
RMM:   7    -0.241361309175E+02    0.52185E+00   -0.13360E+00    64   0.671E+00    0.229E+00
RMM:   8    -0.240077411462E+02    0.12839E+00   -0.12650E-01    64   0.245E+00    0.676E-01
RMM:   9    -0.239854043596E+02    0.22337E-01   -0.24188E-02    64   0.117E+00    0.525E-01
RMM:  10    -0.239813978577E+02    0.40065E-02   -0.10473E-02    64   0.615E-01    0.384E-01
RMM:  11    -0.239792565740E+02    0.21413E-02   -0.36707E-03    64   0.347E-01    0.141E-01
RMM:  12    -0.239761590973E+02    0.30975E-02   -0.23618E-03    64   0.325E-01    0.224E-01
RMM:  13    -0.239768158068E+02   -0.65671E-03   -0.55229E-04    64   0.159E-01    0.700E-02
RMM:  14    -0.239823259979E+02   -0.55102E-02   -0.10838E-03    64   0.190E-01    0.216E-01
RMM:  15    -0.239853319718E+02   -0.30060E-02   -0.11434E-03    64   0.206E-01    0.956E-02
RMM:  16    -0.239866928286E+02   -0.13609E-02   -0.23607E-04    64   0.944E-02    0.440E-02
RMM:  17    -0.239873754085E+02   -0.68258E-03   -0.14830E-04    64   0.692E-02    0.220E-02
RMM:  18    -0.239877284540E+02   -0.35305E-03   -0.64182E-05    64   0.482E-02    0.229E-02
RMM:  19    -0.239878046753E+02   -0.76221E-04   -0.16816E-05    64   0.238E-02    0.521E-03
RMM:  20    -0.239878522114E+02   -0.47536E-04   -0.95062E-06    64   0.194E-02    0.438E-03
RMM:  21    -0.239878882366E+02   -0.36025E-04   -0.35261E-06    60   0.110E-02    0.111E-03
RMM:  22    -0.239878899000E+02   -0.16634E-05   -0.42000E-07    48   0.485E-03    0.983E-04
RMM:  23    -0.239878927071E+02   -0.28071E-05   -0.13889E-07    48   0.251E-03    0.536E-04
RMM:  24    -0.239878929706E+02   -0.26350E-06    0.00000E+00    32   0.919E-04
    1 T=    61. E= -.23956262E+02 F= -.23987893E+02 E0= -.24000568E+02  EK= 0.31627E-01 SP= 0.00E+00 SK= 0.40E-05
 bond charge predicted
       N       E                     dE             d eps       ncg     rms          rms(c)
DAV:   1    -0.240277882528E+02   -0.39896E-01   -0.17061E+00    64   0.121E+01    0.676E-01
RMM:   2    -0.240156302936E+02    0.12158E-01   -0.82651E-02    64   0.177E+00    0.470E-01
RMM:   3    -0.240210543837E+02   -0.54241E-02   -0.32430E-02    64   0.101E+00    0.366E-01
RMM:   4    -0.240170631842E+02    0.39912E-02   -0.25229E-02    64   0.918E-01    0.122E-01
RMM:   5    -0.240169491461E+02    0.11404E-03   -0.92610E-04    64   0.249E-01    0.121E-01
RMM:   6    -0.240165980364E+02    0.35111E-03   -0.15993E-03    64   0.231E-01    0.722E-02
RMM:   7    -0.240166776926E+02   -0.79656E-04   -0.30267E-04    64   0.116E-01    0.372E-02
RMM:   8    -0.240167525905E+02   -0.74898E-04   -0.10059E-04    64   0.678E-02    0.309E-02
RMM:   9    -0.240167780110E+02   -0.25421E-04   -0.57632E-05    64   0.477E-02    0.184E-02
RMM:  10    -0.240167908053E+02   -0.12794E-04   -0.30977E-05    64   0.330E-02    0.982E-03
RMM:  11    -0.240168191122E+02   -0.28307E-04   -0.19830E-05    64   0.282E-02    0.302E-03
RMM:  12    -0.240168223426E+02   -0.32304E-05   -0.13913E-06    48   0.937E-03    0.348E-03
RMM:  13    -0.240168303319E+02   -0.79893E-05   -0.13995E-06    48   0.846E-03    0.429E-03
RMM:  14    -0.240168326116E+02   -0.22797E-05   -0.44438E-07    48   0.490E-03    0.106E-03
RMM:  15    -0.240168337723E+02   -0.11607E-05   -0.26026E-07    48   0.345E-03    0.738E-04
RMM:  16    -0.240168344638E+02   -0.69152E-06   -0.78759E-08    44   0.203E-03
    2 T=   125. E= -.23951796E+02 F= -.24016834E+02 E0= -.24025720E+02  EK= 0.64591E-01 SP= 0.14E-03 SK= 0.31E-03
 bond charge predicted
 prediction of wavefunctions
       N       E                     dE             d eps       ncg     rms          rms(c)
DAV:   1    -0.239870092290E+02    0.29825E-01   -0.11795E+00    64   0.110E+01    0.624E-01
RMM:   2    -0.239918876355E+02   -0.48784E-02   -0.85167E-02    64   0.216E+00    0.711E-01
RMM:   3    -0.239895041395E+02    0.23835E-02   -0.20594E-02    64   0.953E-01    0.461E-01
RMM:   4    -0.239856367576E+02    0.38674E-02   -0.92017E-03    64   0.633E-01    0.246E-01
RMM:   5    -0.239849261510E+02    0.71061E-03   -0.26091E-03    64   0.330E-01    0.193E-01
RMM:   6    -0.239843136382E+02    0.61251E-03   -0.11270E-03    64   0.212E-01    0.141E-01
RMM:   7    -0.239840196979E+02    0.29394E-03   -0.56684E-04    64   0.153E-01    0.960E-02
RMM:   8    -0.239838887413E+02    0.13096E-03   -0.16607E-04    64   0.851E-02    0.696E-02
RMM:   9    -0.239838224011E+02    0.66340E-04   -0.19580E-04    64   0.893E-02    0.370E-02
RMM:  10    -0.239838037978E+02    0.18603E-04   -0.67320E-05    64   0.522E-02    0.211E-02
RMM:  11    -0.239838057153E+02   -0.19174E-05   -0.55402E-05    64   0.466E-02    0.954E-03
RMM:  12    -0.239838140355E+02   -0.83202E-05   -0.20589E-05    64   0.285E-02    0.295E-03
RMM:  13    -0.239838218847E+02   -0.78492E-05   -0.66066E-06    64   0.163E-02    0.357E-03
RMM:  14    -0.239838247366E+02   -0.28519E-05   -0.13516E-06    48   0.759E-03    0.136E-03
RMM:  15    -0.239838261644E+02   -0.14278E-05   -0.81880E-07    48   0.658E-03    0.946E-04
RMM:  16    -0.239838269110E+02   -0.74666E-06   -0.17421E-07    48   0.349E-03
    3 T=   165. E= -.23894778E+02 F= -.23983827E+02 E0= -.23988517E+02  EK= 0.85139E-01 SP= 0.12E-02 SK= 0.27E-02
 bond charge predicted
 prediction of wavefunctions
       N       E                     dE             d eps       ncg     rms          rms(c)
DAV:   1    -0.239755339796E+02    0.82922E-02   -0.19926E+00    64   0.135E+01    0.695E-01
RMM:   2    -0.240262843249E+02   -0.50750E-01   -0.53940E-01    64   0.418E+00    0.121E+00
RMM:   3    -0.239705098497E+02    0.55774E-01   -0.14826E-01    64   0.223E+00    0.491E-01
RMM:   4    -0.239668997947E+02    0.36101E-02   -0.48525E-02    64   0.136E+00    0.201E-01
RMM:   5    -0.239666797108E+02    0.22008E-03   -0.68155E-03    64   0.545E-01    0.146E-01
RMM:   6    -0.239661171189E+02    0.56259E-03   -0.11456E-03    64   0.212E-01    0.683E-02
RMM:   7    -0.239660827270E+02    0.34392E-04   -0.56872E-04    64   0.149E-01    0.344E-02
RMM:   8    -0.239660848953E+02   -0.21683E-05   -0.88612E-05    64   0.651E-02    0.147E-02
RMM:   9    -0.239661020309E+02   -0.17136E-04   -0.11285E-05    64   0.224E-02    0.125E-02
RMM:  10    -0.239661104181E+02   -0.83872E-05   -0.13285E-05    64   0.229E-02    0.617E-03
RMM:  11    -0.239661137965E+02   -0.33785E-05   -0.18420E-06    48   0.101E-02    0.327E-03
RMM:  12    -0.239661154263E+02   -0.16298E-05   -0.39762E-07    48   0.534E-03    0.304E-03
RMM:  13    -0.239661159336E+02   -0.50730E-06   -0.68867E-07    48   0.581E-03
    4 T=   180. E= -.23859877E+02 F= -.23966116E+02 E0= -.23970135E+02  EK= 0.93229E-01 SP= 0.38E-02 SK= 0.92E-02
 bond charge predicted
 prediction of wavefunctions
       N       E                     dE             d eps       ncg     rms          rms(c)
DAV:   1    -0.240024766009E+02   -0.36361E-01   -0.18243E+00    64   0.135E+01    0.664E-01
RMM:   2    -0.240090482720E+02   -0.65717E-02   -0.93759E-02    64   0.213E+00    0.691E-01
RMM:   3    -0.240115955845E+02   -0.25473E-02   -0.44681E-02    64   0.139E+00    0.594E-01
RMM:   4    -0.240019062976E+02    0.96893E-02   -0.33285E-02    64   0.106E+00    0.158E-01
RMM:   5    -0.240027769596E+02   -0.87066E-03   -0.80312E-03    64   0.562E-01    0.108E-01
RMM:   6    -0.240026437357E+02    0.13322E-03   -0.89536E-04    64   0.208E-01    0.742E-02
RMM:   7    -0.240026282056E+02    0.15530E-04   -0.32449E-04    64   0.109E-01    0.446E-02
RMM:   8    -0.240027022438E+02   -0.74038E-04   -0.32126E-05    64   0.403E-02    0.362E-02
RMM:   9    -0.240026915571E+02    0.10687E-04   -0.95692E-05    64   0.611E-02    0.141E-02
RMM:  10    -0.240027023545E+02   -0.10797E-04   -0.18042E-05    64   0.277E-02    0.772E-03
RMM:  11    -0.240027069043E+02   -0.45498E-05   -0.43055E-06    64   0.139E-02    0.387E-03
RMM:  12    -0.240027105097E+02   -0.36055E-05   -0.72079E-07    48   0.630E-03    0.262E-03
RMM:  13    -0.240027115962E+02   -0.10865E-05   -0.35126E-07    48   0.451E-03    0.195E-03
RMM:  14    -0.240027123810E+02   -0.78478E-06   -0.74453E-07    48   0.598E-03
    5 T=   207. E= -.23865594E+02 F= -.24002712E+02 E0= -.24006634E+02  EK= 0.10704E+00 SP= 0.80E-02 SK= 0.22E-01
 bond charge predicted
 prediction of wavefunctions
       N       E                     dE             d eps       ncg     rms          rms(c)
DAV:   1    -0.239606941638E+02    0.42017E-01   -0.60202E-01    64   0.805E+00    0.660E-01
RMM:   2    -0.240104082657E+02   -0.49714E-01   -0.33387E-01    64   0.355E+00    0.130E+00
RMM:   3    -0.239664991860E+02    0.43909E-01   -0.10489E-01    64   0.198E+00    0.513E-01
RMM:   4    -0.239641481686E+02    0.23510E-02   -0.12783E-01    64   0.211E+00    0.331E-01
RMM:   5    -0.239618152055E+02    0.23330E-02   -0.14502E-03    64   0.335E-01    0.254E-01
RMM:   6    -0.239603415060E+02    0.14737E-02   -0.10915E-02    64   0.602E-01    0.101E-01
RMM:   7    -0.239602526071E+02    0.88899E-04   -0.26174E-04    64   0.120E-01    0.700E-02
RMM:   8    -0.239601163200E+02    0.13629E-03   -0.73245E-04    64   0.173E-01    0.188E-02
RMM:   9    -0.239602374798E+02   -0.12116E-03   -0.92634E-05    64   0.615E-02    0.323E-02
RMM:  10    -0.239602466605E+02   -0.91807E-05   -0.42735E-05    64   0.388E-02    0.236E-02
RMM:  11    -0.239602454676E+02    0.11930E-05   -0.42486E-05    64   0.399E-02    0.692E-03
RMM:  12    -0.239602527872E+02   -0.73196E-05   -0.12553E-05    64   0.230E-02    0.377E-03
RMM:  13    -0.239602570146E+02   -0.42274E-05   -0.95643E-07    48   0.748E-03    0.165E-03
RMM:  14    -0.239602578280E+02   -0.81338E-06   -0.23383E-07    48   0.341E-03
    6 T=   123. E= -.23846936E+02 F= -.23960258E+02 E0= -.23968758E+02  EK= 0.63496E-01 SP= 0.14E-01 SK= 0.36E-01
 bond charge predicted
 prediction of wavefunctions
       N       E                     dE             d eps       ncg     rms          rms(c)
DAV:   1    -0.239547390832E+02    0.55179E-02   -0.19970E+00    64   0.139E+01    0.624E-01
RMM:   2    -0.239553699067E+02   -0.63082E-03   -0.10885E-01    64   0.248E+00    0.637E-01
RMM:   3    -0.239636943033E+02   -0.83244E-02   -0.69034E-02    64   0.165E+00    0.742E-01
RMM:   4    -0.239627993259E+02    0.89498E-03   -0.11176E-02    64   0.748E-01    0.545E-01
RMM:   5    -0.239532436793E+02    0.95556E-02   -0.16412E-02    64   0.761E-01    0.248E-01
RMM:   6    -0.239522814747E+02    0.96220E-03   -0.54640E-03    64   0.464E-01    0.158E-01
RMM:   7    -0.239521814434E+02    0.10003E-03   -0.97065E-04    64   0.199E-01    0.116E-01
RMM:   8    -0.239519947913E+02    0.18665E-03   -0.40906E-04    64   0.131E-01    0.834E-02
RMM:   9    -0.239519949770E+02   -0.18577E-06   -0.12329E-03    64   0.212E-01    0.407E-02
RMM:  10    -0.239520231962E+02   -0.28219E-04   -0.13739E-04    64   0.783E-02    0.292E-02
RMM:  11    -0.239520326109E+02   -0.94148E-05   -0.94344E-05    64   0.573E-02    0.902E-03
RMM:  12    -0.239520563631E+02   -0.23752E-04   -0.14814E-05    64   0.249E-02    0.337E-03
RMM:  13    -0.239520679294E+02   -0.11566E-04   -0.56204E-06    60   0.149E-02    0.284E-03
RMM:  14    -0.239520701498E+02   -0.22204E-05   -0.86052E-07    48   0.667E-03    0.782E-04
RMM:  15    -0.239520715973E+02   -0.14476E-05   -0.96069E-07    48   0.667E-03    0.112E-03
RMM:  16    -0.239520723405E+02   -0.74321E-06   -0.31561E-07    48   0.380E-03
    7 T=   120. E= -.23822765E+02 F= -.23952072E+02 E0= -.23956099E+02  EK= 0.61814E-01 SP= 0.21E-01 SK= 0.46E-01
 bond charge predicted
 prediction of wavefunctions
       N       E                     dE             d eps       ncg     rms          rms(c)
DAV:   1    -0.239749847019E+02   -0.22913E-01   -0.12052E+00    64   0.109E+01    0.693E-01
RMM:   2    -0.239759509612E+02   -0.96626E-03   -0.78169E-02    64   0.217E+00    0.604E-01
RMM:   3    -0.239673879981E+02    0.85630E-02   -0.42435E-02    64   0.143E+00    0.277E-01
RMM:   4    -0.239686249413E+02   -0.12369E-02   -0.85070E-03    64   0.612E-01    0.188E-01
RMM:   5    -0.239680016792E+02    0.62326E-03   -0.81976E-03    64   0.528E-01    0.962E-02
RMM:   6    -0.239681524824E+02   -0.15080E-03   -0.56039E-04    64   0.174E-01    0.594E-02
RMM:   7    -0.239684634350E+02   -0.31095E-03   -0.80594E-04    64   0.178E-01    0.823E-02
RMM:   8    -0.239685996079E+02   -0.13617E-03   -0.26561E-04    64   0.103E-01    0.260E-02
RMM:   9    -0.239686847677E+02   -0.85160E-04   -0.43547E-05    64   0.414E-02    0.119E-02
RMM:  10    -0.239687369368E+02   -0.52169E-04   -0.79583E-06    64   0.188E-02    0.945E-03
RMM:  11    -0.239687575379E+02   -0.20601E-04   -0.21833E-05    64   0.276E-02    0.560E-03
RMM:  12    -0.239687625628E+02   -0.50249E-05   -0.40669E-06    60   0.125E-02    0.824E-04
RMM:  13    -0.239687658781E+02   -0.33153E-05   -0.75982E-07    48   0.645E-03    0.192E-03
RMM:  14    -0.239687675591E+02   -0.16810E-05   -0.30254E-07    48   0.366E-03    0.141E-03
RMM:  15    -0.239687677851E+02   -0.22595E-06   -0.31713E-07    48   0.364E-03
    8 T=   100. E= -.23832036E+02 F= -.23968768E+02 E0= -.23977249E+02  EK= 0.51487E-01 SP= 0.29E-01 SK= 0.56E-01
 bond charge predicted
 prediction of wavefunctions
       N       E                     dE             d eps       ncg     rms          rms(c)
DAV:   1    -0.239970839663E+02   -0.28316E-01   -0.14727E+00    64   0.111E+01    0.674E-01
RMM:   2    -0.239914929236E+02    0.55910E-02   -0.10462E-01    64   0.230E+00    0.363E-01
RMM:   3    -0.239892123412E+02    0.22806E-02   -0.19400E-02    64   0.913E-01    0.309E-01
RMM:   4    -0.239902420625E+02   -0.10297E-02   -0.14441E-02    64   0.768E-01    0.351E-01
RMM:   5    -0.239867470341E+02    0.34950E-02   -0.95275E-03    64   0.605E-01    0.224E-01
RMM:   6    -0.239856798686E+02    0.10672E-02   -0.34757E-03    64   0.362E-01    0.864E-02
RMM:   7    -0.239861376387E+02   -0.45777E-03   -0.12487E-03    64   0.234E-01    0.608E-02
RMM:   8    -0.239864983219E+02   -0.36068E-03   -0.97910E-04    64   0.180E-01    0.712E-02
RMM:   9    -0.239864823425E+02    0.15979E-04   -0.18993E-04    64   0.888E-02    0.251E-02
RMM:  10    -0.239865530897E+02   -0.70747E-04   -0.95563E-05    64   0.619E-02    0.277E-02
RMM:  11    -0.239865777694E+02   -0.24680E-04   -0.27903E-05    64   0.337E-02    0.129E-02
RMM:  12    -0.239865877667E+02   -0.99973E-05   -0.72703E-06    64   0.167E-02    0.361E-03
RMM:  13    -0.239865922744E+02   -0.45077E-05   -0.65879E-07    48   0.557E-03    0.889E-04
RMM:  14    -0.239865951542E+02   -0.28797E-05   -0.40783E-07    48   0.409E-03    0.355E-04
RMM:  15    -0.239865961846E+02   -0.10304E-05   -0.87781E-08    44   0.231E-03    0.741E-04
RMM:  16    -0.239865969994E+02   -0.81476E-06   -0.50283E-08    40   0.192E-03
    9 T=   135. E= -.23809898E+02 F= -.23986597E+02 E0= -.23995030E+02  EK= 0.69678E-01 SP= 0.38E-01 SK= 0.69E-01
 bond charge predicted
 prediction of wavefunctions
       N       E                     dE             d eps       ncg     rms          rms(c)
DAV:   1    -0.239942569421E+02   -0.76608E-02   -0.14011E+00    64   0.112E+01    0.866E-01
RMM:   2    -0.239714653977E+02    0.22792E-01   -0.13708E-01    64   0.251E+00    0.492E-01
RMM:   3    -0.239729870656E+02   -0.15217E-02   -0.80615E-03    64   0.687E-01    0.367E-01
RMM:   4    -0.239789342114E+02   -0.59471E-02   -0.62706E-02    64   0.142E+00    0.468E-01
RMM:   5    -0.239727718625E+02    0.61623E-02   -0.17341E-02    64   0.782E-01    0.185E-01
RMM:   6    -0.239722193721E+02    0.55249E-03   -0.33228E-03    64   0.370E-01    0.132E-01
RMM:   7    -0.239718006758E+02    0.41870E-03   -0.28170E-03    64   0.315E-01    0.430E-02
RMM:   8    -0.239719602403E+02   -0.15956E-03   -0.26933E-04    64   0.115E-01    0.284E-02
RMM:   9    -0.239720123872E+02   -0.52147E-04   -0.17171E-04    64   0.811E-02    0.792E-03
RMM:  10    -0.239720291736E+02   -0.16786E-04   -0.96830E-06    64   0.234E-02    0.890E-03
RMM:  11    -0.239720334407E+02   -0.42670E-05   -0.69169E-06    64   0.160E-02    0.711E-03
RMM:  12    -0.239720380075E+02   -0.45668E-05   -0.31971E-06    56   0.117E-02    0.223E-03
RMM:  13    -0.239720399972E+02   -0.19897E-05   -0.11995E-06    48   0.813E-03    0.249E-03
RMM:  14    -0.239720408952E+02   -0.89794E-06   -0.64278E-07    48   0.567E-03
   10 T=    96. E= -.23792554E+02 F= -.23972041E+02 E0= -.23975937E+02  EK= 0.49778E-01 SP= 0.48E-01 SK= 0.82E-01
 bond charge predicted
 prediction of wavefunctions
 wavefunctions rotated
