<?xml version="1.0" encoding="ISO-8859-1"?>
<modeling>
 <generator>
  <i name="program" type="string">vasp </i>
  <i name="version" type="string">5.4.4.18Apr17-6-g9f103f2a35  </i>
  <i name="subversion" type="string">(build Jul 12 2018 13:43:46) complex            parallel </i>
  <i name="platform" type="string">LinuxGNU </i>
  <i name="date" type="string">2019 06 22 </i>
  <i name="time" type="string">02:17:35 </i>
 </generator>
 <incar>
  <i type="int" name="ISTART">     0</i>
  <i type="string" name="PREC">a</i>
  <i type="string" name="ALGO">fast</i>
  <i type="int" name="MAXMIX">    50</i>
  <i type="int" name="ICHARG">     2</i>
  <i type="int" name="IBRION">     0</i>
  <i name="EDIFF">      0.00000100</i>
  <i type="int" name="NSW">    10</i>
  <i type="int" name="ISIF">     2</i>
  <i type="int" name="ISYM">     0</i>
  <i type="int" name="NBLOCK">     1</i>
  <i type="int" name="KBLOCK">   100</i>
  <i name="ENCUT">    400.00000000</i>
  <i name="POTIM">      2.00000000</i>
  <i name="TEBEG">     50.00000000</i>
  <i name="TEEND">     50.00000000</i>
  <i name="SMASS">      0.00000000</i>
  <i type="logical" name="LREAL"> T  </i>
  <i type="int" name="ISMEAR">     1</i>
  <i name="SIGMA">      0.20000000</i>
  <i name="KSPACING">      0.50000000</i>
  <i type="logical" name="KGAMMA"> F  </i>
  <i name="PSTRESS">      0.00000000</i>
  <i type="logical" name="LWAVE"> F  </i>
  <i type="logical" name="LCHARG"> F  </i>
  <v type="int" name="KPOINT_BSE">    -1     0     0     0</v>
 </incar>
 <structure name="primitive_cell" >
  <crystal>
   <varray name="basis" >
    <v>       9.99058101       0.00000000       0.00000000 </v>
    <v>       0.06543512       9.81772121       0.00000000 </v>
    <v>       0.29273629      -0.12622035       9.84927174 </v>
   </varray>
   <i name="volume">    966.06324875 </i>
   <varray name="rec_basis" >
    <v>       0.10009428      -0.00066713      -0.00298351 </v>
    <v>      -0.00000000       0.10185663       0.00130531 </v>
    <v>       0.00000000       0.00000000       0.10153035 </v>
   </varray>
  </crystal>
  <varray name="positions" >
   <v>      -0.46197027       0.40677535       0.36056561 </v>
   <v>      -0.49716960       0.46639491       0.44509056 </v>
   <v>       0.39488736       0.48041419       0.43844223 </v>
   <v>      -0.44752045      -0.43405991       0.44246352 </v>
   <v>      -0.47089151       0.41608705      -0.46090537 </v>
  </varray>
 </structure>
 <varray name="primitive_index" >
  <v type="int" >        1 </v>
  <v type="int" >        5 </v>
  <v type="int" >        2 </v>
  <v type="int" >        3 </v>
  <v type="int" >        4 </v>
 </varray>
 <kpoints>
  <generation param="Monkhorst-Pack">
   <v type="int" name="divisions">       2        2        2 </v>
   <v name="usershift">      0.00000000       0.00000000       0.00000000 </v>
   <v name="genvec1">      0.50000000       0.00000000       0.00000000 </v>
   <v name="genvec2">      0.00000000       0.50000000      -0.00000000 </v>
   <v name="genvec3">      0.00000000       0.00000000       0.50000000 </v>
   <v name="shift">      0.50000000       0.50000000       0.50000000 </v>
  </generation>
  <varray name="kpointlist" >
   <v>       0.25000000       0.25000000       0.25000000 </v>
   <v>      -0.25000000       0.25000000       0.25000000 </v>
   <v>       0.25000000      -0.25000000       0.25000000 </v>
   <v>      -0.25000000      -0.25000000       0.25000000 </v>
  </varray>
  <varray name="weights" >
   <v>       0.25000000 </v>
   <v>       0.25000000 </v>
   <v>       0.25000000 </v>
   <v>       0.25000000 </v>
  </varray>
 </kpoints>
 <parameters>
  <separator name="general" >
   <i type="string" name="SYSTEM">unknown system</i>
   <i type="logical" name="LCOMPAT"> F  </i>
  </separator>
  <separator name="electronic" >
   <i type="string" name="PREC">a</i>
   <i name="ENMAX">    400.00000000</i>
   <i name="ENAUG">    644.87300000</i>
   <i name="EDIFF">      0.00000100</i>
   <i type="int" name="IALGO">    68</i>
   <i type="int" name="IWAVPR">    12</i>
   <i type="int" name="NBANDS">     8</i>
   <i name="NELECT">      8.00000000</i>
   <i type="int" name="TURBO">     0</i>
   <i type="int" name="IRESTART">     0</i>
   <i type="int" name="NREBOOT">     0</i>
   <i type="int" name="NMIN">     0</i>
   <i name="EREF">      0.00000000</i>
   <separator name="electronic smearing" >
    <i type="int" name="ISMEAR">     1</i>
    <i name="SIGMA">      0.20000000</i>
    <i name="KSPACING">      0.50000000</i>
    <i type="logical" name="KGAMMA"> F  </i>
   </separator>
   <separator name="electronic projectors" >
    <i type="logical" name="LREAL"> T  </i>
    <v name="ROPT">      0.00000000      0.00000000</v>
    <i type="int" name="LMAXPAW">  -100</i>
    <i type="int" name="LMAXMIX">     2</i>
    <i type="logical" name="NLSPLINE"> F  </i>
   </separator>
   <separator name="electronic startup" >
    <i type="int" name="ISTART">     0</i>
    <i type="int" name="ICHARG">     2</i>
    <i type="int" name="INIWAV">     1</i>
   </separator>
   <separator name="electronic spin" >
    <i type="int" name="ISPIN">     1</i>
    <i type="logical" name="LNONCOLLINEAR"> F  </i>
    <v name="MAGMOM">      1.00000000      1.00000000      1.00000000      1.00000000      1.00000000</v>
    <i name="NUPDOWN">     -1.00000000</i>
    <i type="logical" name="LSORBIT"> F  </i>
    <v name="SAXIS">      0.00000000      0.00000000      1.00000000</v>
    <i type="logical" name="LSPIRAL"> F  </i>
    <v name="QSPIRAL">      0.00000000      0.00000000      0.00000000</v>
    <i type="logical" name="LZEROZ"> F  </i>
   </separator>
   <separator name="electronic exchange-correlation" >
    <i type="logical" name="LASPH"> F  </i>
    <i type="logical" name="LMETAGGA"> F  </i>
   </separator>
   <separator name="electronic convergence" >
    <i type="int" name="NELM">    60</i>
    <i type="int" name="NELMDL">    -5</i>
    <i type="int" name="NELMIN">     2</i>
    <i name="ENINI">    400.00000000</i>
    <separator name="electronic convergence detail" >
     <i type="logical" name="LDIAG"> T  </i>
     <i type="logical" name="LSUBROT"> F  </i>
     <i name="WEIMIN">      0.00100000</i>
     <i name="EBREAK">      0.00000003</i>
     <i name="DEPER">      0.30000000</i>
     <i type="int" name="NRMM">     4</i>
     <i name="TIME">      0.40000000</i>
    </separator>
   </separator>
   <separator name="electronic mixer" >
    <i name="AMIX">      0.40000000</i>
    <i name="BMIX">      1.00000000</i>
    <i name="AMIN">      0.10000000</i>
    <i name="AMIX_MAG">      1.60000000</i>
    <i name="BMIX_MAG">      1.00000000</i>
    <separator name="electronic mixer details" >
     <i type="int" name="IMIX">     4</i>
     <i type="logical" name="MIXFIRST"> F  </i>
     <i type="int" name="MAXMIX">    50</i>
     <i name="WC">    100.00000000</i>
     <i type="int" name="INIMIX">     1</i>
     <i type="int" name="MIXPRE">     1</i>
     <i type="int" name="MREMOVE">     5</i>
    </separator>
   </separator>
   <separator name="electronic dipolcorrection" >
    <i type="logical" name="LDIPOL"> F  </i>
    <i type="logical" name="LMONO"> F  </i>
    <i type="int" name="IDIPOL">     0</i>
    <i name="EPSILON">      1.00000000</i>
    <v name="DIPOL">   -100.00000000   -100.00000000   -100.00000000</v>
    <i name="EFIELD">      0.00000000</i>
   </separator>
  </separator>
  <separator name="grids" >
   <i type="int" name="NGX">    70</i>
   <i type="int" name="NGY">    64</i>
   <i type="int" name="NGZ">    64</i>
   <i type="int" name="NGXF">   140</i>
   <i type="int" name="NGYF">   128</i>
   <i type="int" name="NGZF">   128</i>
   <i type="logical" name="ADDGRID"> F  </i>
  </separator>
  <separator name="ionic" >
   <i type="int" name="NSW">    10</i>
   <i type="int" name="IBRION">     0</i>
   <i type="int" name="MDALGO">     0</i>
   <i type="int" name="ISIF">     2</i>
   <i name="PSTRESS">      0.00000000</i>
   <i name="EDIFFG">      0.00001000</i>
   <i type="int" name="NFREE">     0</i>
   <i name="POTIM">      2.00000000</i>
   <i name="SMASS">      0.00162053</i>
   <i name="SCALEE">      1.00000000</i>
  </separator>
  <separator name="ionic md" >
   <i name="TEBEG">     50.00000000</i>
   <i name="TEEND">     50.00000000</i>
   <i type="int" name="NBLOCK">     1</i>
   <i type="int" name="KBLOCK">     1</i>
   <i type="int" name="NPACO">   256</i>
   <i name="APACO">     16.00000000</i>
  </separator>
  <separator name="symmetry" >
   <i type="int" name="ISYM">     0</i>
   <i name="SYMPREC">      0.00001000</i>
  </separator>
  <separator name="dos" >
   <i type="int" name="LORBIT">     0</i>
   <v name="RWIGS">     -1.00000000     -1.00000000</v>
   <i type="int" name="NEDOS">   301</i>
   <i name="EMIN">     10.00000000</i>
   <i name="EMAX">    -10.00000000</i>
   <i name="EFERMI">      0.00000000</i>
  </separator>
  <separator name="writing" >
   <i type="int" name="NWRITE">     2</i>
   <i type="logical" name="LWAVE"> F  </i>
   <i type="logical" name="LDOWNSAMPLE"> F  </i>
   <i type="logical" name="LCHARG"> F  </i>
   <i type="logical" name="LPARD"> F  </i>
   <i type="logical" name="LVTOT"> F  </i>
   <i type="logical" name="LVHAR"> F  </i>
   <i type="logical" name="LELF"> F  </i>
   <i type="logical" name="LOPTICS"> F  </i>
   <v name="STM">      0.00000000      0.00000000      0.00000000      0.00000000      0.00000000      0.00000000      0.00000000</v>
  </separator>
  <separator name="performance" >
   <i type="int" name="NPAR">     1</i>
   <i type="int" name="NSIM">     4</i>
   <i type="int" name="NBLK">    -1</i>
   <i type="logical" name="LPLANE"> T  </i>
   <i type="logical" name="LSCALAPACK"> T  </i>
   <i type="logical" name="LSCAAWARE"> F  </i>
   <i type="logical" name="LSCALU"> F  </i>
   <i type="logical" name="LASYNC"> F  </i>
   <i type="logical" name="LORBITALREAL"> F  </i>
  </separator>
  <separator name="miscellaneous" >
   <i type="int" name="IDIOT">     3</i>
   <i type="int" name="ISPECIAL">     0</i>
   <i type="logical" name="LMUSIC"> F  </i>
   <v name="POMASS">      1.00000000     12.01100000</v>
   <v name="DARWINR">      0.00000000      0.00000000</v>
   <v name="DARWINV">      1.00000000      1.00000000</v>
   <i type="logical" name="LCORR"> T  </i>
  </separator>
  <i type="logical" name="GGA_COMPAT"> T  </i>
  <i type="logical" name="LBERRY"> F  </i>
  <i type="int" name="ICORELEVEL">     0</i>
  <i type="logical" name="LDAU"> F  </i>
  <i type="int" name="I_CONSTRAINED_M">     0</i>
  <separator name="electronic exchange-correlation" >
   <i type="string" name="GGA">--</i>
   <i type="int" name="VOSKOWN">     0</i>
   <i type="logical" name="LHFCALC"> F  </i>
   <i type="string" name="PRECFOCK"></i>
   <i type="logical" name="LSYMGRAD"> F  </i>
   <i type="logical" name="LHFONE"> F  </i>
   <i type="logical" name="LRHFCALC"> F  </i>
   <i type="logical" name="LTHOMAS"> F  </i>
   <i type="logical" name="LMODELHF"> F  </i>
   <i name="ENCUT4O">     -1.00000000</i>
   <i type="int" name="EXXOEP">     0</i>
   <i type="int" name="FOURORBIT">     0</i>
   <i name="AEXX">      0.00000000</i>
   <i name="HFALPHA">      0.00000000</i>
   <i name="MCALPHA">      0.00000000</i>
   <i name="ALDAX">      1.00000000</i>
   <i name="AGGAX">      1.00000000</i>
   <i name="ALDAC">      1.00000000</i>
   <i name="AGGAC">      1.00000000</i>
   <i type="int" name="NKREDX">     1</i>
   <i type="int" name="NKREDY">     1</i>
   <i type="int" name="NKREDZ">     1</i>
   <i type="logical" name="SHIFTRED"> F  </i>
   <i type="logical" name="ODDONLY"> F  </i>
   <i type="logical" name="EVENONLY"> F  </i>
   <i type="int" name="LMAXFOCK">     0</i>
   <i type="int" name="NMAXFOCKAE">     0</i>
   <i type="logical" name="LFOCKAEDFT"> F  </i>
   <i name="HFSCREEN">      0.00000000</i>
   <i name="HFSCREENC">      0.00000000</i>
   <i type="int" name="NBANDSGWLOW">     0</i>
  </separator>
  <separator name="vdW DFT" >
   <i type="logical" name="LUSE_VDW"> F  </i>
   <i name="Zab_VDW">     -0.84910000</i>
   <i name="PARAM1">      0.12340000</i>
   <i name="PARAM2">      1.00000000</i>
   <i name="PARAM3">      0.00000000</i>
  </separator>
  <separator name="model GW" >
   <i type="int" name="MODEL_GW">     0</i>
   <i name="MODEL_EPS0">    115.92758985</i>
   <i name="MODEL_ALPHA">      1.00000000</i>
  </separator>
  <separator name="linear response parameters" >
   <i type="logical" name="LEPSILON"> F  </i>
   <i type="logical" name="LRPA"> F  </i>
   <i type="logical" name="LNABLA"> F  </i>
   <i type="logical" name="LVEL"> F  </i>
   <i type="int" name="KINTER">     0</i>
   <i name="CSHIFT">      0.10000000</i>
   <i name="OMEGAMAX">     -1.00000000</i>
   <i name="DEG_THRESHOLD">      0.00200000</i>
   <i name="RTIME">     -0.10000000</i>
   <i name="WPLASMAI">      0.00000000</i>
   <v name="DFIELD">      0.00000000      0.00000000      0.00000000</v>
   <v name="WPLASMA">      0.00000000      0.00000000      0.00000000      0.00000000      0.00000000      0.00000000      0.00000000      0.00000000      0.00000000</v>
  </separator>
  <separator name="orbital magnetization" >
   <i type="logical" name="NUCIND"> F  </i>
   <v name="MAGPOS">      0.00000000      0.00000000      0.00000000</v>
   <i type="logical" name="LNICSALL"> T  </i>
   <i type="logical" name="ORBITALMAG"> F  </i>
   <i type="logical" name="LMAGBLOCH"> F  </i>
   <i type="logical" name="LCHIMAG"> F  </i>
   <i type="logical" name="LGAUGE"> T  </i>
   <i type="int" name="MAGATOM">     0</i>
   <v name="MAGDIPOL">      0.00000000      0.00000000      0.00000000</v>
   <v name="AVECCONST">      0.00000000      0.00000000      0.00000000</v>
  </separator>
  <separator name="response functions" >
   <i type="logical" name="LADDER"> F  </i>
   <i type="logical" name="LRPAFORCE"> F  </i>
   <i type="logical" name="LFXC"> F  </i>
   <i type="logical" name="LHARTREE"> T  </i>
   <i type="int" name="IBSE">     0</i>
   <v type="int" name="KPOINT">    -1     0     0     0</v>
   <i type="logical" name="LTCTE"> F  </i>
   <i type="logical" name="LTETE"> F  </i>
   <i type="logical" name="LTRIPLET"> F  </i>
   <i type="logical" name="LFXCEPS"> F  </i>
   <i type="logical" name="LFXHEG"> F  </i>
   <i type="int" name="NATURALO">     2</i>
   <i type="logical" name="L2ORDER"> F  </i>
   <i type="logical" name="LMP2LT"> F  </i>
   <i type="logical" name="LUSEW"> F  </i>
   <i name="ENCUTGW">     -2.00000000</i>
   <i name="ENCUTGWSOFT">     -2.00000000</i>
   <i name="ENCUTLF">     -1.00000000</i>
   <i type="int" name="LMAXMP2">    -1</i>
   <i name="SCISSOR">      0.00000000</i>
   <i type="int" name="NOMEGA">     0</i>
   <i type="int" name="NOMEGAR">     0</i>
   <i type="int" name="NBANDSGW">    -1</i>
   <i type="int" name="NBANDSO">    -1</i>
   <i type="int" name="NBANDSV">    -1</i>
   <i type="int" name="NELM">     1</i>
   <i type="int" name="NELMHF">     1</i>
   <i type="int" name="DIM">     3</i>
   <i type="int" name="ANTIRES">     0</i>
   <i name="OMEGAMAX">    -30.00000000</i>
   <i name="OMEGAMIN">    -30.00000000</i>
   <i name="OMEGATL">   -200.00000000</i>
   <i type="int" name="OMEGAGRID">   140</i>
   <i name="CSHIFT">     -0.10000000</i>
   <i type="logical" name="SELFENERGY"> F  </i>
   <i type="logical" name="LSPECTRAL"> F  </i>
   <i type="logical" name="LSPECTRALGW"> F  </i>
   <i type="logical" name="LSINGLES"> F  </i>
   <i type="logical" name="LFERMIGW"> F  </i>
   <i type="logical" name="ODDONLYGW"> F  </i>
   <i type="logical" name="EVENONLYGW"> F  </i>
   <i type="int" name="NKREDLFX">     1</i>
   <i type="int" name="NKREDLFY">     1</i>
   <i type="int" name="NKREDLFZ">     1</i>
   <i type="int" name="MAXMEM">  2800</i>
   <i type="int" name="TELESCOPE">     0</i>
   <i type="int" name="TAUPAR">     1</i>
   <i type="int" name="OMEGAPAR">    -1</i>
   <i name="LAMBDA">      1.00000000</i>
  </separator>
  <separator name="External order field" >
   <i name="OFIELD_KAPPA">      0.00000000</i>
   <v name="OFIELD_K">      0.00000000      0.00000000      0.00000000</v>
   <i name="OFIELD_Q6_NEAR">      0.00000000</i>
   <i name="OFIELD_Q6_FAR">      0.00000000</i>
   <i name="OFIELD_A">      0.00000000</i>
  </separator>
 </parameters>
 <atominfo>
  <atoms>       5 </atoms>
  <types>       2 </types>
  <array name="atoms" >
   <dimension dim="1">ion</dimension>
   <field type="string">element</field>
   <field type="int">atomtype</field>
   <set>
    <rc><c>H </c><c>   1</c></rc>
    <rc><c>H </c><c>   1</c></rc>
    <rc><c>H </c><c>   1</c></rc>
    <rc><c>H </c><c>   1</c></rc>
    <rc><c>C </c><c>   2</c></rc>
   </set>
  </array>
  <array name="atomtypes" >
   <dimension dim="1">type</dimension>
   <field type="int">atomspertype</field>
   <field type="string">element</field>
   <field>mass</field>
   <field>valence</field>
   <field type="string">pseudopotential</field>
   <set>
    <rc><c>   4</c><c>H </c><c>      1.00000000</c><c>      1.00000000</c><c>  PAW_PBE H 15Jun2001                   </c></rc>
    <rc><c>   1</c><c>C </c><c>     12.01100000</c><c>      4.00000000</c><c>  PAW_PBE C 08Apr2002                   </c></rc>
   </set>
  </array>
 </atominfo>
 <structure name="initialpos" >
  <crystal>
   <varray name="basis" >
    <v>       9.99058101       0.00000000       0.00000000 </v>
    <v>       0.06543512       9.81772121       0.00000000 </v>
    <v>       0.29273629      -0.12622035       9.84927174 </v>
   </varray>
   <i name="volume">    966.06324875 </i>
   <varray name="rec_basis" >
    <v>       0.10009428      -0.00066713      -0.00298351 </v>
    <v>      -0.00000000       0.10185663       0.00130531 </v>
    <v>       0.00000000       0.00000000       0.10153035 </v>
   </varray>
  </crystal>
  <varray name="positions" >
   <v>       0.53802973       0.40677535       0.36056561 </v>
   <v>       0.39488736       0.48041419       0.43844223 </v>
   <v>       0.55247955       0.56594009       0.44246352 </v>
   <v>       0.52910849       0.41608705       0.53909463 </v>
   <v>       0.50283040       0.46639491       0.44509056 </v>
  </varray>
  <varray name="velocities" >
   <v>      -0.00262296       0.00073958      -0.00065474 </v>
   <v>       0.00062000       0.00088112      -0.00064942 </v>
   <v>       0.00063702      -0.00082058       0.00124639 </v>
   <v>       0.00197378      -0.00128836       0.00144039 </v>
   <v>      -0.00005061       0.00004065      -0.00011511 </v>
  </varray>
 </structure>
 <calculation>
  <scstep>
   <time name="dav">    2.06    2.06</time>
   <time name="total">    3.47    3.48</time>
   <energy>
    <i name="alphaZ">      0.25076080 </i>
    <i name="ewald">    129.80808831 </i>
    <i name="hartreedc">   -243.86743115 </i>
    <i name="XCdc">     22.07039888 </i>
    <i name="pawpsdc">    117.05815612 </i>
    <i name="pawaedc">   -117.66307307 </i>
    <i name="eentropy">      0.00679239 </i>
    <i name="bandstr">    -86.48999044 </i>
    <i name="atom">    197.04175453 </i>
    <i name="e_fr_energy">     18.21545639 </i>
    <i name="e_wo_entrp">     18.20866400 </i>
    <i name="e_0_energy">     18.21319226 </i>
   </energy>
  </scstep>
  <scstep>
   <time name="dav">    1.41    1.41</time>
   <time name="total">    1.41    1.41</time>
   <energy>
    <i name="e_fr_energy">    -21.63618249 </i>
    <i name="e_wo_entrp">    -21.64075387 </i>
    <i name="e_0_energy">    -21.63770628 </i>
   </energy>
  </scstep>
  <scstep>
   <time name="dav">    1.44    1.44</time>
   <time name="total">    1.44    1.44</time>
   <energy>
    <i name="e_fr_energy">    -27.43513761 </i>
    <i name="e_wo_entrp">    -27.45494336 </i>
    <i name="e_0_energy">    -27.44173953 </i>
   </energy>
  </scstep>
  <scstep>
   <time name="dav">    2.61    2.61</time>
   <time name="total">    2.61    2.61</time>
   <energy>
    <i name="e_fr_energy">    -27.68479804 </i>
    <i name="e_wo_entrp">    -27.70573622 </i>
    <i name="e_0_energy">    -27.69177744 </i>
   </energy>
  </scstep>
  <scstep>
   <time name="dav">    2.01    2.02</time>
   <time name="total">    2.17    2.18</time>
   <energy>
    <i name="e_fr_energy">    -27.68489659 </i>
    <i name="e_wo_entrp">    -27.70583624 </i>
    <i name="e_0_energy">    -27.69187647 </i>
   </energy>
  </scstep>
  <scstep>
   <time name="diag">    0.29    0.29</time>
   <time name="diis">    1.01    1.01</time>
   <time name="orth">    0.01    0.01</time>
   <time name="total">    2.89    2.90</time>
   <energy>
    <i name="e_fr_energy">    -24.65798204 </i>
    <i name="e_wo_entrp">    -24.69174441 </i>
    <i name="e_0_energy">    -24.66923616 </i>
   </energy>
  </scstep>
  <scstep>
   <time name="diag">    0.30    0.30</time>
   <time name="diis">    1.01    1.01</time>
   <time name="orth">    0.01    0.01</time>
   <time name="total">    2.88    2.89</time>
   <energy>
    <i name="e_fr_energy">    -24.13613092 </i>
    <i name="e_wo_entrp">    -24.17354155 </i>
    <i name="e_0_energy">    -24.14860113 </i>
   </energy>
  </scstep>
  <scstep>
   <time name="diag">    0.30    0.31</time>
   <time name="diis">    1.05    1.05</time>
   <time name="orth">    0.01    0.01</time>
   <time name="total">    2.95    2.96</time>
   <energy>
    <i name="e_fr_energy">    -24.00774115 </i>
    <i name="e_wo_entrp">    -24.04125726 </i>
    <i name="e_0_energy">    -24.01891318 </i>
   </energy>
  </scstep>
  <scstep>
   <time name="diag">    0.29    0.29</time>
   <time name="diis">    1.02    1.03</time>
   <time name="orth">    0.01    0.01</time>
   <time name="total">    2.89    2.89</time>
   <energy>
    <i name="e_fr_energy">    -23.98540436 </i>
    <i name="e_wo_entrp">    -24.02517847 </i>
    <i name="e_0_energy">    -23.99866240 </i>
   </energy>
  </scstep>
  <scstep>
   <time name="diag">    0.25    0.25</time>
   <time name="diis">    1.01    1.01</time>
   <time name="orth">    0.01    0.01</time>
   <time name="total">    2.85    2.85</time>
   <energy>
    <i name="e_fr_energy">    -23.98139786 </i>
    <i name="e_wo_entrp">    -24.01898448 </i>
    <i name="e_0_energy">    -23.99392673 </i>
   </energy>
  </scstep>
  <scstep>
   <time name="diag">    0.29    0.29</time>
   <time name="diis">    1.00    1.00</time>
   <time name="orth">    0.01    0.01</time>
   <time name="total">    2.87    2.88</time>
   <energy>
    <i name="e_fr_energy">    -23.97925657 </i>
    <i name="e_wo_entrp">    -24.01728601 </i>
    <i name="e_0_energy">    -23.99193305 </i>
   </energy>
  </scstep>
  <scstep>
   <time name="diag">    0.30    0.30</time>
   <time name="diis">    1.02    1.03</time>
   <time name="orth">    0.01    0.01</time>
   <time name="total">    2.85    2.85</time>
   <energy>
    <i name="e_fr_energy">    -23.97615910 </i>
    <i name="e_wo_entrp">    -24.01531342 </i>
    <i name="e_0_energy">    -23.98921054 </i>
   </energy>
  </scstep>
  <scstep>
   <time name="diag">    0.30    0.30</time>
   <time name="diis">    1.03    1.03</time>
   <time name="orth">    0.01    0.01</time>
   <time name="total">    2.81    2.81</time>
   <energy>
    <i name="e_fr_energy">    -23.97681581 </i>
    <i name="e_wo_entrp">    -24.01476581 </i>
    <i name="e_0_energy">    -23.98946581 </i>
   </energy>
  </scstep>
  <scstep>
   <time name="diag">    0.29    0.29</time>
   <time name="diis">    1.01    1.01</time>
   <time name="orth">    0.01    0.01</time>
   <time name="total">    2.74    2.75</time>
   <energy>
    <i name="e_fr_energy">    -23.98232600 </i>
    <i name="e_wo_entrp">    -24.01987728 </i>
    <i name="e_0_energy">    -23.99484309 </i>
   </energy>
  </scstep>
  <scstep>
   <time name="diag">    0.29    0.29</time>
   <time name="diis">    1.02    1.02</time>
   <time name="orth">    0.01    0.01</time>
   <time name="total">    2.72    2.72</time>
   <energy>
    <i name="e_fr_energy">    -23.98533197 </i>
    <i name="e_wo_entrp">    -24.02370022 </i>
    <i name="e_0_energy">    -23.99812139 </i>
   </energy>
  </scstep>
  <scstep>
   <time name="diag">    0.30    0.30</time>
   <time name="diis">    1.03    1.03</time>
   <time name="orth">    0.01    0.01</time>
   <time name="total">    2.72    2.73</time>
   <energy>
    <i name="e_fr_energy">    -23.98669283 </i>
    <i name="e_wo_entrp">    -24.02484398 </i>
    <i name="e_0_energy">    -23.99940988 </i>
   </energy>
  </scstep>
  <scstep>
   <time name="diag">    0.25    0.25</time>
   <time name="diis">    1.07    1.07</time>
   <time name="orth">    0.01    0.01</time>
   <time name="total">    2.78    2.79</time>
   <energy>
    <i name="e_fr_energy">    -23.98737541 </i>
    <i name="e_wo_entrp">    -24.02541694 </i>
    <i name="e_0_energy">    -24.00005592 </i>
   </energy>
  </scstep>
  <scstep>
   <time name="diag">    0.29    0.29</time>
   <time name="diis">    1.03    1.03</time>
   <time name="orth">    0.01    0.01</time>
   <time name="total">    2.70    2.71</time>
   <energy>
    <i name="e_fr_energy">    -23.98772845 </i>
    <i name="e_wo_entrp">    -24.02570570 </i>
    <i name="e_0_energy">    -24.00038754 </i>
   </energy>
  </scstep>
  <scstep>
   <time name="diag">    0.29    0.29</time>
   <time name="diis">    1.03    1.03</time>
   <time name="orth">    0.01    0.01</time>
   <time name="total">    2.83    2.84</time>
   <energy>
    <i name="e_fr_energy">    -23.98780468 </i>
    <i name="e_wo_entrp">    -24.02581841 </i>
    <i name="e_0_energy">    -24.00047592 </i>
   </energy>
  </scstep>
  <scstep>
   <time name="diag">    0.26    0.26</time>
   <time name="diis">    1.11    1.11</time>
   <time name="orth">    0.01    0.01</time>
   <time name="total">    2.77    2.78</time>
   <energy>
    <i name="e_fr_energy">    -23.98785221 </i>
    <i name="e_wo_entrp">    -24.02587477 </i>
    <i name="e_0_energy">    -24.00052640 </i>
   </energy>
  </scstep>
  <scstep>
   <time name="diag">    0.27    0.27</time>
   <time name="diis">    0.97    0.98</time>
   <time name="orth">    0.01    0.01</time>
   <time name="total">    2.72    2.73</time>
   <energy>
    <i name="e_fr_energy">    -23.98788824 </i>
    <i name="e_wo_entrp">    -24.02590905 </i>
    <i name="e_0_energy">    -24.00056184 </i>
   </energy>
  </scstep>
  <scstep>
   <time name="diag">    0.27    0.28</time>
   <time name="diis">    0.79    0.79</time>
   <time name="orth">    0.01    0.01</time>
   <time name="total">    2.60    2.61</time>
   <energy>
    <i name="e_fr_energy">    -23.98788990 </i>
    <i name="e_wo_entrp">    -24.02591395 </i>
    <i name="e_0_energy">    -24.00056458 </i>
   </energy>
  </scstep>
  <scstep>
   <time name="diag">    0.37    0.37</time>
   <time name="diis">    0.80    0.80</time>
   <time name="orth">    0.01    0.01</time>
   <time name="total">    2.80    2.81</time>
   <energy>
    <i name="e_fr_energy">    -23.98789271 </i>
    <i name="e_wo_entrp">    -24.02591892 </i>
    <i name="e_0_energy">    -24.00056811 </i>
   </energy>
  </scstep>
  <scstep>
   <time name="diag">    0.29    0.29</time>
   <time name="diis">    0.68    0.68</time>
   <time name="orth">    0.01    0.01</time>
   <time name="total">    2.36    2.36</time>
   <energy>
    <i name="alphaZ">      0.25076080 </i>
    <i name="ewald">    129.80808831 </i>
    <i name="hartreedc">   -285.31402207 </i>
    <i name="XCdc">     24.86171205 </i>
    <i name="pawpsdc">    454.72819737 </i>
    <i name="pawaedc">   -455.52433107 </i>
    <i name="eentropy">      0.03802547 </i>
    <i name="bandstr">    -89.87807836 </i>
    <i name="atom">    197.04175453 </i>
    <i name="e_fr_energy">    -23.98789297 </i>
    <i name="e_wo_entrp">    -24.02591844 </i>
    <i name="e_0_energy">    -24.00056813 </i>
   </energy>
  </scstep>
  <structure>
   <crystal>
    <varray name="basis" >
     <v>       9.99058101       0.00000000       0.00000000 </v>
     <v>       0.06543512       9.81772121       0.00000000 </v>
     <v>       0.29273629      -0.12622035       9.84927174 </v>
    </varray>
    <i name="volume">    966.06324875 </i>
    <varray name="rec_basis" >
     <v>       0.10009428      -0.00066713      -0.00298351 </v>
     <v>      -0.00000000       0.10185663       0.00130531 </v>
     <v>       0.00000000       0.00000000       0.10153035 </v>
    </varray>
   </crystal>
   <varray name="positions" >
    <v>       0.53802973       0.40677535       0.36056561 </v>
    <v>       0.39488736       0.48041419       0.43844223 </v>
    <v>       0.55247955       0.56594009       0.44246352 </v>
    <v>       0.52910849       0.41608705       0.53909463 </v>
    <v>       0.50283040       0.46639491       0.44509056 </v>
   </varray>
  </structure>
  <varray name="forces" >
   <v>       0.01077311      -0.62870016      -0.56286872 </v>
   <v>      -0.57989778       0.22475128       0.12842620 </v>
   <v>       0.34997810       0.39900078       0.21902850 </v>
   <v>      -0.13602591       0.09768416       0.17728437 </v>
   <v>      -0.24440871       1.18332180       0.10353599 </v>
  </varray>
  <varray name="stress" >
   <v>      -0.07974498      -1.14875644       0.18997216 </v>
   <v>      -1.14875644      -0.36239132       1.57294073 </v>
   <v>       0.18997216       1.57294073       1.45923061 </v>
  </varray>
  <energy>
   <i name="e_fr_energy">    -23.98789297 </i>
   <i name="e_wo_entrp">    -24.00056813 </i>
   <i name="e_0_energy">      0.03802547 </i>
   <i name="kinetic">      0.03162747 </i>
   <i name="lattice kinetic">      0.00000000 </i>
   <i name="nosepot">      0.00000000 </i>
   <i name="nosekinetic">      0.00000398 </i>
   <i name="total">    -23.95626151 </i>
  </energy>
  <dos>
   <i name="efermi">     -9.13210582 </i>
   <total>
    <array>
     <dimension dim="1">gridpoints</dimension>
     <dimension dim="2">spin</dimension>
     <field>energy</field>
     <field>total</field>
     <field>integrated</field>
     <set>
      <set comment="spin 1">
       <r>   -18.9700     0.0000     0.0000 </r>
       <r>   -18.8976     0.0000     0.0000 </r>
       <r>   -18.8253     0.0000     0.0000 </r>
       <r>   -18.7530     0.0000     0.0000 </r>
       <r>   -18.6807     0.0000     0.0000 </r>
       <r>   -18.6083    -0.0000    -0.0000 </r>
       <r>   -18.5360    -0.0000    -0.0000 </r>
       <r>   -18.4637    -0.0000    -0.0000 </r>
       <r>   -18.3914    -0.0000    -0.0000 </r>
       <r>   -18.3190    -0.0000    -0.0000 </r>
       <r>   -18.2467    -0.0000    -0.0000 </r>
       <r>   -18.1744    -0.0000    -0.0000 </r>
       <r>   -18.1020    -0.0000    -0.0000 </r>
       <r>   -18.0297    -0.0000    -0.0000 </r>
       <r>   -17.9574    -0.0000    -0.0000 </r>
       <r>   -17.8851    -0.0000    -0.0000 </r>
       <r>   -17.8127    -0.0000    -0.0000 </r>
       <r>   -17.7404    -0.0000    -0.0000 </r>
       <r>   -17.6681    -0.0001    -0.0000 </r>
       <r>   -17.5958    -0.0011    -0.0001 </r>
       <r>   -17.5234    -0.0077    -0.0006 </r>
       <r>   -17.4511    -0.0393    -0.0035 </r>
       <r>   -17.3788    -0.1428    -0.0138 </r>
       <r>   -17.3065    -0.3429    -0.0386 </r>
       <r>   -17.2341    -0.4120    -0.0684 </r>
       <r>   -17.1618     0.3823    -0.0408 </r>
       <r>   -17.0895     2.8034     0.1620 </r>
       <r>   -17.0171     6.2281     0.6125 </r>
       <r>   -16.9448     8.2701     1.2106 </r>
       <r>   -16.8725     7.1249     1.7259 </r>
       <r>   -16.8002     3.8309     2.0030 </r>
       <r>   -16.7278     0.9382     2.0709 </r>
       <r>   -16.6555    -0.3060     2.0487 </r>
       <r>   -16.5832    -0.4013     2.0197 </r>
       <r>   -16.5109    -0.1962     2.0055 </r>
       <r>   -16.4385    -0.0606     2.0011 </r>
       <r>   -16.3662    -0.0131     2.0002 </r>
       <r>   -16.2939    -0.0021     2.0000 </r>
       <r>   -16.2216    -0.0002     2.0000 </r>
       <r>   -16.1492    -0.0000     2.0000 </r>
       <r>   -16.0769    -0.0000     2.0000 </r>
       <r>   -16.0046    -0.0000     2.0000 </r>
       <r>   -15.9322    -0.0000     2.0000 </r>
       <r>   -15.8599    -0.0000     2.0000 </r>
       <r>   -15.7876    -0.0000     2.0000 </r>
       <r>   -15.7153    -0.0000     2.0000 </r>
       <r>   -15.6429     0.0000     2.0000 </r>
       <r>   -15.5706     0.0000     2.0000 </r>
       <r>   -15.4983     0.0000     2.0000 </r>
       <r>   -15.4260     0.0000     2.0000 </r>
       <r>   -15.3536     0.0000     2.0000 </r>
       <r>   -15.2813     0.0000     2.0000 </r>
       <r>   -15.2090     0.0000     2.0000 </r>
       <r>   -15.1367     0.0000     2.0000 </r>
       <r>   -15.0643     0.0000     2.0000 </r>
       <r>   -14.9920     0.0000     2.0000 </r>
       <r>   -14.9197     0.0000     2.0000 </r>
       <r>   -14.8473     0.0000     2.0000 </r>
       <r>   -14.7750     0.0000     2.0000 </r>
       <r>   -14.7027     0.0000     2.0000 </r>
       <r>   -14.6304     0.0000     2.0000 </r>
       <r>   -14.5580     0.0000     2.0000 </r>
       <r>   -14.4857     0.0000     2.0000 </r>
       <r>   -14.4134     0.0000     2.0000 </r>
       <r>   -14.3411     0.0000     2.0000 </r>
       <r>   -14.2687     0.0000     2.0000 </r>
       <r>   -14.1964     0.0000     2.0000 </r>
       <r>   -14.1241     0.0000     2.0000 </r>
       <r>   -14.0518     0.0000     2.0000 </r>
       <r>   -13.9794     0.0000     2.0000 </r>
       <r>   -13.9071     0.0000     2.0000 </r>
       <r>   -13.8348     0.0000     2.0000 </r>
       <r>   -13.7625     0.0000     2.0000 </r>
       <r>   -13.6901     0.0000     2.0000 </r>
       <r>   -13.6178     0.0000     2.0000 </r>
       <r>   -13.5455     0.0000     2.0000 </r>
       <r>   -13.4731     0.0000     2.0000 </r>
       <r>   -13.4008     0.0000     2.0000 </r>
       <r>   -13.3285     0.0000     2.0000 </r>
       <r>   -13.2562     0.0000     2.0000 </r>
       <r>   -13.1838     0.0000     2.0000 </r>
       <r>   -13.1115     0.0000     2.0000 </r>
       <r>   -13.0392     0.0000     2.0000 </r>
       <r>   -12.9669     0.0000     2.0000 </r>
       <r>   -12.8945     0.0000     2.0000 </r>
       <r>   -12.8222     0.0000     2.0000 </r>
       <r>   -12.7499     0.0000     2.0000 </r>
       <r>   -12.6776     0.0000     2.0000 </r>
       <r>   -12.6052     0.0000     2.0000 </r>
       <r>   -12.5329     0.0000     2.0000 </r>
       <r>   -12.4606     0.0000     2.0000 </r>
       <r>   -12.3882     0.0000     2.0000 </r>
       <r>   -12.3159     0.0000     2.0000 </r>
       <r>   -12.2436     0.0000     2.0000 </r>
       <r>   -12.1713     0.0000     2.0000 </r>
       <r>   -12.0989     0.0000     2.0000 </r>
       <r>   -12.0266     0.0000     2.0000 </r>
       <r>   -11.9543     0.0000     2.0000 </r>
       <r>   -11.8820     0.0000     2.0000 </r>
       <r>   -11.8096     0.0000     2.0000 </r>
       <r>   -11.7373     0.0000     2.0000 </r>
       <r>   -11.6650     0.0000     2.0000 </r>
       <r>   -11.5927     0.0000     2.0000 </r>
       <r>   -11.5203     0.0000     2.0000 </r>
       <r>   -11.4480     0.0000     2.0000 </r>
       <r>   -11.3757     0.0000     2.0000 </r>
       <r>   -11.3033     0.0000     2.0000 </r>
       <r>   -11.2310     0.0000     2.0000 </r>
       <r>   -11.1587     0.0000     2.0000 </r>
       <r>   -11.0864     0.0000     2.0000 </r>
       <r>   -11.0140    -0.0000     2.0000 </r>
       <r>   -10.9417    -0.0000     2.0000 </r>
       <r>   -10.8694    -0.0000     2.0000 </r>
       <r>   -10.7971    -0.0000     2.0000 </r>
       <r>   -10.7247    -0.0000     2.0000 </r>
       <r>   -10.6524    -0.0000     2.0000 </r>
       <r>   -10.5801    -0.0000     2.0000 </r>
       <r>   -10.5078    -0.0000     2.0000 </r>
       <r>   -10.4354    -0.0000     2.0000 </r>
       <r>   -10.3631    -0.0000     2.0000 </r>
       <r>   -10.2908    -0.0000     2.0000 </r>
       <r>   -10.2185    -0.0000     2.0000 </r>
       <r>   -10.1461    -0.0000     2.0000 </r>
       <r>   -10.0738    -0.0002     2.0000 </r>
       <r>   -10.0015    -0.0016     1.9999 </r>
       <r>    -9.9291    -0.0114     1.9990 </r>
       <r>    -9.8568    -0.0597     1.9947 </r>
       <r>    -9.7845    -0.2283     1.9782 </r>
       <r>    -9.7122    -0.6096     1.9341 </r>
       <r>    -9.6398    -0.9838     1.8630 </r>
       <r>    -9.5675    -0.2244     1.8467 </r>
       <r>    -9.4952     3.6050     2.1075 </r>
       <r>    -9.4229    11.2032     2.9178 </r>
       <r>    -9.3505    19.4665     4.3257 </r>
       <r>    -9.2782    22.7275     5.9695 </r>
       <r>    -9.2059    18.3091     7.2938 </r>
       <r>    -9.1336     9.6570     7.9922 </r>
       <r>    -9.0612     2.4970     8.1728 </r>
       <r>    -8.9889    -0.6493     8.1258 </r>
       <r>    -8.9166    -0.9943     8.0539 </r>
       <r>    -8.8442    -0.5230     8.0161 </r>
       <r>    -8.7719    -0.1740     8.0035 </r>
       <r>    -8.6996    -0.0408     8.0006 </r>
       <r>    -8.6273    -0.0070     8.0001 </r>
       <r>    -8.5549    -0.0009     8.0000 </r>
       <r>    -8.4826    -0.0001     8.0000 </r>
       <r>    -8.4103    -0.0000     8.0000 </r>
       <r>    -8.3380    -0.0000     8.0000 </r>
       <r>    -8.2656    -0.0000     8.0000 </r>
       <r>    -8.1933    -0.0000     8.0000 </r>
       <r>    -8.1210    -0.0000     8.0000 </r>
       <r>    -8.0487    -0.0000     8.0000 </r>
       <r>    -7.9763    -0.0000     8.0000 </r>
       <r>    -7.9040     0.0000     8.0000 </r>
       <r>    -7.8317     0.0000     8.0000 </r>
       <r>    -7.7593     0.0000     8.0000 </r>
       <r>    -7.6870     0.0000     8.0000 </r>
       <r>    -7.6147     0.0000     8.0000 </r>
       <r>    -7.5424     0.0000     8.0000 </r>
       <r>    -7.4700     0.0000     8.0000 </r>
       <r>    -7.3977     0.0000     8.0000 </r>
       <r>    -7.3254     0.0000     8.0000 </r>
       <r>    -7.2531     0.0000     8.0000 </r>
       <r>    -7.1807     0.0000     8.0000 </r>
       <r>    -7.1084     0.0000     8.0000 </r>
       <r>    -7.0361     0.0000     8.0000 </r>
       <r>    -6.9638     0.0000     8.0000 </r>
       <r>    -6.8914     0.0000     8.0000 </r>
       <r>    -6.8191     0.0000     8.0000 </r>
       <r>    -6.7468     0.0000     8.0000 </r>
       <r>    -6.6744     0.0000     8.0000 </r>
       <r>    -6.6021     0.0000     8.0000 </r>
       <r>    -6.5298     0.0000     8.0000 </r>
       <r>    -6.4575     0.0000     8.0000 </r>
       <r>    -6.3851     0.0000     8.0000 </r>
       <r>    -6.3128     0.0000     8.0000 </r>
       <r>    -6.2405     0.0000     8.0000 </r>
       <r>    -6.1682     0.0000     8.0000 </r>
       <r>    -6.0958     0.0000     8.0000 </r>
       <r>    -6.0235     0.0000     8.0000 </r>
       <r>    -5.9512     0.0000     8.0000 </r>
       <r>    -5.8789     0.0000     8.0000 </r>
       <r>    -5.8065     0.0000     8.0000 </r>
       <r>    -5.7342     0.0000     8.0000 </r>
       <r>    -5.6619     0.0000     8.0000 </r>
       <r>    -5.5896     0.0000     8.0000 </r>
       <r>    -5.5172     0.0000     8.0000 </r>
       <r>    -5.4449     0.0000     8.0000 </r>
       <r>    -5.3726     0.0000     8.0000 </r>
       <r>    -5.3002     0.0000     8.0000 </r>
       <r>    -5.2279     0.0000     8.0000 </r>
       <r>    -5.1556     0.0000     8.0000 </r>
       <r>    -5.0833     0.0000     8.0000 </r>
       <r>    -5.0109     0.0000     8.0000 </r>
       <r>    -4.9386     0.0000     8.0000 </r>
       <r>    -4.8663     0.0000     8.0000 </r>
       <r>    -4.7940     0.0000     8.0000 </r>
       <r>    -4.7216     0.0000     8.0000 </r>
       <r>    -4.6493     0.0000     8.0000 </r>
       <r>    -4.5770     0.0000     8.0000 </r>
       <r>    -4.5047     0.0000     8.0000 </r>
       <r>    -4.4323     0.0000     8.0000 </r>
       <r>    -4.3600     0.0000     8.0000 </r>
       <r>    -4.2877     0.0000     8.0000 </r>
       <r>    -4.2153     0.0000     8.0000 </r>
       <r>    -4.1430     0.0000     8.0000 </r>
       <r>    -4.0707     0.0000     8.0000 </r>
       <r>    -3.9984     0.0000     8.0000 </r>
       <r>    -3.9260     0.0000     8.0000 </r>
       <r>    -3.8537     0.0000     8.0000 </r>
       <r>    -3.7814     0.0000     8.0000 </r>
       <r>    -3.7091     0.0000     8.0000 </r>
       <r>    -3.6367     0.0000     8.0000 </r>
       <r>    -3.5644     0.0000     8.0000 </r>
       <r>    -3.4921     0.0000     8.0000 </r>
       <r>    -3.4198     0.0000     8.0000 </r>
       <r>    -3.3474     0.0000     8.0000 </r>
       <r>    -3.2751     0.0000     8.0000 </r>
       <r>    -3.2028     0.0000     8.0000 </r>
       <r>    -3.1304     0.0000     8.0000 </r>
       <r>    -3.0581     0.0000     8.0000 </r>
       <r>    -2.9858     0.0000     8.0000 </r>
       <r>    -2.9135     0.0000     8.0000 </r>
       <r>    -2.8411     0.0000     8.0000 </r>
       <r>    -2.7688     0.0000     8.0000 </r>
       <r>    -2.6965     0.0000     8.0000 </r>
       <r>    -2.6242     0.0000     8.0000 </r>
       <r>    -2.5518     0.0000     8.0000 </r>
       <r>    -2.4795     0.0000     8.0000 </r>
       <r>    -2.4072     0.0000     8.0000 </r>
       <r>    -2.3349     0.0000     8.0000 </r>
       <r>    -2.2625     0.0000     8.0000 </r>
       <r>    -2.1902     0.0000     8.0000 </r>
       <r>    -2.1179     0.0000     8.0000 </r>
       <r>    -2.0455     0.0000     8.0000 </r>
       <r>    -1.9732    -0.0000     8.0000 </r>
       <r>    -1.9009    -0.0000     8.0000 </r>
       <r>    -1.8286    -0.0000     8.0000 </r>
       <r>    -1.7562    -0.0000     8.0000 </r>
       <r>    -1.6839    -0.0000     8.0000 </r>
       <r>    -1.6116    -0.0000     8.0000 </r>
       <r>    -1.5393    -0.0000     8.0000 </r>
       <r>    -1.4669    -0.0000     8.0000 </r>
       <r>    -1.3946    -0.0000     8.0000 </r>
       <r>    -1.3223    -0.0000     8.0000 </r>
       <r>    -1.2500    -0.0000     8.0000 </r>
       <r>    -1.1776    -0.0000     8.0000 </r>
       <r>    -1.1053    -0.0000     8.0000 </r>
       <r>    -1.0330    -0.0000     8.0000 </r>
       <r>    -0.9607    -0.0004     8.0000 </r>
       <r>    -0.8883    -0.0030     7.9998 </r>
       <r>    -0.8160    -0.0181     7.9984 </r>
       <r>    -0.7437    -0.0785     7.9928 </r>
       <r>    -0.6713    -0.2349     7.9758 </r>
       <r>    -0.5990    -0.4270     7.9449 </r>
       <r>    -0.5267    -0.1832     7.9316 </r>
       <r>    -0.4544     1.3792     8.0314 </r>
       <r>    -0.3820     4.5118     8.3577 </r>
       <r>    -0.3097     7.5843     8.9063 </r>
       <r>    -0.2374     8.0988     9.4920 </r>
       <r>    -0.1651     5.5852     9.8960 </r>
       <r>    -0.0927     2.2079    10.0557 </r>
       <r>    -0.0204     0.1151    10.0640 </r>
       <r>     0.0519    -0.4489    10.0315 </r>
       <r>     0.1242    -0.3662    10.0050 </r>
       <r>     0.1966    -0.3496     9.9798 </r>
       <r>     0.2689    -0.6160     9.9352 </r>
       <r>     0.3412    -0.8682     9.8724 </r>
       <r>     0.4136    -0.0137     9.8714 </r>
       <r>     0.4859     3.6143    10.1328 </r>
       <r>     0.5582    10.5737    10.8976 </r>
       <r>     0.6305    18.3099    12.2219 </r>
       <r>     0.7029    21.9412    13.8088 </r>
       <r>     0.7752    18.5833    15.1529 </r>
       <r>     0.8475    10.6148    15.9206 </r>
       <r>     0.9198     3.2951    16.1589 </r>
       <r>     0.9922    -0.3484    16.1337 </r>
       <r>     1.0645    -0.9960    16.0617 </r>
       <r>     1.1368    -0.5836    16.0195 </r>
       <r>     1.2091    -0.2077    16.0045 </r>
       <r>     1.2815    -0.0513    16.0008 </r>
       <r>     1.3538    -0.0092    16.0001 </r>
       <r>     1.4261    -0.0012    16.0000 </r>
       <r>     1.4985    -0.0001    16.0000 </r>
       <r>     1.5708    -0.0000    16.0000 </r>
       <r>     1.6431    -0.0000    16.0000 </r>
       <r>     1.7154    -0.0000    16.0000 </r>
       <r>     1.7878    -0.0000    16.0000 </r>
       <r>     1.8601    -0.0000    16.0000 </r>
       <r>     1.9324    -0.0000    16.0000 </r>
       <r>     2.0047    -0.0000    16.0000 </r>
       <r>     2.0771     0.0000    16.0000 </r>
       <r>     2.1494     0.0000    16.0000 </r>
       <r>     2.2217     0.0000    16.0000 </r>
       <r>     2.2940     0.0000    16.0000 </r>
       <r>     2.3664     0.0000    16.0000 </r>
       <r>     2.4387     0.0000    16.0000 </r>
       <r>     2.5110     0.0000    16.0000 </r>
       <r>     2.5833     0.0000    16.0000 </r>
       <r>     2.6557     0.0000    16.0000 </r>
       <r>     2.7280     0.0000    16.0000 </r>
      </set>
     </set>
    </array>
   </total>
  </dos>
  <time name="totalsc">   69.80   69.98</time>
 </calculation>
 <calculation>
  <scstep>
   <time name="dav">    1.51    1.52</time>
   <time name="total">    3.06    3.07</time>
   <energy>
    <i name="alphaZ">      0.25076080 </i>
    <i name="ewald">    124.91853476 </i>
    <i name="hartreedc">   -282.48327787 </i>
    <i name="XCdc">     24.71851391 </i>
    <i name="pawpsdc">    454.72676073 </i>
    <i name="pawaedc">   -455.52290653 </i>
    <i name="eentropy">      0.02684169 </i>
    <i name="bandstr">    -87.70477028 </i>
    <i name="atom">    197.04175453 </i>
    <i name="e_fr_energy">    -24.02778825 </i>
    <i name="e_wo_entrp">    -24.05462994 </i>
    <i name="e_0_energy">    -24.03673548 </i>
   </energy>
  </scstep>
  <scstep>
   <time name="diag">    0.27    0.27</time>
   <time name="diis">    1.00    1.00</time>
   <time name="orth">    0.01    0.01</time>
   <time name="total">    2.75    2.76</time>
   <energy>
    <i name="e_fr_energy">    -24.01563029 </i>
    <i name="e_wo_entrp">    -24.04166551 </i>
    <i name="e_0_energy">    -24.02430870 </i>
   </energy>
  </scstep>
  <scstep>
   <time name="diag">    0.27    0.27</time>
   <time name="diis">    1.00    1.00</time>
   <time name="orth">    0.01    0.01</time>
   <time name="total">    2.72    2.73</time>
   <energy>
    <i name="e_fr_energy">    -24.02105438 </i>
    <i name="e_wo_entrp">    -24.04733436 </i>
    <i name="e_0_energy">    -24.02981437 </i>
   </energy>
  </scstep>
  <scstep>
   <time name="diag">    0.26    0.26</time>
   <time name="diis">    1.00    1.00</time>
   <time name="orth">    0.01    0.01</time>
   <time name="total">    2.69    2.69</time>
   <energy>
    <i name="e_fr_energy">    -24.01706318 </i>
    <i name="e_wo_entrp">    -24.04363479 </i>
    <i name="e_0_energy">    -24.02592038 </i>
   </energy>
  </scstep>
  <scstep>
   <time name="diag">    0.28    0.28</time>
   <time name="diis">    1.00    1.01</time>
   <time name="orth">    0.01    0.01</time>
   <time name="total">    2.72    2.72</time>
   <energy>
    <i name="e_fr_energy">    -24.01694915 </i>
    <i name="e_wo_entrp">    -24.04356254 </i>
    <i name="e_0_energy">    -24.02582028 </i>
   </energy>
  </scstep>
  <scstep>
   <time name="diag">    0.27    0.28</time>
   <time name="diis">    1.01    1.01</time>
   <time name="orth">    0.01    0.01</time>
   <time name="total">    2.72    2.72</time>
   <energy>
    <i name="e_fr_energy">    -24.01659804 </i>
    <i name="e_wo_entrp">    -24.04325673 </i>
    <i name="e_0_energy">    -24.02548427 </i>
   </energy>
  </scstep>
  <scstep>
   <time name="diag">    0.29    0.29</time>
   <time name="diis">    1.04    1.04</time>
   <time name="orth">    0.01    0.01</time>
   <time name="total">    2.77    2.77</time>
   <energy>
    <i name="e_fr_energy">    -24.01667769 </i>
    <i name="e_wo_entrp">    -24.04333395 </i>
    <i name="e_0_energy">    -24.02556311 </i>
   </energy>
  </scstep>
  <scstep>
   <time name="diag">    0.29    0.29</time>
   <time name="diis">    1.04    1.04</time>
   <time name="orth">    0.01    0.01</time>
   <time name="total">    2.78    2.79</time>
   <energy>
    <i name="e_fr_energy">    -24.01675259 </i>
    <i name="e_wo_entrp">    -24.04339867 </i>
    <i name="e_0_energy">    -24.02563462 </i>
   </energy>
  </scstep>
  <scstep>
   <time name="diag">    0.29    0.29</time>
   <time name="diis">    1.01    1.01</time>
   <time name="orth">    0.01    0.01</time>
   <time name="total">    2.76    2.77</time>
   <energy>
    <i name="e_fr_energy">    -24.01677801 </i>
    <i name="e_wo_entrp">    -24.04342445 </i>
    <i name="e_0_energy">    -24.02566016 </i>
   </energy>
  </scstep>
  <scstep>
   <time name="diag">    0.29    0.29</time>
   <time name="diis">    1.02    1.03</time>
   <time name="orth">    0.01    0.01</time>
   <time name="total">    2.79    2.79</time>
   <energy>
    <i name="e_fr_energy">    -24.01679081 </i>
    <i name="e_wo_entrp">    -24.04344012 </i>
    <i name="e_0_energy">    -24.02567391 </i>
   </energy>
  </scstep>
  <scstep>
   <time name="diag">    0.29    0.29</time>
   <time name="diis">    1.05    1.05</time>
   <time name="orth">    0.01    0.01</time>
   <time name="total">    2.83    2.84</time>
   <energy>
    <i name="e_fr_energy">    -24.01681911 </i>
    <i name="e_wo_entrp">    -24.04347329 </i>
    <i name="e_0_energy">    -24.02570384 </i>
   </energy>
  </scstep>
  <scstep>
   <time name="diag">    0.28    0.28</time>
   <time name="diis">    0.82    0.82</time>
   <time name="orth">    0.01    0.01</time>
   <time name="total">    2.60    2.60</time>
   <energy>
    <i name="e_fr_energy">    -24.01682234 </i>
    <i name="e_wo_entrp">    -24.04347921 </i>
    <i name="e_0_energy">    -24.02570796 </i>
   </energy>
  </scstep>
  <scstep>
   <time name="diag">    0.29    0.29</time>
   <time name="diis">    0.80    0.80</time>
   <time name="orth">    0.01    0.01</time>
   <time name="total">    2.62    2.63</time>
   <energy>
    <i name="e_fr_energy">    -24.01683033 </i>
    <i name="e_wo_entrp">    -24.04349061 </i>
    <i name="e_0_energy">    -24.02571709 </i>
   </energy>
  </scstep>
  <scstep>
   <time name="diag">    0.30    0.30</time>
   <time name="diis">    0.82    0.82</time>
   <time name="orth">    0.01    0.01</time>
   <time name="total">    2.67    2.67</time>
   <energy>
    <i name="e_fr_energy">    -24.01683261 </i>
    <i name="e_wo_entrp">    -24.04349041 </i>
    <i name="e_0_energy">    -24.02571855 </i>
   </energy>
  </scstep>
  <scstep>
   <time name="diag">    0.28    0.29</time>
   <time name="diis">    0.82    0.82</time>
   <time name="orth">    0.01    0.01</time>
   <time name="total">    2.65    2.65</time>
   <energy>
    <i name="e_fr_energy">    -24.01683377 </i>
    <i name="e_wo_entrp">    -24.04348997 </i>
    <i name="e_0_energy">    -24.02571917 </i>
   </energy>
  </scstep>
  <scstep>
   <time name="diag">    0.28    0.28</time>
   <time name="diis">    0.78    0.78</time>
   <time name="orth">    0.01    0.01</time>
   <time name="total">    2.42    2.43</time>
   <energy>
    <i name="alphaZ">      0.25076080 </i>
    <i name="ewald">    124.91853476 </i>
    <i name="hartreedc">   -281.02866882 </i>
    <i name="XCdc">     24.63458737 </i>
    <i name="pawpsdc">    423.85862488 </i>
    <i name="pawaedc">   -424.63812816 </i>
    <i name="eentropy">      0.02665607 </i>
    <i name="bandstr">    -89.08095589 </i>
    <i name="atom">    197.04175453 </i>
    <i name="e_fr_energy">    -24.01683446 </i>
    <i name="e_wo_entrp">    -24.04349053 </i>
    <i name="e_0_energy">    -24.02571982 </i>
   </energy>
  </scstep>
  <structure>
   <crystal>
    <varray name="basis" >
     <v>       9.99058101       0.00000000       0.00000000 </v>
     <v>       0.06543512       9.81772121       0.00000000 </v>
     <v>       0.29273629      -0.12622035       9.84927174 </v>
    </varray>
    <i name="volume">    966.06324875 </i>
    <varray name="rec_basis" >
     <v>       0.10009428      -0.00066713      -0.00298351 </v>
     <v>      -0.00000000       0.10185663       0.00130531 </v>
     <v>       0.00000000       0.00000000       0.10153035 </v>
    </varray>
   </crystal>
   <varray name="positions" >
    <v>       0.53568001       0.40470252       0.35769171 </v>
    <v>       0.39339440       0.48187017       0.43828059 </v>
    <v>       0.55457835       0.56638580       0.44454986 </v>
    <v>       0.53067862       0.41487984       0.54121124 </v>
    <v>       0.50284487       0.46650966       0.44499336 </v>
   </varray>
  </structure>
  <varray name="forces" >
   <v>      -0.08811583      -0.59668647      -0.33042448 </v>
   <v>       0.23729260       0.40812576       0.46543664 </v>
   <v>      -0.03602900       0.74907320       0.09303448 </v>
   <v>      -0.44204610       0.15824455      -0.64179532 </v>
   <v>      -0.15305816       0.91681156       0.11730336 </v>
  </varray>
  <varray name="stress" >
   <v>      -2.23101989      -1.15987904      -0.55762065 </v>
   <v>      -1.15987904      -0.50614764       1.23531133 </v>
   <v>      -0.55762065       1.23531133      -0.54648305 </v>
  </varray>
  <energy>
   <i name="e_fr_energy">    -24.01683446 </i>
   <i name="e_wo_entrp">    -24.02571982 </i>
   <i name="e_0_energy">      0.02665607 </i>
   <i name="kinetic">      0.06459088 </i>
   <i name="lattice kinetic">      0.00000000 </i>
   <i name="nosepot">      0.00014240 </i>
   <i name="nosekinetic">      0.00030511 </i>
   <i name="total">    -23.95179607 </i>
  </energy>
  <dos>
   <i name="efermi">     -8.95052479 </i>
   <total>
    <array>
     <dimension dim="1">gridpoints</dimension>
     <dimension dim="2">spin</dimension>
     <field>energy</field>
     <field>total</field>
     <field>integrated</field>
     <set>
      <set comment="spin 1">
       <r>   -18.8138     0.0000     0.0000 </r>
       <r>   -18.7420     0.0000     0.0000 </r>
       <r>   -18.6703     0.0000     0.0000 </r>
       <r>   -18.5985     0.0000     0.0000 </r>
       <r>   -18.5267     0.0000     0.0000 </r>
       <r>   -18.4549    -0.0000    -0.0000 </r>
       <r>   -18.3831    -0.0000    -0.0000 </r>
       <r>   -18.3113    -0.0000    -0.0000 </r>
       <r>   -18.2396    -0.0000    -0.0000 </r>
       <r>   -18.1678    -0.0000    -0.0000 </r>
       <r>   -18.0960    -0.0000    -0.0000 </r>
       <r>   -18.0242    -0.0000    -0.0000 </r>
       <r>   -17.9524    -0.0000    -0.0000 </r>
       <r>   -17.8807    -0.0000    -0.0000 </r>
       <r>   -17.8089    -0.0000    -0.0000 </r>
       <r>   -17.7371    -0.0000    -0.0000 </r>
       <r>   -17.6653    -0.0000    -0.0000 </r>
       <r>   -17.5935    -0.0000    -0.0000 </r>
       <r>   -17.5218    -0.0001    -0.0000 </r>
       <r>   -17.4500    -0.0008    -0.0001 </r>
       <r>   -17.3782    -0.0059    -0.0005 </r>
       <r>   -17.3064    -0.0312    -0.0027 </r>
       <r>   -17.2346    -0.1188    -0.0113 </r>
       <r>   -17.1628    -0.3062    -0.0332 </r>
       <r>   -17.0911    -0.4357    -0.0645 </r>
       <r>   -17.0193     0.1254    -0.0555 </r>
       <r>   -16.9475     2.2096     0.1031 </r>
       <r>   -16.8757     5.5652     0.5026 </r>
       <r>   -16.8039     8.0872     1.0831 </r>
       <r>   -16.7322     7.6335     1.6310 </r>
       <r>   -16.6604     4.6138     1.9622 </r>
       <r>   -16.5886     1.4665     2.0675 </r>
       <r>   -16.5168    -0.1509     2.0566 </r>
       <r>   -16.4450    -0.4323     2.0256 </r>
       <r>   -16.3733    -0.2472     2.0079 </r>
       <r>   -16.3015    -0.0853     2.0018 </r>
       <r>   -16.2297    -0.0204     2.0003 </r>
       <r>   -16.1579    -0.0035     2.0000 </r>
       <r>   -16.0861    -0.0005     2.0000 </r>
       <r>   -16.0144    -0.0000     2.0000 </r>
       <r>   -15.9426    -0.0000     2.0000 </r>
       <r>   -15.8708    -0.0000     2.0000 </r>
       <r>   -15.7990    -0.0000     2.0000 </r>
       <r>   -15.7272    -0.0000     2.0000 </r>
       <r>   -15.6554    -0.0000     2.0000 </r>
       <r>   -15.5837    -0.0000     2.0000 </r>
       <r>   -15.5119     0.0000     2.0000 </r>
       <r>   -15.4401     0.0000     2.0000 </r>
       <r>   -15.3683     0.0000     2.0000 </r>
       <r>   -15.2965     0.0000     2.0000 </r>
       <r>   -15.2248     0.0000     2.0000 </r>
       <r>   -15.1530     0.0000     2.0000 </r>
       <r>   -15.0812     0.0000     2.0000 </r>
       <r>   -15.0094     0.0000     2.0000 </r>
       <r>   -14.9376     0.0000     2.0000 </r>
       <r>   -14.8659     0.0000     2.0000 </r>
       <r>   -14.7941     0.0000     2.0000 </r>
       <r>   -14.7223     0.0000     2.0000 </r>
       <r>   -14.6505     0.0000     2.0000 </r>
       <r>   -14.5787     0.0000     2.0000 </r>
       <r>   -14.5069     0.0000     2.0000 </r>
       <r>   -14.4352     0.0000     2.0000 </r>
       <r>   -14.3634     0.0000     2.0000 </r>
       <r>   -14.2916     0.0000     2.0000 </r>
       <r>   -14.2198     0.0000     2.0000 </r>
       <r>   -14.1480     0.0000     2.0000 </r>
       <r>   -14.0763     0.0000     2.0000 </r>
       <r>   -14.0045     0.0000     2.0000 </r>
       <r>   -13.9327     0.0000     2.0000 </r>
       <r>   -13.8609     0.0000     2.0000 </r>
       <r>   -13.7891     0.0000     2.0000 </r>
       <r>   -13.7174     0.0000     2.0000 </r>
       <r>   -13.6456     0.0000     2.0000 </r>
       <r>   -13.5738     0.0000     2.0000 </r>
       <r>   -13.5020     0.0000     2.0000 </r>
       <r>   -13.4302     0.0000     2.0000 </r>
       <r>   -13.3584     0.0000     2.0000 </r>
       <r>   -13.2867     0.0000     2.0000 </r>
       <r>   -13.2149     0.0000     2.0000 </r>
       <r>   -13.1431     0.0000     2.0000 </r>
       <r>   -13.0713     0.0000     2.0000 </r>
       <r>   -12.9995     0.0000     2.0000 </r>
       <r>   -12.9278     0.0000     2.0000 </r>
       <r>   -12.8560     0.0000     2.0000 </r>
       <r>   -12.7842     0.0000     2.0000 </r>
       <r>   -12.7124     0.0000     2.0000 </r>
       <r>   -12.6406     0.0000     2.0000 </r>
       <r>   -12.5689     0.0000     2.0000 </r>
       <r>   -12.4971     0.0000     2.0000 </r>
       <r>   -12.4253     0.0000     2.0000 </r>
       <r>   -12.3535     0.0000     2.0000 </r>
       <r>   -12.2817     0.0000     2.0000 </r>
       <r>   -12.2099     0.0000     2.0000 </r>
       <r>   -12.1382     0.0000     2.0000 </r>
       <r>   -12.0664     0.0000     2.0000 </r>
       <r>   -11.9946     0.0000     2.0000 </r>
       <r>   -11.9228     0.0000     2.0000 </r>
       <r>   -11.8510     0.0000     2.0000 </r>
       <r>   -11.7793     0.0000     2.0000 </r>
       <r>   -11.7075     0.0000     2.0000 </r>
       <r>   -11.6357     0.0000     2.0000 </r>
       <r>   -11.5639     0.0000     2.0000 </r>
       <r>   -11.4921     0.0000     2.0000 </r>
       <r>   -11.4204     0.0000     2.0000 </r>
       <r>   -11.3486     0.0000     2.0000 </r>
       <r>   -11.2768     0.0000     2.0000 </r>
       <r>   -11.2050     0.0000     2.0000 </r>
       <r>   -11.1332     0.0000     2.0000 </r>
       <r>   -11.0614    -0.0000     2.0000 </r>
       <r>   -10.9897    -0.0000     2.0000 </r>
       <r>   -10.9179    -0.0000     2.0000 </r>
       <r>   -10.8461    -0.0000     2.0000 </r>
       <r>   -10.7743    -0.0000     2.0000 </r>
       <r>   -10.7025    -0.0000     2.0000 </r>
       <r>   -10.6308    -0.0000     2.0000 </r>
       <r>   -10.5590    -0.0000     2.0000 </r>
       <r>   -10.4872    -0.0000     2.0000 </r>
       <r>   -10.4154    -0.0000     2.0000 </r>
       <r>   -10.3436    -0.0000     2.0000 </r>
       <r>   -10.2719    -0.0000     2.0000 </r>
       <r>   -10.2001    -0.0000     2.0000 </r>
       <r>   -10.1283    -0.0002     2.0000 </r>
       <r>   -10.0565    -0.0018     1.9999 </r>
       <r>    -9.9847    -0.0115     1.9990 </r>
       <r>    -9.9130    -0.0540     1.9952 </r>
       <r>    -9.8412    -0.1796     1.9823 </r>
       <r>    -9.7694    -0.3878     1.9544 </r>
       <r>    -9.6976    -0.3757     1.9275 </r>
       <r>    -9.6258     0.6158     1.9717 </r>
       <r>    -9.5540     3.1138     2.1952 </r>
       <r>    -9.4823     6.1498     2.6366 </r>
       <r>    -9.4105     7.7386     3.1921 </r>
       <r>    -9.3387     7.7211     3.7463 </r>
       <r>    -9.2669     8.6125     4.3645 </r>
       <r>    -9.1951    11.8206     5.2130 </r>
       <r>    -9.1234    14.7010     6.2683 </r>
       <r>    -9.0516    13.6145     7.2456 </r>
       <r>    -8.9798     8.6399     7.8657 </r>
       <r>    -8.9080     3.2240     8.0972 </r>
       <r>    -8.8362     0.1009     8.1044 </r>
       <r>    -8.7645    -0.7017     8.0540 </r>
       <r>    -8.6927    -0.4907     8.0188 </r>
       <r>    -8.6209    -0.1959     8.0047 </r>
       <r>    -8.5491    -0.0537     8.0009 </r>
       <r>    -8.4773    -0.0107     8.0001 </r>
       <r>    -8.4055    -0.0016     8.0000 </r>
       <r>    -8.3338    -0.0002     8.0000 </r>
       <r>    -8.2620    -0.0000     8.0000 </r>
       <r>    -8.1902    -0.0000     8.0000 </r>
       <r>    -8.1184    -0.0000     8.0000 </r>
       <r>    -8.0466    -0.0000     8.0000 </r>
       <r>    -7.9749    -0.0000     8.0000 </r>
       <r>    -7.9031    -0.0000     8.0000 </r>
       <r>    -7.8313    -0.0000     8.0000 </r>
       <r>    -7.7595     0.0000     8.0000 </r>
       <r>    -7.6877     0.0000     8.0000 </r>
       <r>    -7.6160     0.0000     8.0000 </r>
       <r>    -7.5442     0.0000     8.0000 </r>
       <r>    -7.4724     0.0000     8.0000 </r>
       <r>    -7.4006     0.0000     8.0000 </r>
       <r>    -7.3288     0.0000     8.0000 </r>
       <r>    -7.2570     0.0000     8.0000 </r>
       <r>    -7.1853     0.0000     8.0000 </r>
       <r>    -7.1135     0.0000     8.0000 </r>
       <r>    -7.0417     0.0000     8.0000 </r>
       <r>    -6.9699     0.0000     8.0000 </r>
       <r>    -6.8981     0.0000     8.0000 </r>
       <r>    -6.8264     0.0000     8.0000 </r>
       <r>    -6.7546     0.0000     8.0000 </r>
       <r>    -6.6828     0.0000     8.0000 </r>
       <r>    -6.6110     0.0000     8.0000 </r>
       <r>    -6.5392     0.0000     8.0000 </r>
       <r>    -6.4675     0.0000     8.0000 </r>
       <r>    -6.3957     0.0000     8.0000 </r>
       <r>    -6.3239     0.0000     8.0000 </r>
       <r>    -6.2521     0.0000     8.0000 </r>
       <r>    -6.1803     0.0000     8.0000 </r>
       <r>    -6.1085     0.0000     8.0000 </r>
       <r>    -6.0368     0.0000     8.0000 </r>
       <r>    -5.9650     0.0000     8.0000 </r>
       <r>    -5.8932     0.0000     8.0000 </r>
       <r>    -5.8214     0.0000     8.0000 </r>
       <r>    -5.7496     0.0000     8.0000 </r>
       <r>    -5.6779     0.0000     8.0000 </r>
       <r>    -5.6061     0.0000     8.0000 </r>
       <r>    -5.5343     0.0000     8.0000 </r>
       <r>    -5.4625     0.0000     8.0000 </r>
       <r>    -5.3907     0.0000     8.0000 </r>
       <r>    -5.3190     0.0000     8.0000 </r>
       <r>    -5.2472     0.0000     8.0000 </r>
       <r>    -5.1754     0.0000     8.0000 </r>
       <r>    -5.1036     0.0000     8.0000 </r>
       <r>    -5.0318     0.0000     8.0000 </r>
       <r>    -4.9600     0.0000     8.0000 </r>
       <r>    -4.8883     0.0000     8.0000 </r>
       <r>    -4.8165     0.0000     8.0000 </r>
       <r>    -4.7447     0.0000     8.0000 </r>
       <r>    -4.6729     0.0000     8.0000 </r>
       <r>    -4.6011     0.0000     8.0000 </r>
       <r>    -4.5294     0.0000     8.0000 </r>
       <r>    -4.4576     0.0000     8.0000 </r>
       <r>    -4.3858     0.0000     8.0000 </r>
       <r>    -4.3140     0.0000     8.0000 </r>
       <r>    -4.2422     0.0000     8.0000 </r>
       <r>    -4.1705     0.0000     8.0000 </r>
       <r>    -4.0987     0.0000     8.0000 </r>
       <r>    -4.0269     0.0000     8.0000 </r>
       <r>    -3.9551     0.0000     8.0000 </r>
       <r>    -3.8833     0.0000     8.0000 </r>
       <r>    -3.8115     0.0000     8.0000 </r>
       <r>    -3.7398     0.0000     8.0000 </r>
       <r>    -3.6680     0.0000     8.0000 </r>
       <r>    -3.5962     0.0000     8.0000 </r>
       <r>    -3.5244     0.0000     8.0000 </r>
       <r>    -3.4526     0.0000     8.0000 </r>
       <r>    -3.3809     0.0000     8.0000 </r>
       <r>    -3.3091     0.0000     8.0000 </r>
       <r>    -3.2373     0.0000     8.0000 </r>
       <r>    -3.1655     0.0000     8.0000 </r>
       <r>    -3.0937     0.0000     8.0000 </r>
       <r>    -3.0220     0.0000     8.0000 </r>
       <r>    -2.9502     0.0000     8.0000 </r>
       <r>    -2.8784     0.0000     8.0000 </r>
       <r>    -2.8066     0.0000     8.0000 </r>
       <r>    -2.7348     0.0000     8.0000 </r>
       <r>    -2.6631     0.0000     8.0000 </r>
       <r>    -2.5913     0.0000     8.0000 </r>
       <r>    -2.5195     0.0000     8.0000 </r>
       <r>    -2.4477     0.0000     8.0000 </r>
       <r>    -2.3759     0.0000     8.0000 </r>
       <r>    -2.3041     0.0000     8.0000 </r>
       <r>    -2.2324     0.0000     8.0000 </r>
       <r>    -2.1606     0.0000     8.0000 </r>
       <r>    -2.0888     0.0000     8.0000 </r>
       <r>    -2.0170     0.0000     8.0000 </r>
       <r>    -1.9452    -0.0000     8.0000 </r>
       <r>    -1.8735    -0.0000     8.0000 </r>
       <r>    -1.8017    -0.0000     8.0000 </r>
       <r>    -1.7299    -0.0000     8.0000 </r>
       <r>    -1.6581    -0.0000     8.0000 </r>
       <r>    -1.5863    -0.0000     8.0000 </r>
       <r>    -1.5146    -0.0000     8.0000 </r>
       <r>    -1.4428    -0.0000     8.0000 </r>
       <r>    -1.3710    -0.0000     8.0000 </r>
       <r>    -1.2992    -0.0000     8.0000 </r>
       <r>    -1.2274    -0.0000     8.0000 </r>
       <r>    -1.1556    -0.0000     8.0000 </r>
       <r>    -1.0839    -0.0000     8.0000 </r>
       <r>    -1.0121    -0.0002     8.0000 </r>
       <r>    -0.9403    -0.0016     7.9999 </r>
       <r>    -0.8685    -0.0103     7.9991 </r>
       <r>    -0.7967    -0.0494     7.9956 </r>
       <r>    -0.7250    -0.1678     7.9835 </r>
       <r>    -0.6532    -0.3720     7.9568 </r>
       <r>    -0.5814    -0.3764     7.9298 </r>
       <r>    -0.5096     0.5946     7.9725 </r>
       <r>    -0.4378     3.1977     8.2020 </r>
       <r>    -0.3661     6.5785     8.6742 </r>
       <r>    -0.2943     8.3066     9.2705 </r>
       <r>    -0.2225     6.8575     9.7627 </r>
       <r>    -0.1507     3.5198    10.0154 </r>
       <r>    -0.0789     0.7712    10.0708 </r>
       <r>    -0.0071    -0.3447    10.0460 </r>
       <r>     0.0646    -0.4131    10.0164 </r>
       <r>     0.1364    -0.2880     9.9957 </r>
       <r>     0.2082    -0.3843     9.9681 </r>
       <r>     0.2800    -0.7166     9.9167 </r>
       <r>     0.3518    -0.7792     9.8607 </r>
       <r>     0.4235     0.7271     9.9129 </r>
       <r>     0.4953     5.2928    10.2929 </r>
       <r>     0.5671    12.7000    11.2045 </r>
       <r>     0.6389    19.6526    12.6152 </r>
       <r>     0.7107    21.5679    14.1633 </r>
       <r>     0.7824    16.8422    15.3723 </r>
       <r>     0.8542     8.7663    16.0015 </r>
       <r>     0.9260     2.2446    16.1627 </r>
       <r>     0.9978    -0.6189    16.1182 </r>
       <r>     1.0696    -0.9350    16.0511 </r>
       <r>     1.1414    -0.4967    16.0155 </r>
       <r>     1.2131    -0.1676    16.0034 </r>
       <r>     1.2849    -0.0399    16.0006 </r>
       <r>     1.3567    -0.0070    16.0001 </r>
       <r>     1.4285    -0.0009    16.0000 </r>
       <r>     1.5003    -0.0001    16.0000 </r>
       <r>     1.5720    -0.0000    16.0000 </r>
       <r>     1.6438    -0.0000    16.0000 </r>
       <r>     1.7156    -0.0000    16.0000 </r>
       <r>     1.7874    -0.0000    16.0000 </r>
       <r>     1.8592    -0.0000    16.0000 </r>
       <r>     1.9309    -0.0000    16.0000 </r>
       <r>     2.0027    -0.0000    16.0000 </r>
       <r>     2.0745     0.0000    16.0000 </r>
       <r>     2.1463     0.0000    16.0000 </r>
       <r>     2.2181     0.0000    16.0000 </r>
       <r>     2.2899     0.0000    16.0000 </r>
       <r>     2.3616     0.0000    16.0000 </r>
       <r>     2.4334     0.0000    16.0000 </r>
       <r>     2.5052     0.0000    16.0000 </r>
       <r>     2.5770     0.0000    16.0000 </r>
       <r>     2.6488     0.0000    16.0000 </r>
       <r>     2.7205     0.0000    16.0000 </r>
      </set>
     </set>
    </array>
   </total>
  </dos>
  <time name="totalsc">   49.43   49.56</time>
 </calculation>
 <calculation>
  <scstep>
   <time name="dav">    1.51    1.51</time>
   <time name="total">    3.02    3.03</time>
   <energy>
    <i name="alphaZ">      0.25076080 </i>
    <i name="ewald">    119.57772131 </i>
    <i name="hartreedc">   -276.32181718 </i>
    <i name="XCdc">     24.38828469 </i>
    <i name="pawpsdc">    391.73577009 </i>
    <i name="pawaedc">   -392.49758702 </i>
    <i name="eentropy">      0.01830573 </i>
    <i name="bandstr">    -88.18020217 </i>
    <i name="atom">    197.04175453 </i>
    <i name="e_fr_energy">    -23.98700923 </i>
    <i name="e_wo_entrp">    -24.00531495 </i>
    <i name="e_0_energy">    -23.99311114 </i>
   </energy>
  </scstep>
  <scstep>
   <time name="diag">    0.28    0.28</time>
   <time name="diis">    1.00    1.00</time>
   <time name="orth">    0.01    0.01</time>
   <time name="total">    2.73    2.74</time>
   <energy>
    <i name="e_fr_energy">    -23.99188764 </i>
    <i name="e_wo_entrp">    -24.00617179 </i>
    <i name="e_0_energy">    -23.99664902 </i>
   </energy>
  </scstep>
  <scstep>
   <time name="diag">    0.29    0.29</time>
   <time name="diis">    1.00    1.01</time>
   <time name="orth">    0.01    0.01</time>
   <time name="total">    2.84    2.85</time>
   <energy>
    <i name="e_fr_energy">    -23.98950414 </i>
    <i name="e_wo_entrp">    -24.00207894 </i>
    <i name="e_0_energy">    -23.99369574 </i>
   </energy>
  </scstep>
  <scstep>
   <time name="diag">    0.31    0.31</time>
   <time name="diis">    1.11    1.12</time>
   <time name="orth">    0.01    0.01</time>
   <time name="total">    2.87    2.87</time>
   <energy>
    <i name="e_fr_energy">    -23.98563676 </i>
    <i name="e_wo_entrp">    -23.99854610 </i>
    <i name="e_0_energy">    -23.98993987 </i>
   </energy>
  </scstep>
  <scstep>
   <time name="diag">    0.29    0.29</time>
   <time name="diis">    1.02    1.02</time>
   <time name="orth">    0.01    0.01</time>
   <time name="total">    2.87    2.87</time>
   <energy>
    <i name="e_fr_energy">    -23.98492615 </i>
    <i name="e_wo_entrp">    -23.99792466 </i>
    <i name="e_0_energy">    -23.98925899 </i>
   </energy>
  </scstep>
  <scstep>
   <time name="diag">    0.29    0.29</time>
   <time name="diis">    0.99    0.99</time>
   <time name="orth">    0.01    0.01</time>
   <time name="total">    2.76    2.77</time>
   <energy>
    <i name="e_fr_energy">    -23.98431364 </i>
    <i name="e_wo_entrp">    -23.99747568 </i>
    <i name="e_0_energy">    -23.98870099 </i>
   </energy>
  </scstep>
  <scstep>
   <time name="diag">    0.26    0.26</time>
   <time name="diis">    1.01    1.01</time>
   <time name="orth">    0.01    0.01</time>
   <time name="total">    2.84    2.84</time>
   <energy>
    <i name="e_fr_energy">    -23.98401970 </i>
    <i name="e_wo_entrp">    -23.99748517 </i>
    <i name="e_0_energy">    -23.98850819 </i>
   </energy>
  </scstep>
  <scstep>
   <time name="diag">    0.26    0.26</time>
   <time name="diis">    1.10    1.10</time>
   <time name="orth">    0.01    0.01</time>
   <time name="total">    2.87    2.87</time>
   <energy>
    <i name="e_fr_energy">    -23.98388874 </i>
    <i name="e_wo_entrp">    -23.99750939 </i>
    <i name="e_0_energy">    -23.98842896 </i>
   </energy>
  </scstep>
  <scstep>
   <time name="diag">    0.28    0.28</time>
   <time name="diis">    1.02    1.02</time>
   <time name="orth">    0.01    0.01</time>
   <time name="total">    2.90    2.91</time>
   <energy>
    <i name="e_fr_energy">    -23.98382240 </i>
    <i name="e_wo_entrp">    -23.99764966 </i>
    <i name="e_0_energy">    -23.98843149 </i>
   </energy>
  </scstep>
  <scstep>
   <time name="diag">    0.25    0.26</time>
   <time name="diis">    1.01    1.01</time>
   <time name="orth">    0.01    0.01</time>
   <time name="total">    2.76    2.77</time>
   <energy>
    <i name="e_fr_energy">    -23.98380380 </i>
    <i name="e_wo_entrp">    -23.99774927 </i>
    <i name="e_0_energy">    -23.98845229 </i>
   </energy>
  </scstep>
  <scstep>
   <time name="diag">    0.26    0.26</time>
   <time name="diis">    1.01    1.02</time>
   <time name="orth">    0.01    0.01</time>
   <time name="total">    2.89    2.90</time>
   <energy>
    <i name="e_fr_energy">    -23.98380572 </i>
    <i name="e_wo_entrp">    -23.99784113 </i>
    <i name="e_0_energy">    -23.98848419 </i>
   </energy>
  </scstep>
  <scstep>
   <time name="diag">    0.29    0.29</time>
   <time name="diis">    1.11    1.11</time>
   <time name="orth">    0.01    0.01</time>
   <time name="total">    2.97    2.97</time>
   <energy>
    <i name="e_fr_energy">    -23.98381404 </i>
    <i name="e_wo_entrp">    -23.99789137 </i>
    <i name="e_0_energy">    -23.98850648 </i>
   </energy>
  </scstep>
  <scstep>
   <time name="diag">    0.28    0.29</time>
   <time name="diis">    1.01    1.01</time>
   <time name="orth">    0.01    0.01</time>
   <time name="total">    2.91    2.91</time>
   <energy>
    <i name="e_fr_energy">    -23.98382188 </i>
    <i name="e_wo_entrp">    -23.99789482 </i>
    <i name="e_0_energy">    -23.98851286 </i>
   </energy>
  </scstep>
  <scstep>
   <time name="diag">    0.28    0.28</time>
   <time name="diis">    0.79    0.79</time>
   <time name="orth">    0.01    0.01</time>
   <time name="total">    2.66    2.67</time>
   <energy>
    <i name="e_fr_energy">    -23.98382474 </i>
    <i name="e_wo_entrp">    -23.99789882 </i>
    <i name="e_0_energy">    -23.98851610 </i>
   </energy>
  </scstep>
  <scstep>
   <time name="diag">    0.31    0.31</time>
   <time name="diis">    0.80    0.80</time>
   <time name="orth">    0.01    0.01</time>
   <time name="total">    2.73    2.74</time>
   <energy>
    <i name="e_fr_energy">    -23.98382616 </i>
    <i name="e_wo_entrp">    -23.99789765 </i>
    <i name="e_0_energy">    -23.98851666 </i>
   </energy>
  </scstep>
  <scstep>
   <time name="diag">    0.30    0.30</time>
   <time name="diis">    0.82    0.82</time>
   <time name="orth">    0.01    0.01</time>
   <time name="total">    2.49    2.49</time>
   <energy>
    <i name="alphaZ">      0.25076080 </i>
    <i name="ewald">    119.57772131 </i>
    <i name="hartreedc">   -276.26704633 </i>
    <i name="XCdc">     24.38277780 </i>
    <i name="pawpsdc">    391.93900507 </i>
    <i name="pawaedc">   -392.70112851 </i>
    <i name="eentropy">      0.01406923 </i>
    <i name="bandstr">    -88.22174081 </i>
    <i name="atom">    197.04175453 </i>
    <i name="e_fr_energy">    -23.98382691 </i>
    <i name="e_wo_entrp">    -23.99789614 </i>
    <i name="e_0_energy">    -23.98851665 </i>
   </energy>
  </scstep>
  <structure>
   <crystal>
    <varray name="basis" >
     <v>       9.99058101       0.00000000       0.00000000 </v>
     <v>       0.06543512       9.81772121       0.00000000 </v>
     <v>       0.29273629      -0.12622035       9.84927174 </v>
    </varray>
    <i name="volume">    966.06324875 </i>
    <varray name="rec_basis" >
     <v>       0.10009428      -0.00066713      -0.00298351 </v>
     <v>      -0.00000000       0.10185663       0.00130531 </v>
     <v>       0.00000000       0.00000000       0.10153035 </v>
    </varray>
   </crystal>
   <varray name="positions" >
    <v>       0.53318928       0.39990823       0.35363740 </v>
    <v>       0.39288289       0.48452851       0.44000587 </v>
    <v>       0.55659990       0.56935957       0.44704566 </v>
    <v>       0.53071799       0.41387508       0.54087480 </v>
    <v>       0.50292324       0.46652356       0.44500749 </v>
   </varray>
  </structure>
  <varray name="forces" >
   <v>      -0.84723826       0.47462679       0.42864167 </v>
   <v>       0.94999935      -0.17365038       0.46568519 </v>
   <v>      -0.56265956      -0.95548881      -0.19882735 </v>
   <v>      -0.67923725       0.22955983      -0.76069643 </v>
   <v>       0.45617812       0.96691317      -0.55767148 </v>
  </varray>
  <varray name="stress" >
   <v>      -2.79234967      -0.81944638      -0.04167664 </v>
   <v>      -0.81944638      -3.80250307      -0.34831125 </v>
   <v>      -0.04167664      -0.34831125      -2.10737201 </v>
  </varray>
  <energy>
   <i name="e_fr_energy">    -23.98382691 </i>
   <i name="e_wo_entrp">    -23.98851665 </i>
   <i name="e_0_energy">      0.01406923 </i>
   <i name="kinetic">      0.08513879 </i>
   <i name="lattice kinetic">      0.00000000 </i>
   <i name="nosepot">      0.00123632 </i>
   <i name="nosekinetic">      0.00267355 </i>
   <i name="total">    -23.89477825 </i>
  </energy>
  <dos>
   <i name="efermi">     -8.72337082 </i>
   <total>
    <array>
     <dimension dim="1">gridpoints</dimension>
     <dimension dim="2">spin</dimension>
     <field>energy</field>
     <field>total</field>
     <field>integrated</field>
     <set>
      <set comment="spin 1">
       <r>   -18.6455     0.0000     0.0000 </r>
       <r>   -18.5743     0.0000     0.0000 </r>
       <r>   -18.5031     0.0000     0.0000 </r>
       <r>   -18.4319     0.0000     0.0000 </r>
       <r>   -18.3607     0.0000     0.0000 </r>
       <r>   -18.2895    -0.0000    -0.0000 </r>
       <r>   -18.2183    -0.0000    -0.0000 </r>
       <r>   -18.1471    -0.0000    -0.0000 </r>
       <r>   -18.0759    -0.0000    -0.0000 </r>
       <r>   -18.0047    -0.0000    -0.0000 </r>
       <r>   -17.9335    -0.0000    -0.0000 </r>
       <r>   -17.8623    -0.0000    -0.0000 </r>
       <r>   -17.7911    -0.0000    -0.0000 </r>
       <r>   -17.7199    -0.0000    -0.0000 </r>
       <r>   -17.6487    -0.0000    -0.0000 </r>
       <r>   -17.5775    -0.0000    -0.0000 </r>
       <r>   -17.5063    -0.0000    -0.0000 </r>
       <r>   -17.4351    -0.0000    -0.0000 </r>
       <r>   -17.3639    -0.0001    -0.0000 </r>
       <r>   -17.2927    -0.0006    -0.0000 </r>
       <r>   -17.2215    -0.0044    -0.0004 </r>
       <r>   -17.1503    -0.0241    -0.0021 </r>
       <r>   -17.0791    -0.0965    -0.0089 </r>
       <r>   -17.0079    -0.2667    -0.0279 </r>
       <r>   -16.9367    -0.4378    -0.0591 </r>
       <r>   -16.8655    -0.0867    -0.0653 </r>
       <r>   -16.7943     1.6374     0.0513 </r>
       <r>   -16.7231     4.8228     0.3947 </r>
       <r>   -16.6519     7.7376     0.9456 </r>
       <r>   -16.5807     8.0330     1.5176 </r>
       <r>   -16.5095     5.4456     1.9053 </r>
       <r>   -16.4383     2.1297     2.0569 </r>
       <r>   -16.3671     0.1013     2.0641 </r>
       <r>   -16.2959    -0.4369     2.0330 </r>
       <r>   -16.2247    -0.3056     2.0113 </r>
       <r>   -16.1535    -0.1194     2.0028 </r>
       <r>   -16.0823    -0.0318     2.0005 </r>
       <r>   -16.0111    -0.0061     2.0001 </r>
       <r>   -15.9399    -0.0009     2.0000 </r>
       <r>   -15.8687    -0.0001     2.0000 </r>
       <r>   -15.7975    -0.0000     2.0000 </r>
       <r>   -15.7263    -0.0000     2.0000 </r>
       <r>   -15.6551    -0.0000     2.0000 </r>
       <r>   -15.5839    -0.0000     2.0000 </r>
       <r>   -15.5127    -0.0000     2.0000 </r>
       <r>   -15.4415    -0.0000     2.0000 </r>
       <r>   -15.3703    -0.0000     2.0000 </r>
       <r>   -15.2991     0.0000     2.0000 </r>
       <r>   -15.2279     0.0000     2.0000 </r>
       <r>   -15.1567     0.0000     2.0000 </r>
       <r>   -15.0855     0.0000     2.0000 </r>
       <r>   -15.0143     0.0000     2.0000 </r>
       <r>   -14.9431     0.0000     2.0000 </r>
[...]
       <r>     0.2771    -0.6618     9.9262 </r>
       <r>     0.3493    -0.8370     9.8658 </r>
       <r>     0.4215     0.3307     9.8897 </r>
       <r>     0.4937     4.4426    10.2104 </r>
       <r>     0.5658    11.6579    11.0520 </r>
       <r>     0.6380    18.9979    12.4236 </r>
       <r>     0.7102    21.7169    13.9914 </r>
       <r>     0.7824    17.6347    15.2645 </r>
       <r>     0.8546     9.6316    15.9599 </r>
       <r>     0.9268     2.7565    16.1589 </r>
       <r>     0.9990    -0.4718    16.1248 </r>
       <r>     1.0712    -0.9533    16.0560 </r>
       <r>     1.1434    -0.5347    16.0174 </r>
       <r>     1.2156    -0.1862    16.0039 </r>
       <r>     1.2878    -0.0454    16.0007 </r>
       <r>     1.3600    -0.0081    16.0001 </r>
       <r>     1.4322    -0.0011    16.0000 </r>
       <r>     1.5044    -0.0001    16.0000 </r>
       <r>     1.5766    -0.0000    16.0000 </r>
       <r>     1.6488    -0.0000    16.0000 </r>
       <r>     1.7210    -0.0000    16.0000 </r>
       <r>     1.7931    -0.0000    16.0000 </r>
       <r>     1.8653    -0.0000    16.0000 </r>
       <r>     1.9375    -0.0000    16.0000 </r>
       <r>     2.0097    -0.0000    16.0000 </r>
       <r>     2.0819     0.0000    16.0000 </r>
       <r>     2.1541     0.0000    16.0000 </r>
       <r>     2.2263     0.0000    16.0000 </r>
       <r>     2.2985     0.0000    16.0000 </r>
       <r>     2.3707     0.0000    16.0000 </r>
       <r>     2.4429     0.0000    16.0000 </r>
       <r>     2.5151     0.0000    16.0000 </r>
       <r>     2.5873     0.0000    16.0000 </r>
       <r>     2.6595     0.0000    16.0000 </r>
       <r>     2.7317     0.0000    16.0000 </r>
      </set>
     </set>
    </array>
   </total>
  </dos>
  <time name="totalsc">   46.72   46.84</time>
  <eigenvalues>
   <array>
    <dimension dim="1">band</dimension>
    <dimension dim="2">kpoint</dimension>
    <dimension dim="3">spin</dimension>
    <field>eigene</field>
    <field>occ</field>
    <set>
     <set comment="spin 1">
      <set comment="kpoint 1">
       <r>  -17.0654    1.0000 </r>
       <r>   -9.6700    1.0000 </r>
       <r>   -9.4332    1.0000 </r>
       <r>   -8.9772    1.0001 </r>
       <r>   -0.2924    0.0000 </r>
       <r>    0.6124    0.0000 </r>
       <r>    0.6996    0.0000 </r>
       <r>    0.7287    0.0000 </r>
      </set>
      <set comment="kpoint 2">
       <r>  -17.0654    1.0000 </r>
       <r>   -9.6697    1.0000 </r>
       <r>   -9.4331    1.0000 </r>
       <r>   -8.9770    0.9998 </r>
       <r>   -0.2848    0.0000 </r>
       <r>    0.5923    0.0000 </r>
       <r>    0.6786    0.0000 </r>
       <r>    0.7131    0.0000 </r>
      </set>
      <set comment="kpoint 3">
       <r>  -17.0655    1.0000 </r>
       <r>   -9.6699    1.0000 </r>
       <r>   -9.4332    1.0000 </r>
       <r>   -8.9772    1.0000 </r>
       <r>   -0.2926    0.0000 </r>
       <r>    0.5888    0.0000 </r>
       <r>    0.7051    0.0000 </r>
       <r>    0.7483    0.0000 </r>
      </set>
      <set comment="kpoint 4">
       <r>  -17.0655    1.0000 </r>
       <r>   -9.6699    1.0000 </r>
       <r>   -9.4331    1.0000 </r>
       <r>   -8.9771    0.9999 </r>
       <r>   -0.2891    0.0000 </r>
       <r>    0.5967    0.0000 </r>
       <r>    0.6784    0.0000 </r>
       <r>    0.7422    0.0000 </r>
      </set>
     </set>
    </set>
   </array>
  </eigenvalues>
  <separator name="orbital magnetization" >
   <v name="MAGDIPOLOUT">      0.00000000      0.00000000      0.00000000</v>
  </separator>
  <dos>
   <i name="efermi">     -8.80881696 </i>
   <total>
    <array>
     <dimension dim="1">gridpoints</dimension>
     <dimension dim="2">spin</dimension>
     <field>energy</field>
     <field>total</field>
     <field>integrated</field>
     <set>
      <set comment="spin 1">
       <r>   -19.0655     0.0000     0.0000 </r>
       <r>   -18.9927     0.0000     0.0000 </r>
       <r>   -18.9200     0.0000     0.0000 </r>
       <r>   -18.8473     0.0000     0.0000 </r>
       <r>   -18.7746     0.0000     0.0000 </r>
       <r>   -18.7019    -0.0000    -0.0000 </r>
       <r>   -18.6292    -0.0000    -0.0000 </r>
       <r>   -18.5565    -0.0000    -0.0000 </r>
       <r>   -18.4838    -0.0000    -0.0000 </r>
       <r>   -18.4111    -0.0000    -0.0000 </r>
       <r>   -18.3383    -0.0000    -0.0000 </r>
       <r>   -18.2656    -0.0000    -0.0000 </r>
       <r>   -18.1929    -0.0000    -0.0000 </r>
       <r>   -18.1202    -0.0000    -0.0000 </r>
       <r>   -18.0475    -0.0000    -0.0000 </r>
       <r>   -17.9748    -0.0000    -0.0000 </r>
       <r>   -17.9021    -0.0000    -0.0000 </r>
       <r>   -17.8294    -0.0000    -0.0000 </r>
       <r>   -17.7566    -0.0001    -0.0000 </r>
       <r>   -17.6839    -0.0014    -0.0001 </r>
       <r>   -17.6112    -0.0093    -0.0008 </r>
       <r>   -17.5385    -0.0461    -0.0041 </r>
       <r>   -17.4658    -0.1617    -0.0159 </r>
       <r>   -17.3931    -0.3674    -0.0426 </r>
       <r>   -17.3204    -0.3794    -0.0702 </r>
       <r>   -17.2477     0.6000    -0.0266 </r>
       <r>   -17.1749     3.2502     0.2098 </r>
       <r>   -17.1022     6.6632     0.6943 </r>
       <r>   -17.0295     8.3095     1.2985 </r>
       <r>   -16.9568     6.7003     1.7857 </r>
       <r>   -16.8841     3.2924     2.0251 </r>
       <r>   -16.8114     0.6225     2.0703 </r>
       <r>   -16.7387    -0.3753     2.0430 </r>
       <r>   -16.6660    -0.3699     2.0161 </r>
       <r>   -16.5932    -0.1638     2.0042 </r>
       <r>   -16.5205    -0.0469     2.0008 </r>
       <r>   -16.4478    -0.0095     2.0001 </r>
       <r>   -16.3751    -0.0014     2.0000 </r>
       <r>   -16.3024    -0.0002     2.0000 </r>
       <r>   -16.2297    -0.0000     2.0000 </r>
       <r>   -16.1570    -0.0000     2.0000 </r>
       <r>   -16.0843    -0.0000     2.0000 </r>
       <r>   -16.0115    -0.0000     2.0000 </r>
       <r>   -15.9388    -0.0000     2.0000 </r>
       <r>   -15.8661    -0.0000     2.0000 </r>
       <r>   -15.7934    -0.0000     2.0000 </r>
       <r>   -15.7207     0.0000     2.0000 </r>
       <r>   -15.6480     0.0000     2.0000 </r>
       <r>   -15.5753     0.0000     2.0000 </r>
       <r>   -15.5026     0.0000     2.0000 </r>
       <r>   -15.4298     0.0000     2.0000 </r>
       <r>   -15.3571     0.0000     2.0000 </r>
       <r>   -15.2844     0.0000     2.0000 </r>
       <r>   -15.2117     0.0000     2.0000 </r>
       <r>   -15.1390     0.0000     2.0000 </r>
       <r>   -15.0663     0.0000     2.0000 </r>
       <r>   -14.9936     0.0000     2.0000 </r>
       <r>   -14.9209     0.0000     2.0000 </r>
       <r>   -14.8481     0.0000     2.0000 </r>
       <r>   -14.7754     0.0000     2.0000 </r>
       <r>   -14.7027     0.0000     2.0000 </r>
       <r>   -14.6300     0.0000     2.0000 </r>
       <r>   -14.5573     0.0000     2.0000 </r>
       <r>   -14.4846     0.0000     2.0000 </r>
       <r>   -14.4119     0.0000     2.0000 </r>
       <r>   -14.3392     0.0000     2.0000 </r>
       <r>   -14.2664     0.0000     2.0000 </r>
       <r>   -14.1937     0.0000     2.0000 </r>
       <r>   -14.1210     0.0000     2.0000 </r>
       <r>   -14.0483     0.0000     2.0000 </r>
       <r>   -13.9756     0.0000     2.0000 </r>
       <r>   -13.9029     0.0000     2.0000 </r>
       <r>   -13.8302     0.0000     2.0000 </r>
       <r>   -13.7575     0.0000     2.0000 </r>
       <r>   -13.6847     0.0000     2.0000 </r>
       <r>   -13.6120     0.0000     2.0000 </r>
       <r>   -13.5393     0.0000     2.0000 </r>
       <r>   -13.4666     0.0000     2.0000 </r>
       <r>   -13.3939     0.0000     2.0000 </r>
       <r>   -13.3212     0.0000     2.0000 </r>
       <r>   -13.2485     0.0000     2.0000 </r>
       <r>   -13.1758     0.0000     2.0000 </r>
       <r>   -13.1030     0.0000     2.0000 </r>
       <r>   -13.0303     0.0000     2.0000 </r>
       <r>   -12.9576     0.0000     2.0000 </r>
       <r>   -12.8849     0.0000     2.0000 </r>
       <r>   -12.8122     0.0000     2.0000 </r>
       <r>   -12.7395     0.0000     2.0000 </r>
       <r>   -12.6668     0.0000     2.0000 </r>
       <r>   -12.5941     0.0000     2.0000 </r>
       <r>   -12.5213     0.0000     2.0000 </r>
       <r>   -12.4486     0.0000     2.0000 </r>
       <r>   -12.3759     0.0000     2.0000 </r>
       <r>   -12.3032     0.0000     2.0000 </r>
       <r>   -12.2305     0.0000     2.0000 </r>
       <r>   -12.1578     0.0000     2.0000 </r>
       <r>   -12.0851     0.0000     2.0000 </r>
       <r>   -12.0124     0.0000     2.0000 </r>
       <r>   -11.9396     0.0000     2.0000 </r>
       <r>   -11.8669     0.0000     2.0000 </r>
       <r>   -11.7942     0.0000     2.0000 </r>
       <r>   -11.7215     0.0000     2.0000 </r>
       <r>   -11.6488     0.0000     2.0000 </r>
       <r>   -11.5761     0.0000     2.0000 </r>
       <r>   -11.5034     0.0000     2.0000 </r>
       <r>   -11.4307     0.0000     2.0000 </r>
       <r>   -11.3579     0.0000     2.0000 </r>
       <r>   -11.2852    -0.0000     2.0000 </r>
       <r>   -11.2125    -0.0000     2.0000 </r>
       <r>   -11.1398    -0.0000     2.0000 </r>
       <r>   -11.0671    -0.0000     2.0000 </r>
       <r>   -10.9944    -0.0000     2.0000 </r>
       <r>   -10.9217    -0.0000     2.0000 </r>
       <r>   -10.8490    -0.0000     2.0000 </r>
       <r>   -10.7762    -0.0000     2.0000 </r>
       <r>   -10.7035    -0.0000     2.0000 </r>
       <r>   -10.6308    -0.0000     2.0000 </r>
       <r>   -10.5581    -0.0000     2.0000 </r>
       <r>   -10.4854    -0.0000     2.0000 </r>
       <r>   -10.4127    -0.0000     2.0000 </r>
       <r>   -10.3400    -0.0003     2.0000 </r>
       <r>   -10.2673    -0.0024     1.9998 </r>
       <r>   -10.1945    -0.0153     1.9987 </r>
       <r>   -10.1218    -0.0691     1.9937 </r>
       <r>   -10.0491    -0.2175     1.9778 </r>
       <r>    -9.9764    -0.4268     1.9468 </r>
       <r>    -9.9037    -0.2896     1.9258 </r>
       <r>    -9.8310     1.0287     2.0006 </r>
       <r>    -9.7583     3.8856     2.2831 </r>
       <r>    -9.6856     7.0712     2.7973 </r>
       <r>    -9.6128     8.8290     3.4392 </r>
       <r>    -9.5401     9.1348     4.1034 </r>
       <r>    -9.4674     9.0894     4.7644 </r>
       <r>    -9.3947     8.3560     5.3719 </r>
       <r>    -9.3220     5.8457     5.7970 </r>
       <r>    -9.2493     2.4380     5.9743 </r>
       <r>    -9.1766     0.6702     6.0230 </r>
       <r>    -9.1039     2.0679     6.1734 </r>
       <r>    -9.0311     5.5451     6.5766 </r>
       <r>    -8.9584     8.0468     7.1617 </r>
       <r>    -8.8857     7.2949     7.6921 </r>
       <r>    -8.8130     4.1029     7.9904 </r>
       <r>    -8.7403     1.0998     8.0704 </r>
       <r>    -8.6676    -0.2673     8.0510 </r>
       <r>    -8.5949    -0.4111     8.0211 </r>
       <r>    -8.5222    -0.2077     8.0060 </r>
       <r>    -8.4494    -0.0652     8.0012 </r>
       <r>    -8.3767    -0.0142     8.0002 </r>
       <r>    -8.3040    -0.0023     8.0000 </r>
       <r>    -8.2313    -0.0003     8.0000 </r>
       <r>    -8.1586    -0.0000     8.0000 </r>
       <r>    -8.0859    -0.0000     8.0000 </r>
       <r>    -8.0132    -0.0000     8.0000 </r>
       <r>    -7.9405    -0.0000     8.0000 </r>
       <r>    -7.8677    -0.0000     8.0000 </r>
       <r>    -7.7950    -0.0000     8.0000 </r>
       <r>    -7.7223    -0.0000     8.0000 </r>
       <r>    -7.6496     0.0000     8.0000 </r>
       <r>    -7.5769     0.0000     8.0000 </r>
       <r>    -7.5042     0.0000     8.0000 </r>
       <r>    -7.4315     0.0000     8.0000 </r>
       <r>    -7.3588     0.0000     8.0000 </r>
       <r>    -7.2860     0.0000     8.0000 </r>
       <r>    -7.2133     0.0000     8.0000 </r>
       <r>    -7.1406     0.0000     8.0000 </r>
       <r>    -7.0679     0.0000     8.0000 </r>
       <r>    -6.9952     0.0000     8.0000 </r>
       <r>    -6.9225     0.0000     8.0000 </r>
       <r>    -6.8498     0.0000     8.0000 </r>
       <r>    -6.7771     0.0000     8.0000 </r>
       <r>    -6.7043     0.0000     8.0000 </r>
       <r>    -6.6316     0.0000     8.0000 </r>
       <r>    -6.5589     0.0000     8.0000 </r>
       <r>    -6.4862     0.0000     8.0000 </r>
       <r>    -6.4135     0.0000     8.0000 </r>
       <r>    -6.3408     0.0000     8.0000 </r>
       <r>    -6.2681     0.0000     8.0000 </r>
       <r>    -6.1954     0.0000     8.0000 </r>
       <r>    -6.1226     0.0000     8.0000 </r>
       <r>    -6.0499     0.0000     8.0000 </r>
       <r>    -5.9772     0.0000     8.0000 </r>
       <r>    -5.9045     0.0000     8.0000 </r>
       <r>    -5.8318     0.0000     8.0000 </r>
       <r>    -5.7591     0.0000     8.0000 </r>
       <r>    -5.6864     0.0000     8.0000 </r>
       <r>    -5.6137     0.0000     8.0000 </r>
       <r>    -5.5409     0.0000     8.0000 </r>
       <r>    -5.4682     0.0000     8.0000 </r>
       <r>    -5.3955     0.0000     8.0000 </r>
       <r>    -5.3228     0.0000     8.0000 </r>
       <r>    -5.2501     0.0000     8.0000 </r>
       <r>    -5.1774     0.0000     8.0000 </r>
       <r>    -5.1047     0.0000     8.0000 </r>
       <r>    -5.0320     0.0000     8.0000 </r>
       <r>    -4.9592     0.0000     8.0000 </r>
       <r>    -4.8865     0.0000     8.0000 </r>
       <r>    -4.8138     0.0000     8.0000 </r>
       <r>    -4.7411     0.0000     8.0000 </r>
       <r>    -4.6684     0.0000     8.0000 </r>
       <r>    -4.5957     0.0000     8.0000 </r>
       <r>    -4.5230     0.0000     8.0000 </r>
       <r>    -4.4503     0.0000     8.0000 </r>
       <r>    -4.3775     0.0000     8.0000 </r>
       <r>    -4.3048     0.0000     8.0000 </r>
       <r>    -4.2321     0.0000     8.0000 </r>
       <r>    -4.1594     0.0000     8.0000 </r>
       <r>    -4.0867     0.0000     8.0000 </r>
       <r>    -4.0140     0.0000     8.0000 </r>
       <r>    -3.9413     0.0000     8.0000 </r>
       <r>    -3.8686     0.0000     8.0000 </r>
       <r>    -3.7958     0.0000     8.0000 </r>
       <r>    -3.7231     0.0000     8.0000 </r>
       <r>    -3.6504     0.0000     8.0000 </r>
       <r>    -3.5777     0.0000     8.0000 </r>
       <r>    -3.5050     0.0000     8.0000 </r>
       <r>    -3.4323     0.0000     8.0000 </r>
       <r>    -3.3596     0.0000     8.0000 </r>
       <r>    -3.2869     0.0000     8.0000 </r>
       <r>    -3.2141     0.0000     8.0000 </r>
       <r>    -3.1414     0.0000     8.0000 </r>
       <r>    -3.0687     0.0000     8.0000 </r>
       <r>    -2.9960     0.0000     8.0000 </r>
       <r>    -2.9233     0.0000     8.0000 </r>
       <r>    -2.8506     0.0000     8.0000 </r>
       <r>    -2.7779     0.0000     8.0000 </r>
       <r>    -2.7052     0.0000     8.0000 </r>
       <r>    -2.6324     0.0000     8.0000 </r>
       <r>    -2.5597     0.0000     8.0000 </r>
       <r>    -2.4870     0.0000     8.0000 </r>
       <r>    -2.4143     0.0000     8.0000 </r>
       <r>    -2.3416     0.0000     8.0000 </r>
       <r>    -2.2689     0.0000     8.0000 </r>
       <r>    -2.1962     0.0000     8.0000 </r>
       <r>    -2.1235     0.0000     8.0000 </r>
       <r>    -2.0507     0.0000     8.0000 </r>
       <r>    -1.9780     0.0000     8.0000 </r>
       <r>    -1.9053    -0.0000     8.0000 </r>
       <r>    -1.8326    -0.0000     8.0000 </r>
       <r>    -1.7599    -0.0000     8.0000 </r>
       <r>    -1.6872    -0.0000     8.0000 </r>
       <r>    -1.6145    -0.0000     8.0000 </r>
       <r>    -1.5418    -0.0000     8.0000 </r>
       <r>    -1.4690    -0.0000     8.0000 </r>
       <r>    -1.3963    -0.0000     8.0000 </r>
       <r>    -1.3236    -0.0000     8.0000 </r>
       <r>    -1.2509    -0.0000     8.0000 </r>
       <r>    -1.1782    -0.0000     8.0000 </r>
       <r>    -1.1055    -0.0000     8.0000 </r>
       <r>    -1.0328    -0.0000     8.0000 </r>
       <r>    -0.9601    -0.0003     8.0000 </r>
       <r>    -0.8873    -0.0024     7.9998 </r>
       <r>    -0.8146    -0.0152     7.9987 </r>
       <r>    -0.7419    -0.0688     7.9937 </r>
       <r>    -0.6692    -0.2154     7.9780 </r>
       <r>    -0.5965    -0.4162     7.9478 </r>
       <r>    -0.5238    -0.2422     7.9302 </r>
       <r>    -0.4511     1.1901     8.0167 </r>
       <r>    -0.3784     4.2478     8.3256 </r>
       <r>    -0.3056     7.4285     8.8657 </r>
       <r>    -0.2329     8.1669     9.4595 </r>
       <r>    -0.1602     5.7839     9.8801 </r>
       <r>    -0.0875     2.3682    10.0523 </r>
       <r>    -0.0148     0.1766    10.0651 </r>
       <r>     0.0579    -0.4445    10.0328 </r>
       <r>     0.1306    -0.3709    10.0058 </r>
       <r>     0.2033    -0.3464     9.9807 </r>
       <r>     0.2761    -0.6101     9.9363 </r>
       <r>     0.3488    -0.8768     9.8725 </r>
       <r>     0.4215    -0.0434     9.8694 </r>
       <r>     0.4942     3.5967    10.1309 </r>
       <r>     0.5669    10.6032    10.9019 </r>
       <r>     0.6396    18.3318    12.2349 </r>
       <r>     0.7123    21.8485    13.8235 </r>
       <r>     0.7850    18.3828    15.1602 </r>
       <r>     0.8577    10.4396    15.9193 </r>
       <r>     0.9305     3.2325    16.1543 </r>
       <r>     1.0032    -0.3307    16.1303 </r>
       <r>     1.0759    -0.9640    16.0602 </r>
       <r>     1.1486    -0.5656    16.0190 </r>
       <r>     1.2213    -0.2016    16.0044 </r>
       <r>     1.2940    -0.0499    16.0008 </r>
       <r>     1.3667    -0.0090    16.0001 </r>
       <r>     1.4394    -0.0012    16.0000 </r>
       <r>     1.5122    -0.0001    16.0000 </r>
       <r>     1.5849    -0.0000    16.0000 </r>
       <r>     1.6576    -0.0000    16.0000 </r>
       <r>     1.7303    -0.0000    16.0000 </r>
       <r>     1.8030    -0.0000    16.0000 </r>
       <r>     1.8757    -0.0000    16.0000 </r>
       <r>     1.9484    -0.0000    16.0000 </r>
       <r>     2.0211    -0.0000    16.0000 </r>
       <r>     2.0939     0.0000    16.0000 </r>
       <r>     2.1666     0.0000    16.0000 </r>
       <r>     2.2393     0.0000    16.0000 </r>
       <r>     2.3120     0.0000    16.0000 </r>
       <r>     2.3847     0.0000    16.0000 </r>
       <r>     2.4574     0.0000    16.0000 </r>
       <r>     2.5301     0.0000    16.0000 </r>
       <r>     2.6028     0.0000    16.0000 </r>
       <r>     2.6756     0.0000    16.0000 </r>
       <r>     2.7483     0.0000    16.0000 </r>
      </set>
     </set>
    </array>
   </total>
  </dos>
 </calculation>
 <structure name="finalpos" >
  <crystal>
   <varray name="basis" >
    <v>       9.99058101       0.00000000       0.00000000 </v>
    <v>       0.06543512       9.81772121       0.00000000 </v>
    <v>       0.29273629      -0.12622035       9.84927174 </v>
   </varray>
   <i name="volume">    966.06324875 </i>
   <varray name="rec_basis" >
    <v>       0.10009428      -0.00066713      -0.00298351 </v>
    <v>      -0.00000000       0.10185663       0.00130531 </v>
    <v>       0.00000000       0.00000000       0.10153035 </v>
   </varray>
  </crystal>
  <varray name="positions" >
   <v>       0.51583632       0.39949275       0.35616729 </v>
   <v>       0.39978967       0.49171169       0.44641813 </v>
   <v>       0.56026497       0.55456103       0.43101364 </v>
   <v>       0.53213226       0.41321304       0.53959344 </v>
   <v>       0.50337007       0.46724731       0.44570445 </v>
  </varray>
  <varray name="velocities" >
   <v>       0.00165816       0.00178599       0.00484294 </v>
   <v>       0.00055062       0.00156441      -0.00166954 </v>
   <v>       0.00008302      -0.00156233      -0.00210381 </v>
   <v>       0.00018607       0.00021698      -0.00126285 </v>
   <v>      -0.00020630      -0.00016693       0.00001609 </v>
  </varray>
 </structure>
</modeling>
