unknown system                          
           1
     9.990581    0.000000    0.000000
     0.065435    9.817721    0.000000
     0.292736   -0.126220    9.849272
   H    C 
   4   1
Direct configuration=     1
   0.53802973  0.40677535  0.36056561
   0.39488736  0.48041419  0.43844223
   0.55247955  0.56594009  0.44246352
   0.52910849  0.41608705  0.53909463
   0.50283040  0.46639491  0.44509056
Direct configuration=     2
   0.53568001  0.40470252  0.35769171
   0.39339440  0.48187017  0.43828059
   0.55457835  0.56638580  0.44454986
   0.53067862  0.41487984  0.54121124
   0.50284487  0.46650966  0.44499336
Direct configuration=     3
   0.53318928  0.39990823  0.35363740
   0.39288289  0.48452851  0.44000587
   0.55659990  0.56935957  0.44704566
   0.53071799  0.41387508  0.54087480
   0.50292324  0.46652356  0.44500749
Direct configuration=     4
   0.52766831  0.39700764  0.35152528
   0.39610489  0.48631715  0.44361314
   0.55662008  0.56840017  0.44883821
   0.52841669  0.41362571  0.53777147
   0.50330456  0.46671678  0.44499214
Direct configuration=     5
   0.52326157  0.39761962  0.35479952
   0.39834284  0.49084122  0.44796674
   0.55532920  0.56555295  0.44715631
   0.52851016  0.41179877  0.53637402
   0.50358482  0.46667832  0.44461345
Direct configuration=     6
   0.52057421  0.39945597  0.35727443
   0.40070777  0.49584083  0.45123774
   0.55501310  0.56392047  0.44257499
   0.52859427  0.40992907  0.53772496
   0.50363098  0.46640076  0.44440401
Direct configuration=     7
   0.51751720  0.40169777  0.35814741
   0.39788029  0.49685782  0.45179547
   0.55860723  0.56404078  0.43875879
   0.52901444  0.41233662  0.53787732
   0.50378669  0.46591898  0.44458993
Direct configuration=     8
   0.51561101  0.40133237  0.35454215
   0.39641914  0.49365053  0.45085979
   0.56259474  0.56622648  0.43584907
   0.52838351  0.41405665  0.53794010
   0.50378758  0.46589126  0.44520503
Direct configuration=     9
   0.51485520  0.39877368  0.35123068
   0.39704924  0.49157451  0.44916384
   0.56285126  0.56413242  0.43411662
   0.53076156  0.41373918  0.53974546
   0.50357871  0.46647790  0.44561586
Direct configuration=    10
   0.51417816  0.39770676  0.35132435
   0.39923905  0.49014728  0.44808767
   0.56018195  0.55612336  0.43311746
   0.53194619  0.41299606  0.54085629
   0.50357637  0.46741424  0.44568836
