   5   5   0   0
  0.1957052E+03  0.9909769E-09  0.1002389E-08  0.9857313E-09  0.2000000E-14
   50.000000000000000     
  CAR 
 unknown system                          
      2.72259595    -18.91500907  301     -8.99428334      1.00000000
    -18.915  0.0000E+00  0.0000E+00
    -18.843  0.0000E+00  0.0000E+00
    -18.771  0.0000E+00  0.0000E+00
    -18.699  0.0000E+00  0.0000E+00
    -18.627  0.0000E+00  0.0000E+00
    -18.554 -0.4235E-27 -0.3054E-28
    -18.482 -0.1309E-24 -0.9473E-26
    -18.410 -0.3121E-22 -0.2260E-23
    -18.338 -0.5720E-20 -0.4148E-21
    -18.266 -0.8060E-18 -0.5854E-19
    -18.194 -0.8726E-16 -0.6352E-17
    -18.122 -0.7255E-14 -0.5297E-15
    -18.050 -0.4492E-12 -0.3293E-13
    -17.977 -0.2187E-10 -0.1611E-11
    -17.905 -0.8161E-09 -0.6047E-10
    -17.833 -0.2327E-07 -0.1739E-08
    -17.761 -0.5061E-06 -0.3824E-07
    -17.689 -0.8372E-05 -0.6421E-06
    -17.617 -0.1049E-03 -0.8210E-05
    -17.545 -0.9905E-03 -0.7965E-04
    -17.473 -0.6979E-02 -0.5830E-03
    -17.400 -0.3615E-01 -0.3190E-02
    -17.328 -0.1337E+00 -0.1283E-01
    -17.256 -0.3296E+00 -0.3660E-01
    -17.184 -0.4235E+00 -0.6715E-01
    -17.112  0.2813E+00 -0.4686E-01
    -17.040  0.2580E+01  0.1392E+00
    -16.968  0.5990E+01  0.5712E+00
    -16.895  0.8220E+01  0.1164E+01
    -16.823  0.7325E+01  0.1692E+01
    -16.751  0.4117E+01  0.1989E+01
    -16.679  0.1121E+01  0.2070E+01
    -16.607 -0.2574E+00  0.2052E+01
    -16.535 -0.4150E+00  0.2022E+01
    -16.463 -0.2143E+00  0.2006E+01
    -16.391 -0.6892E-01  0.2001E+01
    -16.318 -0.1546E-01  0.2000E+01
    -16.246 -0.2521E-02  0.2000E+01
    -16.174 -0.3050E-03  0.2000E+01
    -16.102 -0.2769E-04  0.2000E+01
    -16.030 -0.1901E-05  0.2000E+01
    -15.958 -0.9905E-07  0.2000E+01
    -15.886 -0.3933E-08  0.2000E+01
    -15.814 -0.1192E-09  0.2000E+01
    -15.741 -0.2769E-11  0.2000E+01
    -15.669 -0.4926E-13  0.2000E+01
    -15.597  0.0000E+00  0.2000E+01
    -15.525  0.0000E+00  0.2000E+01
    -15.453  0.0000E+00  0.2000E+01
    -15.381  0.0000E+00  0.2000E+01
    -15.309  0.0000E+00  0.2000E+01
    -15.237  0.0000E+00  0.2000E+01
    -15.164  0.0000E+00  0.2000E+01
    -15.092  0.0000E+00  0.2000E+01
    -15.020  0.0000E+00  0.2000E+01
    -14.948  0.0000E+00  0.2000E+01
    -14.876  0.0000E+00  0.2000E+01
    -14.804  0.0000E+00  0.2000E+01
    -14.732  0.0000E+00  0.2000E+01
    -14.660  0.0000E+00  0.2000E+01
    -14.587  0.0000E+00  0.2000E+01
    -14.515  0.0000E+00  0.2000E+01
    -14.443  0.0000E+00  0.2000E+01
    -14.371  0.0000E+00  0.2000E+01
    -14.299  0.0000E+00  0.2000E+01
    -14.227  0.0000E+00  0.2000E+01
    -14.155  0.0000E+00  0.2000E+01
    -14.083  0.0000E+00  0.2000E+01
    -14.010  0.0000E+00  0.2000E+01
    -13.938  0.0000E+00  0.2000E+01
    -13.866  0.0000E+00  0.2000E+01
    -13.794  0.0000E+00  0.2000E+01
    -13.722  0.0000E+00  0.2000E+01
    -13.650  0.0000E+00  0.2000E+01
    -13.578  0.0000E+00  0.2000E+01
    -13.506  0.0000E+00  0.2000E+01
    -13.433  0.0000E+00  0.2000E+01
    -13.361  0.0000E+00  0.2000E+01
    -13.289  0.0000E+00  0.2000E+01
    -13.217  0.0000E+00  0.2000E+01
    -13.145  0.0000E+00  0.2000E+01
    -13.073  0.0000E+00  0.2000E+01
    -13.001  0.0000E+00  0.2000E+01
    -12.929  0.0000E+00  0.2000E+01
    -12.856  0.0000E+00  0.2000E+01
    -12.784  0.0000E+00  0.2000E+01
    -12.712  0.0000E+00  0.2000E+01
    -12.640  0.0000E+00  0.2000E+01
    -12.568  0.0000E+00  0.2000E+01
    -12.496  0.0000E+00  0.2000E+01
    -12.424  0.0000E+00  0.2000E+01
    -12.352  0.0000E+00  0.2000E+01
    -12.279  0.0000E+00  0.2000E+01
    -12.207  0.0000E+00  0.2000E+01
    -12.135  0.0000E+00  0.2000E+01
    -12.063  0.0000E+00  0.2000E+01
    -11.991  0.0000E+00  0.2000E+01
    -11.919  0.0000E+00  0.2000E+01
    -11.847  0.0000E+00  0.2000E+01
    -11.775  0.0000E+00  0.2000E+01
    -11.702  0.0000E+00  0.2000E+01
    -11.630  0.0000E+00  0.2000E+01
    -11.558  0.0000E+00  0.2000E+01
    -11.486  0.0000E+00  0.2000E+01
    -11.414  0.0000E+00  0.2000E+01
    -11.342  0.0000E+00  0.2000E+01
    -11.270  0.0000E+00  0.2000E+01
    -11.198  0.0000E+00  0.2000E+01
    -11.125  0.0000E+00  0.2000E+01
    -11.053 -0.2183E-26  0.2000E+01
    -10.981 -0.6269E-24  0.2000E+01
    -10.909 -0.1388E-21  0.2000E+01
    -10.837 -0.2363E-19  0.2000E+01
    -10.765 -0.3093E-17  0.2000E+01
    -10.693 -0.3110E-15  0.2000E+01
    -10.621 -0.2402E-13  0.2000E+01
    -10.548 -0.1377E-11  0.2000E+01
    -10.476 -0.6237E-10  0.2000E+01
    -10.404 -0.2161E-08  0.2000E+01
    -10.332 -0.5723E-07  0.2000E+01
    -10.260 -0.1157E-05  0.2000E+01
    -10.188 -0.1779E-04  0.2000E+01
    -10.116 -0.2075E-03  0.2000E+01
    -10.044 -0.1827E-02  0.2000E+01
     -9.971 -0.1205E-01  0.1999E+01
     -9.899 -0.5869E-01  0.1995E+01
     -9.827 -0.2059E+00  0.1980E+01
     -9.755 -0.4897E+00  0.1945E+01
     -9.683 -0.6373E+00  0.1899E+01
     -9.611  0.2594E+00  0.1917E+01
     -9.539  0.3319E+01  0.2157E+01
     -9.467  0.8367E+01  0.2760E+01
     -9.394  0.1315E+02  0.3708E+01
     -9.322  0.1520E+02  0.4804E+01
     -9.250  0.1438E+02  0.5842E+01
     -9.178  0.1228E+02  0.6727E+01
     -9.106  0.9619E+01  0.7421E+01
     -9.034  0.6189E+01  0.7868E+01
     -8.962  0.2643E+01  0.8058E+01
     -8.890  0.2997E+00  0.8080E+01
     -8.817 -0.4781E+00  0.8045E+01
     -8.745 -0.3959E+00  0.8017E+01
     -8.673 -0.1709E+00  0.8004E+01
     -8.601 -0.4917E-01  0.8001E+01
     -8.529 -0.1008E-01  0.8000E+01
     -8.457 -0.1518E-02  0.8000E+01
     -8.385 -0.1703E-03  0.8000E+01
     -8.313 -0.1439E-04  0.8000E+01
     -8.240 -0.9201E-06  0.8000E+01
     -8.168 -0.4473E-07  0.8000E+01
     -8.096 -0.1658E-08  0.8000E+01
     -8.024 -0.4694E-10  0.8000E+01
     -7.952 -0.1016E-11  0.8000E+01
     -7.880 -0.1847E-13  0.8000E+01
     -7.808  0.0000E+00  0.8000E+01
     -7.736  0.0000E+00  0.8000E+01
     -7.663  0.0000E+00  0.8000E+01
     -7.591  0.0000E+00  0.8000E+01
     -7.519  0.0000E+00  0.8000E+01
     -7.447  0.0000E+00  0.8000E+01
     -7.375  0.0000E+00  0.8000E+01
     -7.303  0.0000E+00  0.8000E+01
     -7.231  0.0000E+00  0.8000E+01
     -7.159  0.0000E+00  0.8000E+01
     -7.086  0.0000E+00  0.8000E+01
     -7.014  0.0000E+00  0.8000E+01
     -6.942  0.0000E+00  0.8000E+01
     -6.870  0.0000E+00  0.8000E+01
     -6.798  0.0000E+00  0.8000E+01
     -6.726  0.0000E+00  0.8000E+01
     -6.654  0.0000E+00  0.8000E+01
     -6.582  0.0000E+00  0.8000E+01
     -6.509  0.0000E+00  0.8000E+01
     -6.437  0.0000E+00  0.8000E+01
     -6.365  0.0000E+00  0.8000E+01
     -6.293  0.0000E+00  0.8000E+01
     -6.221  0.0000E+00  0.8000E+01
     -6.149  0.0000E+00  0.8000E+01
     -6.077  0.0000E+00  0.8000E+01
     -6.005  0.0000E+00  0.8000E+01
     -5.932  0.0000E+00  0.8000E+01
     -5.860  0.0000E+00  0.8000E+01
     -5.788  0.0000E+00  0.8000E+01
     -5.716  0.0000E+00  0.8000E+01
     -5.644  0.0000E+00  0.8000E+01
     -5.572  0.0000E+00  0.8000E+01
     -5.500  0.0000E+00  0.8000E+01
     -5.428  0.0000E+00  0.8000E+01
     -5.355  0.0000E+00  0.8000E+01
     -5.283  0.0000E+00  0.8000E+01
     -5.211  0.0000E+00  0.8000E+01
     -5.139  0.0000E+00  0.8000E+01
     -5.067  0.0000E+00  0.8000E+01
     -4.995  0.0000E+00  0.8000E+01
     -4.923  0.0000E+00  0.8000E+01
     -4.851  0.0000E+00  0.8000E+01
     -4.778  0.0000E+00  0.8000E+01
     -4.706  0.0000E+00  0.8000E+01
     -4.634  0.0000E+00  0.8000E+01
     -4.562  0.0000E+00  0.8000E+01
     -4.490  0.0000E+00  0.8000E+01
     -4.418  0.0000E+00  0.8000E+01
     -4.346  0.0000E+00  0.8000E+01
     -4.274  0.0000E+00  0.8000E+01
     -4.201  0.0000E+00  0.8000E+01
     -4.129  0.0000E+00  0.8000E+01
     -4.057  0.0000E+00  0.8000E+01
     -3.985  0.0000E+00  0.8000E+01
     -3.913  0.0000E+00  0.8000E+01
     -3.841  0.0000E+00  0.8000E+01
     -3.769  0.0000E+00  0.8000E+01
     -3.697  0.0000E+00  0.8000E+01
     -3.624  0.0000E+00  0.8000E+01
     -3.552  0.0000E+00  0.8000E+01
     -3.480  0.0000E+00  0.8000E+01
     -3.408  0.0000E+00  0.8000E+01
     -3.336  0.0000E+00  0.8000E+01
     -3.264  0.0000E+00  0.8000E+01
     -3.192  0.0000E+00  0.8000E+01
     -3.120  0.0000E+00  0.8000E+01
     -3.047  0.0000E+00  0.8000E+01
     -2.975  0.0000E+00  0.8000E+01
     -2.903  0.0000E+00  0.8000E+01
     -2.831  0.0000E+00  0.8000E+01
     -2.759  0.0000E+00  0.8000E+01
     -2.687  0.0000E+00  0.8000E+01
     -2.615  0.0000E+00  0.8000E+01
     -2.543  0.0000E+00  0.8000E+01
     -2.470  0.0000E+00  0.8000E+01
     -2.398  0.0000E+00  0.8000E+01
     -2.326  0.0000E+00  0.8000E+01
     -2.254  0.0000E+00  0.8000E+01
     -2.182  0.0000E+00  0.8000E+01
     -2.110  0.0000E+00  0.8000E+01
     -2.038  0.0000E+00  0.8000E+01
     -1.966 -0.8301E-28  0.8000E+01
     -1.893 -0.2755E-25  0.8000E+01
     -1.821 -0.7051E-23  0.8000E+01
     -1.749 -0.1388E-20  0.8000E+01
     -1.677 -0.2101E-18  0.8000E+01
     -1.605 -0.2443E-16  0.8000E+01
     -1.533 -0.2183E-14  0.8000E+01
     -1.461 -0.1456E-12  0.8000E+01
     -1.389 -0.7620E-11  0.8000E+01
     -1.316 -0.3059E-09  0.8000E+01
     -1.244 -0.9393E-08  0.8000E+01
     -1.172 -0.2202E-06  0.8000E+01
     -1.100 -0.3929E-05  0.8000E+01
     -1.028 -0.5319E-04  0.8000E+01
     -0.956 -0.5436E-03  0.8000E+01
     -0.884 -0.4159E-02  0.8000E+01
     -0.812 -0.2352E-01  0.7998E+01
     -0.739 -0.9596E-01  0.7991E+01
     -0.667 -0.2681E+00  0.7972E+01
     -0.595 -0.4374E+00  0.7940E+01
     -0.523 -0.5324E-01  0.7936E+01
     -0.451  0.1760E+01  0.8063E+01
     -0.379  0.5024E+01  0.8426E+01
     -0.307  0.7858E+01  0.8992E+01
     -0.235  0.7900E+01  0.9562E+01
     -0.162  0.5111E+01  0.9931E+01
     -0.090  0.1827E+01  0.1006E+02
     -0.018 -0.3152E-01  0.1006E+02
      0.054 -0.4563E+00  0.1003E+02
      0.126 -0.3584E+00  0.1000E+02
      0.198 -0.3830E+00  0.9974E+01
      0.270 -0.6734E+00  0.9925E+01
      0.342 -0.8176E+00  0.9866E+01
      0.415  0.3940E+00  0.9895E+01
      0.487  0.4526E+01  0.1022E+02
      0.559  0.1171E+02  0.1107E+02
      0.631  0.1901E+02  0.1244E+02
      0.703  0.2172E+02  0.1400E+02
      0.775  0.1763E+02  0.1528E+02
      0.847  0.9591E+01  0.1597E+02
      0.919  0.2700E+01  0.1616E+02
      0.992 -0.5090E+00  0.1612E+02
      1.064 -0.9637E+00  0.1606E+02
      1.136 -0.5328E+00  0.1602E+02
      1.208 -0.1834E+00  0.1600E+02
      1.280 -0.4423E-01  0.1600E+02
      1.352 -0.7790E-02  0.1600E+02
      1.424 -0.1022E-02  0.1600E+02
      1.496 -0.1010E-03  0.1600E+02
      1.569 -0.7572E-05  0.1600E+02
      1.641 -0.4324E-06  0.1600E+02
      1.713 -0.1886E-07  0.1600E+02
      1.785 -0.6303E-09  0.1600E+02
      1.857 -0.1615E-10  0.1600E+02
      1.929 -0.3202E-12  0.1600E+02
      2.001 -0.4618E-14  0.1600E+02
      2.073  0.0000E+00  0.1600E+02
      2.146  0.0000E+00  0.1600E+02
      2.218  0.0000E+00  0.1600E+02
      2.290  0.0000E+00  0.1600E+02
      2.362  0.0000E+00  0.1600E+02
      2.434  0.0000E+00  0.1600E+02
      2.506  0.0000E+00  0.1600E+02
      2.578  0.0000E+00  0.1600E+02
      2.650  0.0000E+00  0.1600E+02
      2.723  0.0000E+00  0.1600E+02
      2.72704205    -18.87874580  301     -8.81028600      1.00000000
    -18.879  0.0000E+00  0.0000E+00
    -18.807  0.0000E+00  0.0000E+00
    -18.735  0.0000E+00  0.0000E+00
    -18.663  0.0000E+00  0.0000E+00
    -18.591  0.0000E+00  0.0000E+00
    -18.519 -0.4063E-27 -0.2926E-28
    -18.447 -0.1248E-24 -0.9017E-26
    -18.375 -0.2958E-22 -0.2140E-23
    -18.303 -0.5397E-20 -0.3908E-21
    -18.231 -0.7573E-18 -0.5493E-19
    -18.159 -0.8173E-16 -0.5941E-17
    -18.087 -0.6779E-14 -0.4942E-15
    -18.015 -0.4181E-12 -0.3060E-13
    -17.942 -0.2039E-10 -0.1499E-11
    -17.870 -0.7606E-09 -0.5628E-10
    -17.798 -0.2170E-07 -0.1619E-08
    -17.726 -0.4728E-06 -0.3567E-07
    -17.654 -0.7841E-05 -0.6004E-06
    -17.582 -0.9861E-04 -0.7702E-05
    -17.510 -0.9350E-03 -0.7504E-04
    -17.438 -0.6625E-02 -0.5522E-03
    -17.366 -0.3456E-01 -0.3041E-02
    -17.294 -0.1290E+00 -0.1233E-01
    -17.222 -0.3225E+00 -0.3555E-01
    -17.150 -0.4283E+00 -0.6640E-01
    -17.078  0.2310E+00 -0.4976E-01
    -17.006  0.2464E+01  0.1277E+00
    -16.934  0.5862E+01  0.5498E+00
    -16.862  0.8185E+01  0.1139E+01
    -16.790  0.7425E+01  0.1674E+01
    -16.718  0.4269E+01  0.1982E+01
    -16.646  0.1223E+01  0.2070E+01
    -16.574 -0.2278E+00  0.2053E+01
    -16.502 -0.4212E+00  0.2023E+01
    -16.430 -0.2242E+00  0.2007E+01
    -16.358 -0.7366E-01  0.2001E+01
    -16.286 -0.1684E-01  0.2000E+01
    -16.214 -0.2798E-02  0.2000E+01
    -16.142 -0.3450E-03  0.2000E+01
    -16.070 -0.3194E-04  0.2000E+01
    -15.998 -0.2235E-05  0.2000E+01
    -15.926 -0.1189E-06  0.2000E+01
    -15.854 -0.4820E-08  0.2000E+01
    -15.782 -0.1493E-09  0.2000E+01
    -15.710 -0.3538E-11  0.2000E+01
    -15.638 -0.6783E-13  0.2000E+01
    -15.566  0.0000E+00  0.2000E+01
    -15.494  0.0000E+00  0.2000E+01
    -15.422  0.0000E+00  0.2000E+01
    -15.350  0.0000E+00  0.2000E+01
    -15.278  0.0000E+00  0.2000E+01
    -15.206  0.0000E+00  0.2000E+01
    -15.134  0.0000E+00  0.2000E+01
    -15.062  0.0000E+00  0.2000E+01
    -14.990  0.0000E+00  0.2000E+01
    -14.918  0.0000E+00  0.2000E+01
    -14.846  0.0000E+00  0.2000E+01
    -14.774  0.0000E+00  0.2000E+01
    -14.702  0.0000E+00  0.2000E+01
    -14.630  0.0000E+00  0.2000E+01
    -14.558  0.0000E+00  0.2000E+01
    -14.486  0.0000E+00  0.2000E+01
    -14.414  0.0000E+00  0.2000E+01
    -14.342  0.0000E+00  0.2000E+01
    -14.270  0.0000E+00  0.2000E+01
    -14.197  0.0000E+00  0.2000E+01
    -14.125  0.0000E+00  0.2000E+01
    -14.053  0.0000E+00  0.2000E+01
    -13.981  0.0000E+00  0.2000E+01
    -13.909  0.0000E+00  0.2000E+01
    -13.837  0.0000E+00  0.2000E+01
    -13.765  0.0000E+00  0.2000E+01
    -13.693  0.0000E+00  0.2000E+01
    -13.621  0.0000E+00  0.2000E+01
    -13.549  0.0000E+00  0.2000E+01
    -13.477  0.0000E+00  0.2000E+01
    -13.405  0.0000E+00  0.2000E+01
    -13.333  0.0000E+00  0.2000E+01
    -13.261  0.0000E+00  0.2000E+01
    -13.189  0.0000E+00  0.2000E+01
    -13.117  0.0000E+00  0.2000E+01
    -13.045  0.0000E+00  0.2000E+01
    -12.973  0.0000E+00  0.2000E+01
    -12.901  0.0000E+00  0.2000E+01
    -12.829  0.0000E+00  0.2000E+01
    -12.757  0.0000E+00  0.2000E+01
    -12.685  0.0000E+00  0.2000E+01
    -12.613  0.0000E+00  0.2000E+01
    -12.541  0.0000E+00  0.2000E+01
    -12.469  0.0000E+00  0.2000E+01
    -12.397  0.0000E+00  0.2000E+01
    -12.325  0.0000E+00  0.2000E+01
    -12.253  0.0000E+00  0.2000E+01
    -12.181  0.0000E+00  0.2000E+01
    -12.109  0.0000E+00  0.2000E+01
    -12.037  0.0000E+00  0.2000E+01
    -11.965  0.0000E+00  0.2000E+01
    -11.893  0.0000E+00  0.2000E+01
    -11.821  0.0000E+00  0.2000E+01
    -11.749  0.0000E+00  0.2000E+01
    -11.677  0.0000E+00  0.2000E+01
    -11.605  0.0000E+00  0.2000E+01
    -11.533  0.0000E+00  0.2000E+01
    -11.461  0.0000E+00  0.2000E+01
    -11.389  0.0000E+00  0.2000E+01
    -11.317  0.0000E+00  0.2000E+01
    -11.245  0.0000E+00  0.2000E+01
    -11.173  0.0000E+00  0.2000E+01
    -11.101 -0.1724E-26  0.2000E+01
    -11.029 -0.4965E-24  0.2000E+01
    -10.957 -0.1103E-21  0.2000E+01
    -10.885 -0.1886E-19  0.2000E+01
    -10.813 -0.2481E-17  0.2000E+01
    -10.741 -0.2510E-15  0.2000E+01
    -10.669 -0.1951E-13  0.2000E+01
    -10.597 -0.1129E-11  0.2000E+01
    -10.525 -0.5154E-10  0.2000E+01
    -10.452 -0.1803E-08  0.2000E+01
    -10.380 -0.4828E-07  0.2000E+01
    -10.308 -0.9878E-06  0.2000E+01
    -10.236 -0.1540E-04  0.2000E+01
    -10.164 -0.1825E-03  0.2000E+01
    -10.092 -0.1635E-02  0.2000E+01
    -10.020 -0.1099E-01  0.1999E+01
     -9.948 -0.5478E-01  0.1995E+01
     -9.876 -0.1974E+00  0.1981E+01
     -9.804 -0.4854E+00  0.1946E+01
     -9.732 -0.6682E+00  0.1898E+01
     -9.660  0.1829E+00  0.1911E+01
     -9.588  0.3332E+01  0.2151E+01
     -9.516  0.8727E+01  0.2780E+01
     -9.444  0.1370E+02  0.3766E+01
     -9.372  0.1464E+02  0.4820E+01
     -9.300  0.1072E+02  0.5593E+01
     -9.228  0.5059E+01  0.5957E+01
     -9.156  0.1892E+01  0.6093E+01
     -9.084  0.2930E+01  0.6304E+01
     -9.012  0.6196E+01  0.6750E+01
     -8.940  0.8008E+01  0.7327E+01
     -8.868  0.6517E+01  0.7797E+01
     -8.796  0.3203E+01  0.8027E+01
     -8.724  0.5989E+00  0.8070E+01
     -8.652 -0.3768E+00  0.8043E+01
     -8.580 -0.3718E+00  0.8016E+01
     -8.508 -0.1670E+00  0.8004E+01
     -8.436 -0.4879E-01  0.8001E+01
     -8.364 -0.1009E-01  0.8000E+01
     -8.292 -0.1530E-02  0.8000E+01
     -8.220 -0.1727E-03  0.8000E+01
     -8.148 -0.1468E-04  0.8000E+01
     -8.076 -0.9449E-06  0.8000E+01
     -8.004 -0.4627E-07  0.8000E+01
     -7.932 -0.1728E-08  0.8000E+01
     -7.860 -0.4937E-10  0.8000E+01
     -7.788 -0.1079E-11  0.8000E+01
     -7.716 -0.1850E-13  0.8000E+01
     -7.644  0.0000E+00  0.8000E+01
     -7.572  0.0000E+00  0.8000E+01
     -7.500  0.0000E+00  0.8000E+01
     -7.428  0.0000E+00  0.8000E+01
     -7.356  0.0000E+00  0.8000E+01
     -7.284  0.0000E+00  0.8000E+01
     -7.212  0.0000E+00  0.8000E+01
     -7.140  0.0000E+00  0.8000E+01
     -7.068  0.0000E+00  0.8000E+01
     -6.996  0.0000E+00  0.8000E+01
     -6.924  0.0000E+00  0.8000E+01
     -6.852  0.0000E+00  0.8000E+01
     -6.780  0.0000E+00  0.8000E+01
     -6.707  0.0000E+00  0.8000E+01
     -6.635  0.0000E+00  0.8000E+01
     -6.563  0.0000E+00  0.8000E+01
     -6.491  0.0000E+00  0.8000E+01
     -6.419  0.0000E+00  0.8000E+01
     -6.347  0.0000E+00  0.8000E+01
     -6.275  0.0000E+00  0.8000E+01
     -6.203  0.0000E+00  0.8000E+01
     -6.131  0.0000E+00  0.8000E+01
     -6.059  0.0000E+00  0.8000E+01
     -5.987  0.0000E+00  0.8000E+01
     -5.915  0.0000E+00  0.8000E+01
     -5.843  0.0000E+00  0.8000E+01
     -5.771  0.0000E+00  0.8000E+01
     -5.699  0.0000E+00  0.8000E+01
     -5.627  0.0000E+00  0.8000E+01
     -5.555  0.0000E+00  0.8000E+01
     -5.483  0.0000E+00  0.8000E+01
     -5.411  0.0000E+00  0.8000E+01
     -5.339  0.0000E+00  0.8000E+01
     -5.267  0.0000E+00  0.8000E+01
     -5.195  0.0000E+00  0.8000E+01
     -5.123  0.0000E+00  0.8000E+01
     -5.051  0.0000E+00  0.8000E+01
     -4.979  0.0000E+00  0.8000E+01
     -4.907  0.0000E+00  0.8000E+01
     -4.835  0.0000E+00  0.8000E+01
     -4.763  0.0000E+00  0.8000E+01
     -4.691  0.0000E+00  0.8000E+01
     -4.619  0.0000E+00  0.8000E+01
     -4.547  0.0000E+00  0.8000E+01
     -4.475  0.0000E+00  0.8000E+01
     -4.403  0.0000E+00  0.8000E+01
     -4.331  0.0000E+00  0.8000E+01
     -4.259  0.0000E+00  0.8000E+01
     -4.187  0.0000E+00  0.8000E+01
     -4.115  0.0000E+00  0.8000E+01
     -4.043  0.0000E+00  0.8000E+01
     -3.971  0.0000E+00  0.8000E+01
     -3.899  0.0000E+00  0.8000E+01
     -3.827  0.0000E+00  0.8000E+01
     -3.755  0.0000E+00  0.8000E+01
     -3.683  0.0000E+00  0.8000E+01
     -3.611  0.0000E+00  0.8000E+01
     -3.539  0.0000E+00  0.8000E+01
     -3.467  0.0000E+00  0.8000E+01
     -3.395  0.0000E+00  0.8000E+01
     -3.323  0.0000E+00  0.8000E+01
     -3.251  0.0000E+00  0.8000E+01
     -3.179  0.0000E+00  0.8000E+01
     -3.107  0.0000E+00  0.8000E+01
     -3.035  0.0000E+00  0.8000E+01
     -2.962  0.0000E+00  0.8000E+01
     -2.890  0.0000E+00  0.8000E+01
     -2.818  0.0000E+00  0.8000E+01
     -2.746  0.0000E+00  0.8000E+01
     -2.674  0.0000E+00  0.8000E+01
     -2.602  0.0000E+00  0.8000E+01
     -2.530  0.0000E+00  0.8000E+01
     -2.458  0.0000E+00  0.8000E+01
     -2.386  0.0000E+00  0.8000E+01
     -2.314  0.0000E+00  0.8000E+01
     -2.242  0.0000E+00  0.8000E+01
     -2.170  0.0000E+00  0.8000E+01
     -2.098  0.0000E+00  0.8000E+01
     -2.026  0.0000E+00  0.8000E+01
     -1.954 -0.3664E-27  0.8000E+01
     -1.882 -0.1129E-24  0.8000E+01
     -1.810 -0.2685E-22  0.8000E+01
     -1.738 -0.4914E-20  0.8000E+01
     -1.666 -0.6921E-18  0.8000E+01
     -1.594 -0.7496E-16  0.8000E+01
     -1.522 -0.6241E-14  0.8000E+01
     -1.450 -0.3869E-12  0.8000E+01
     -1.378 -0.1892E-10  0.8000E+01
     -1.306 -0.7089E-09  0.8000E+01
     -1.234 -0.2032E-07  0.8000E+01
     -1.162 -0.4447E-06  0.8000E+01
     -1.090 -0.7410E-05  0.8000E+01
     -1.018 -0.9366E-04  0.8000E+01
     -0.946 -0.8929E-03  0.8000E+01
     -0.874 -0.6363E-02  0.7999E+01
     -0.802 -0.3340E-01  0.7997E+01
     -0.730 -0.1256E+00  0.7988E+01
     -0.658 -0.3172E+00  0.7965E+01
     -0.586 -0.4301E+00  0.7934E+01
     -0.514  0.2005E+00  0.7949E+01
     -0.442  0.2392E+01  0.8121E+01
     -0.370  0.5779E+01  0.8537E+01
     -0.298  0.8157E+01  0.9125E+01
     -0.226  0.7477E+01  0.9663E+01
     -0.154  0.4355E+01  0.9977E+01
     -0.082  0.1282E+01  0.1007E+02
     -0.010 -0.2130E+00  0.1005E+02
      0.062 -0.4454E+00  0.1002E+02
      0.134 -0.3268E+00  0.9998E+01
      0.206 -0.3912E+00  0.9970E+01
      0.278 -0.7059E+00  0.9919E+01
      0.350 -0.7870E+00  0.9862E+01
      0.422  0.6489E+00  0.9909E+01
      0.494  0.5117E+01  0.1028E+02
      0.566  0.1248E+02  0.1118E+02
      0.638  0.1951E+02  0.1258E+02
      0.711  0.2158E+02  0.1414E+02
      0.783  0.1696E+02  0.1536E+02
      0.855  0.8875E+01  0.1600E+02
      0.927  0.2299E+01  0.1616E+02
      0.999 -0.6045E+00  0.1612E+02
      1.071 -0.9337E+00  0.1605E+02
      1.143 -0.4967E+00  0.1602E+02
      1.215 -0.1673E+00  0.1600E+02
      1.287 -0.3973E-01  0.1600E+02
      1.359 -0.6916E-02  0.1600E+02
      1.431 -0.8993E-03  0.1600E+02
      1.503 -0.8829E-04  0.1600E+02
      1.575 -0.6585E-05  0.1600E+02
      1.647 -0.3748E-06  0.1600E+02
      1.719 -0.1632E-07  0.1600E+02
      1.791 -0.5451E-09  0.1600E+02
      1.863 -0.1397E-10  0.1600E+02
      1.935 -0.2775E-12  0.1600E+02
      2.007 -0.4625E-14  0.1600E+02
      2.079  0.0000E+00  0.1600E+02
      2.151  0.0000E+00  0.1600E+02
      2.223  0.0000E+00  0.1600E+02
      2.295  0.0000E+00  0.1600E+02
      2.367  0.0000E+00  0.1600E+02
      2.439  0.0000E+00  0.1600E+02
      2.511  0.0000E+00  0.1600E+02
      2.583  0.0000E+00  0.1600E+02
      2.655  0.0000E+00  0.1600E+02
      2.727  0.0000E+00  0.1600E+02
      2.72243907    -18.75508252  301     -8.76546215      1.00000000
    -18.755  0.0000E+00  0.0000E+00
    -18.683  0.0000E+00  0.0000E+00
    -18.612  0.0000E+00  0.0000E+00
    -18.540  0.0000E+00  0.0000E+00
    -18.469  0.0000E+00  0.0000E+00
    -18.397 -0.3433E-27 -0.2458E-28
    -18.326 -0.1028E-24 -0.7384E-26
    -18.254 -0.2383E-22 -0.1713E-23
    -18.182 -0.4264E-20 -0.3069E-21
    -18.111 -0.5887E-18 -0.4245E-19
    -18.039 -0.6270E-16 -0.4531E-17
    -17.968 -0.5149E-14 -0.3732E-15
    -17.896 -0.3166E-12 -0.2304E-13
    -17.824 -0.1533E-10 -0.1121E-11
    -17.753 -0.5718E-09 -0.4206E-10
    -17.681 -0.1636E-07 -0.1214E-08
    -17.610 -0.3588E-06 -0.2690E-07
    -17.538 -0.6009E-05 -0.4571E-06
    -17.466 -0.7659E-04 -0.5940E-05
    -17.395 -0.7391E-03 -0.5885E-04
    -17.323 -0.5355E-02 -0.4422E-03
    -17.252 -0.2872E-01 -0.2498E-02
    -17.180 -0.1112E+00 -0.1046E-01
    -17.108 -0.2934E+00 -0.3146E-01
    -17.037 -0.4387E+00 -0.6287E-01
    -16.965  0.4990E-01 -0.5930E-01
    -16.894  0.2017E+01  0.8508E-01
    -16.822  0.5327E+01  0.4665E+00
    -16.751  0.7991E+01  0.1039E+01
    -16.679  0.7780E+01  0.1596E+01
    -16.607  0.4886E+01  0.1945E+01
    -16.536  0.1671E+01  0.2065E+01
    -16.464 -0.7958E-01  0.2059E+01
    -16.393 -0.4377E+00  0.2028E+01
    -16.321 -0.2659E+00  0.2009E+01
    -16.249 -0.9545E-01  0.2002E+01
    -16.178 -0.2360E-01  0.2000E+01
    -16.106 -0.4230E-02  0.2000E+01
    -16.035 -0.5627E-03  0.2000E+01
    -15.963 -0.5626E-04  0.2000E+01
    -15.891 -0.4262E-05  0.2000E+01
    -15.820 -0.2458E-06  0.2000E+01
    -15.748 -0.1084E-07  0.2000E+01
    -15.677 -0.3661E-09  0.2000E+01
    -15.605 -0.9491E-11  0.2000E+01
    -15.533 -0.1923E-12  0.2000E+01
    -15.462  0.0000E+00  0.2000E+01
    -15.390  0.0000E+00  0.2000E+01
    -15.319  0.0000E+00  0.2000E+01
    -15.247  0.0000E+00  0.2000E+01
    -15.175  0.0000E+00  0.2000E+01
    -15.104  0.0000E+00  0.2000E+01
    -15.032  0.0000E+00  0.2000E+01
    -14.961  0.0000E+00  0.2000E+01
    -14.889  0.0000E+00  0.2000E+01
    -14.818  0.0000E+00  0.2000E+01
    -14.746  0.0000E+00  0.2000E+01
    -14.674  0.0000E+00  0.2000E+01
    -14.603  0.0000E+00  0.2000E+01
    -14.531  0.0000E+00  0.2000E+01
    -14.460  0.0000E+00  0.2000E+01
    -14.388  0.0000E+00  0.2000E+01
    -14.316  0.0000E+00  0.2000E+01
    -14.245  0.0000E+00  0.2000E+01
    -14.173  0.0000E+00  0.2000E+01
    -14.102  0.0000E+00  0.2000E+01
    -14.030  0.0000E+00  0.2000E+01
    -13.958  0.0000E+00  0.2000E+01
    -13.887  0.0000E+00  0.2000E+01
    -13.815  0.0000E+00  0.2000E+01
    -13.744  0.0000E+00  0.2000E+01
    -13.672  0.0000E+00  0.2000E+01
    -13.600  0.0000E+00  0.2000E+01
    -13.529  0.0000E+00  0.2000E+01
    -13.457  0.0000E+00  0.2000E+01
    -13.386  0.0000E+00  0.2000E+01
    -13.314  0.0000E+00  0.2000E+01
    -13.243  0.0000E+00  0.2000E+01
    -13.171  0.0000E+00  0.2000E+01
    -13.099  0.0000E+00  0.2000E+01
    -13.028  0.0000E+00  0.2000E+01
    -12.956  0.0000E+00  0.2000E+01
    -12.885  0.0000E+00  0.2000E+01
    -12.813  0.0000E+00  0.2000E+01
    -12.741  0.0000E+00  0.2000E+01
    -12.670  0.0000E+00  0.2000E+01
    -12.598  0.0000E+00  0.2000E+01
    -12.527  0.0000E+00  0.2000E+01
    -12.455  0.0000E+00  0.2000E+01
    -12.383  0.0000E+00  0.2000E+01
    -12.312  0.0000E+00  0.2000E+01
    -12.240  0.0000E+00  0.2000E+01
    -12.169  0.0000E+00  0.2000E+01
    -12.097  0.0000E+00  0.2000E+01
    -12.025  0.0000E+00  0.2000E+01
    -11.954  0.0000E+00  0.2000E+01
    -11.882  0.0000E+00  0.2000E+01
    -11.811  0.0000E+00  0.2000E+01
    -11.739  0.0000E+00  0.2000E+01
    -11.668  0.0000E+00  0.2000E+01
    -11.596  0.0000E+00  0.2000E+01
    -11.524  0.0000E+00  0.2000E+01
    -11.453  0.0000E+00  0.2000E+01
    -11.381  0.0000E+00  0.2000E+01
    -11.310  0.0000E+00  0.2000E+01
    -11.238  0.0000E+00  0.2000E+01
    -11.166  0.0000E+00  0.2000E+01
    -11.095 -0.1850E-26  0.2000E+01
    -11.023 -0.5136E-24  0.2000E+01
    -10.952 -0.1104E-21  0.2000E+01
    -10.880 -0.1833E-19  0.2000E+01
    -10.808 -0.2347E-17  0.2000E+01
    -10.737 -0.2318E-15  0.2000E+01
    -10.665 -0.1765E-13  0.2000E+01
    -10.594 -0.1003E-11  0.2000E+01
    -10.522 -0.4508E-10  0.2000E+01
    -10.450 -0.1557E-08  0.2000E+01
    -10.379 -0.4125E-07  0.2000E+01
    -10.307 -0.8366E-06  0.2000E+01
    -10.236 -0.1295E-04  0.2000E+01
    -10.164 -0.1523E-03  0.2000E+01
    -10.092 -0.1354E-02  0.2000E+01
    -10.021 -0.9011E-02  0.1999E+01
     -9.949 -0.4417E-01  0.1996E+01
     -9.878 -0.1547E+00  0.1985E+01
     -9.806 -0.3609E+00  0.1959E+01
     -9.735 -0.4317E+00  0.1928E+01
     -9.663  0.3277E+00  0.1952E+01
     -9.591  0.2596E+01  0.2138E+01
     -9.520  0.5848E+01  0.2556E+01
     -9.448  0.8339E+01  0.3153E+01
     -9.377  0.9144E+01  0.3808E+01
     -9.305  0.9055E+01  0.4456E+01
     -9.233  0.8585E+01  0.5071E+01
     -9.162  0.7241E+01  0.5589E+01
     -9.090  0.5692E+01  0.5997E+01
     -9.019  0.5771E+01  0.6410E+01
     -8.947  0.7313E+01  0.6933E+01
     -8.875  0.7718E+01  0.7486E+01
     -8.804  0.5557E+01  0.7884E+01
     -8.732  0.2350E+01  0.8052E+01
     -8.661  0.2065E+00  0.8067E+01
     -8.589 -0.4320E+00  0.8036E+01
     -8.517 -0.3254E+00  0.8013E+01
     -8.446 -0.1315E+00  0.8003E+01
     -8.374 -0.3573E-01  0.8001E+01
     -8.303 -0.6971E-02  0.8000E+01
     -8.231 -0.1004E-02  0.8000E+01
     -8.160 -0.1084E-03  0.8000E+01
     -8.088 -0.8855E-05  0.8000E+01
     -8.016 -0.5500E-06  0.8000E+01
     -7.945 -0.2609E-07  0.8000E+01
     -7.873 -0.9474E-09  0.8000E+01
     -7.802 -0.2640E-10  0.8000E+01
     -7.730 -0.5629E-12  0.8000E+01
     -7.658 -0.1241E-13  0.8000E+01
     -7.587  0.0000E+00  0.8000E+01
     -7.515  0.0000E+00  0.8000E+01
     -7.444  0.0000E+00  0.8000E+01
     -7.372  0.0000E+00  0.8000E+01
     -7.300  0.0000E+00  0.8000E+01
     -7.229  0.0000E+00  0.8000E+01
     -7.157  0.0000E+00  0.8000E+01
     -7.086  0.0000E+00  0.8000E+01
     -7.014  0.0000E+00  0.8000E+01
     -6.942  0.0000E+00  0.8000E+01
     -6.871  0.0000E+00  0.8000E+01
     -6.799  0.0000E+00  0.8000E+01
     -6.728  0.0000E+00  0.8000E+01
     -6.656  0.0000E+00  0.8000E+01
     -6.584  0.0000E+00  0.8000E+01
     -6.513  0.0000E+00  0.8000E+01
     -6.441  0.0000E+00  0.8000E+01
     -6.370  0.0000E+00  0.8000E+01
     -6.298  0.0000E+00  0.8000E+01
     -6.227  0.0000E+00  0.8000E+01
     -6.155  0.0000E+00  0.8000E+01
     -6.083  0.0000E+00  0.8000E+01
     -6.012  0.0000E+00  0.8000E+01
     -5.940  0.0000E+00  0.8000E+01
     -5.869  0.0000E+00  0.8000E+01
     -5.797  0.0000E+00  0.8000E+01
     -5.725  0.0000E+00  0.8000E+01
     -5.654  0.0000E+00  0.8000E+01
     -5.582  0.0000E+00  0.8000E+01
     -5.511  0.0000E+00  0.8000E+01
     -5.439  0.0000E+00  0.8000E+01
     -5.367  0.0000E+00  0.8000E+01
     -5.296  0.0000E+00  0.8000E+01
     -5.224  0.0000E+00  0.8000E+01
     -5.153  0.0000E+00  0.8000E+01
     -5.081  0.0000E+00  0.8000E+01
     -5.009  0.0000E+00  0.8000E+01
     -4.938  0.0000E+00  0.8000E+01
     -4.866  0.0000E+00  0.8000E+01
     -4.795  0.0000E+00  0.8000E+01
     -4.723  0.0000E+00  0.8000E+01
     -4.652  0.0000E+00  0.8000E+01
     -4.580  0.0000E+00  0.8000E+01
     -4.508  0.0000E+00  0.8000E+01
     -4.437  0.0000E+00  0.8000E+01
     -4.365  0.0000E+00  0.8000E+01
     -4.294  0.0000E+00  0.8000E+01
     -4.222  0.0000E+00  0.8000E+01
     -4.150  0.0000E+00  0.8000E+01
     -4.079  0.0000E+00  0.8000E+01
     -4.007  0.0000E+00  0.8000E+01
     -3.936  0.0000E+00  0.8000E+01
     -3.864  0.0000E+00  0.8000E+01
     -3.792  0.0000E+00  0.8000E+01
     -3.721  0.0000E+00  0.8000E+01
     -3.649  0.0000E+00  0.8000E+01
     -3.578  0.0000E+00  0.8000E+01
     -3.506  0.0000E+00  0.8000E+01
     -3.434  0.0000E+00  0.8000E+01
     -3.363  0.0000E+00  0.8000E+01
     -3.291  0.0000E+00  0.8000E+01
     -3.220  0.0000E+00  0.8000E+01
     -3.148  0.0000E+00  0.8000E+01
     -3.076  0.0000E+00  0.8000E+01