    5    5    1    1
  0.1957052E+03  0.9909769E-09  0.1002389E-08  0.9857313E-09  0.2000000E-14
   50.000000000000000     
  CAR 
 unknown system                          
      8      4      8

  0.2500000E+00  0.2500000E+00  0.2500000E+00  0.2500000E+00
    1      -16.716008   1.000000
    2       -9.395514   1.000014
    3       -9.138625   1.007210
    4       -8.894311   0.992561
    5       -0.306270   0.000000
    6        0.578750   0.000000
    7        0.661740   0.000000
    8        0.693100   0.000000

 -0.2500000E+00  0.2500000E+00  0.2500000E+00  0.2500000E+00
    1      -16.716047   1.000000
    2       -9.395588   1.000014
    3       -9.138748   1.007195
    4       -8.894445   0.992726
    5       -0.313455   0.000000
    6        0.577771   0.000000
    7        0.675658   0.000000
    8        0.728788   0.000000

  0.2500000E+00 -0.2500000E+00  0.2500000E+00  0.2500000E+00
    1      -16.716051   1.000000
    2       -9.395532   1.000014
    3       -9.138774   1.007192
    4       -8.894575   0.992886
    5       -0.313537   0.000000
    6        0.581640   0.000000
    7        0.684359   0.000000
    8        0.719367   0.000000

 -0.2500000E+00 -0.2500000E+00  0.2500000E+00  0.2500000E+00
    1      -16.716048   1.000000
    2       -9.395484   1.000014
    3       -9.138749   1.007195
    4       -8.894649   0.992978
    5       -0.314651   0.000000
    6        0.580921   0.000000
    7        0.686095   0.000000
    8        0.729423   0.000000
