 vasp.5.4.4.18Apr17-6-g9f103f2a35 (build Jul 12 2018 13:43:46) complex           
 executed on             LinuxGNU date 2019.06.22  02:17:32
 running on    1 total cores
 distrk:  each k-point on    1 cores,    1 groups
 distr:  one band on NCORES_PER_BAND=   1 cores,    1 groups


--------------------------------------------------------------------------------------------------------


 INCAR:
 POTCAR:    PAW_PBE H 15Jun2001                   
 POTCAR:    PAW_PBE C 08Apr2002                   
 POTCAR:    PAW_PBE H 15Jun2001                   
   VRHFIN =H: ultrasoft test                                                    
   LEXCH  = PE                                                                  
   EATOM  =    12.4884 eV,    0.9179 Ry                                         
                                                                                
   TITEL  = PAW_PBE H 15Jun2001                                                 
   LULTRA =        F    use ultrasoft PP ?                                      
   IUNSCR =        0    unscreen: 0-lin 1-nonlin 2-no                           
   RPACOR =    0.000    partial core radius                                     
   POMASS =    1.000; ZVAL   =    1.000    mass and valenz                      
   RCORE  =    1.100    outmost cutoff radius                                   
   RWIGS  =    0.700; RWIGS  =    0.370    wigner-seitz radius (au A)           
   ENMAX  =  250.000; ENMIN  =  200.000 eV                                      
   RCLOC  =    0.701    cutoff for local pot                                    
   LCOR   =        T    correct aug charges                                     
   LPAW   =        T    paw PP                                                  
   EAUG   =  400.000                                                            
   RMAX   =    1.123    core radius for proj-oper                               
   RAUG   =    1.200    factor for augmentation sphere                          
   RDEP   =    1.112    radius for radial grids                                 
   RDEPT  =    0.926    core radius for aug-charge                              
                                                                                
   Atomic configuration                                                         
    2 entries                                                                   
     n  l   j            E        occ.                                          
     1  0  0.50        -6.4927   1.0000                                         
     2  1  0.50        -3.4015   0.0000                                         
   Description                                                                  
     l       E           TYP  RCUT    TYP  RCUT                                 
     0     -6.4927494     23  1.100                                             
     0      6.8029130     23  1.100                                             
     1     -4.0817478     23  1.100                                             
  local pseudopotential read in
  atomic valenz-charges read in
  non local Contribution for L=           0  read in
    real space projection operators read in
  non local Contribution for L=           0  read in
    real space projection operators read in
  non local Contribution for L=           1  read in
    real space projection operators read in
    PAW grid and wavefunctions read in

   number of l-projection  operators is LMAX  =           3
   number of lm-projection operators is LMMAX =           5

 POTCAR:    PAW_PBE C 08Apr2002                   
   VRHFIN =C: s2p2                                                              
   LEXCH  = PE                                                                  
   EATOM  =   147.1560 eV,   10.8157 Ry                                         
                                                                                
   TITEL  = PAW_PBE C 08Apr2002                                                 
   LULTRA =        F    use ultrasoft PP ?                                      
   IUNSCR =        1    unscreen: 0-lin 1-nonlin 2-no                           
   RPACOR =    1.200    partial core radius                                     
   POMASS =   12.011; ZVAL   =    4.000    mass and valenz                      
   RCORE  =    1.500    outmost cutoff radius                                   
   RWIGS  =    1.630; RWIGS  =    0.863    wigner-seitz radius (au A)           
   ENMAX  =  400.000; ENMIN  =  300.000 eV                                      
   ICORE  =        2    local potential                                         
   LCOR   =        T    correct aug charges                                     
   LPAW   =        T    paw PP                                                  
   EAUG   =  644.873                                                            
   DEXC   =    0.000                                                            
   RMAX   =    1.529    core radius for proj-oper                               
   RAUG   =    1.300    factor for augmentation sphere                          
   RDEP   =    1.501    radius for radial grids                                 
   RDEPT  =    1.300    core radius for aug-charge                              
                                                                                
   Atomic configuration                                                         
    4 entries                                                                   
     n  l   j            E        occ.                                          
     1  0  0.50      -273.3789   2.0000                                         
     2  0  0.50       -13.7508   2.0000                                         
     2  1  0.50        -5.2854   2.0000                                         
     3  2  1.50        -5.4423   0.0000                                         
   Description                                                                  
     l       E           TYP  RCUT    TYP  RCUT                                 
     0    -13.7508458     23  1.200                                             
     0     -8.2022199     23  1.200                                             
     1     -5.2854383     23  1.500                                             
     1     34.0145650     23  1.500                                             
     2     -5.4423304      7  1.500                                             
  local pseudopotential read in
  partial core-charges read in
  partial kinetic energy density read in
  atomic valenz-charges read in
  non local Contribution for L=           0  read in
    real space projection operators read in
  non local Contribution for L=           0  read in
    real space projection operators read in
  non local Contribution for L=           1  read in
    real space projection operators read in
  non local Contribution for L=           1  read in
    real space projection operators read in
    PAW grid and wavefunctions read in

   number of l-projection  operators is LMAX  =           4
   number of lm-projection operators is LMMAX =           8


 ----------------------------------------------------------------------------- 
|                                                                             |
|  ADVICE TO THIS USER RUNNING 'VASP/VAMP'   (HEAR YOUR MASTER'S VOICE ...):  |
|                                                                             |
|      You have a (more or less) 'small supercell' and for smaller cells      |
|      it is recommended  to use the reciprocal-space projection scheme!      |
|      The real space optimization is not  efficient for small cells and it   |
|      is also less accurate ...                                              |
|      Therefore set LREAL=.FALSE. in the  INCAR file                         |
|                                                                             |
 ----------------------------------------------------------------------------- 


 ----------------------------------------------------------------------------- 
|                                                                             |
|           W    W    AA    RRRRR   N    N  II  N    N   GGGG   !!!           |
|           W    W   A  A   R    R  NN   N  II  NN   N  G    G  !!!           |
|           W    W  A    A  R    R  N N  N  II  N N  N  G       !!!           |
|           W WW W  AAAAAA  RRRRR   N  N N  II  N  N N  G  GGG   !            |
|           WW  WW  A    A  R   R   N   NN  II  N   NN  G    G                |
|           W    W  A    A  R    R  N    N  II  N    N   GGGG   !!!           |
|                                                                             |
|     The real-space-projection scheme for the treatment of the nonlocal      |
|     pseudopotentials has been switched on -- but on file POTCAR I have      |
|     not found any entries signalling me that you have ever performed a      |
|     real-space optimization of all nonlocal projectors! BE WARNED that      |
|     a calculation using the real-space-projection scheme together with      |
|     nonlocal projectors which were not real-space-optimized (according      |
|     to the plane-wave-cutoff used in this calculation) might give more      |
|     or less inaccurate results                                              |
|     I hope you know what you are doing                                      |
|                                                                             |
 ----------------------------------------------------------------------------- 

  PAW_PBE H 15Jun2001                   :
 energy of atom  1       EATOM=  -12.4884
 kinetic energy error for atom=    0.0098 (will be added to EATOM!!)
  PAW_PBE C 08Apr2002                   :
 energy of atom  2       EATOM= -147.1560
 kinetic energy error for atom=    0.0288 (will be added to EATOM!!)


 POSCAR:  H  C                                   
  positions in cartesian coordinates
  No initial velocities read in
 exchange correlation table for  LEXCH =        8
   RHO(1)=    0.500       N(1)  =     2000
   RHO(2)=  100.500       N(2)  =     4000



--------------------------------------------------------------------------------------------------------


 ion  position               nearest neighbor table
   1  0.539  0.407  0.361-   5 1.09
   2  0.394  0.480  0.439-   5 1.09
   3  0.552  0.566  0.443-   5 1.09
   4  0.529  0.416  0.539-   5 1.09
   5  0.503  0.468  0.446-   3 1.09   2 1.09   1 1.09   4 1.09


IMPORTANT INFORMATION: All symmetrisations will be switched off!
NOSYMM: (Re-)initialisation of all symmetry stuff for point group C_1.




Automatic generation of k-mesh.
 generate k-points for:    2    2    2
Space group operators:
 irot       det(A)        alpha          n_x          n_y          n_z        tau_x        tau_y        tau_z
    1     1.000000     0.000000     1.000000     0.000000     0.000000     0.000000     0.000000     0.000000
 
 Subroutine IBZKPT returns following result:
 ===========================================
 
 Found      4 irreducible k-points:
 
 Following reciprocal coordinates:
            Coordinates               Weight
  0.250000  0.250000  0.250000      2.000000
 -0.250000  0.250000  0.250000      2.000000
  0.250000 -0.250000  0.250000      2.000000
 -0.250000 -0.250000  0.250000      2.000000
 
 Following cartesian coordinates:
            Coordinates               Weight
  0.025228  0.025407  0.026496      2.000000
 -0.025228  0.024482  0.025355      2.000000
  0.025228 -0.024482  0.025394      2.000000
 -0.025228 -0.025407  0.024252      2.000000
 


--------------------------------------------------------------------------------------------------------




 Dimension of arrays:
   k-points           NKPTS =      4   k-points in BZ     NKDIM =      4   number of bands    NBANDS=      8
   number of dos      NEDOS =    301   number of ions     NIONS =      5
   non local maximal  LDIM  =      4   non local SUM 2l+1 LMDIM =      8
   total plane-waves  NPLWV = 313600
   max r-space proj   IRMAX =    760   max aug-charges    IRDMAX=   3981
   dimension x,y,z NGX =    70 NGY =   70 NGZ =   64
   dimension x,y,z NGXF=   140 NGYF=  140 NGZF=  128
   support grid    NGXF=   140 NGYF=  140 NGZF=  128
   ions per type =               4   1
   NGX,Y,Z   is equivalent  to a cutoff of  11.74, 11.61, 10.79 a.u.
   NGXF,Y,Z  is equivalent  to a cutoff of  23.49, 23.22, 21.59 a.u.

 SYSTEM =  unknown system                          
 POSCAR =   H  C                                   

 Startparameter for this run:
   NWRITE =      2    write-flag & timer
   PREC   = a         normal or accurate (medium, high low for compatibility)
   ISTART =      0    job   : 0-new  1-cont  2-samecut
   ICHARG =      2    charge: 1-file 2-atom 10-const
   ISPIN  =      1    spin polarized calculation?
   LNONCOLLINEAR =      F non collinear calculations
   LSORBIT =      F    spin-orbit coupling
   INIWAV =      1    electr: 0-lowe 1-rand  2-diag
   LASPH  =      F    aspherical Exc in radial PAW
   METAGGA=      F    non-selfconsistent MetaGGA calc.

 Electronic Relaxation 1
   ENCUT  =  400.0 eV  29.40 Ry    5.42 a.u.  16.16 16.35 16.07*2*pi/ulx,y,z
   ENINI  =  400.0     initial cutoff
   ENAUG  =  644.9 eV  augmentation charge cutoff
   NELM   =     60;   NELMIN=  2; NELMDL= -5     # of ELM steps 
   EDIFF  = 0.1E-05   stopping-criterion for ELM
   LREAL  =      T    real-space projection
   NLSPLINE    = F    spline interpolate recip. space projectors
   LCOMPAT=      F    compatible to vasp.4.4
   GGA_COMPAT  = T    GGA compatible to vasp.4.4-vasp.4.6
   LMAXPAW     = -100 max onsite density
   LMAXMIX     =    2 max onsite mixed and CHGCAR
   VOSKOWN=      0    Vosko Wilk Nusair interpolation
   ROPT   =    0.00000   0.00000
 Ionic relaxation
   EDIFFG = 0.1E-04   stopping-criterion for IOM
   NSW    =     10    number of steps for IOM
   NBLOCK =      1;   KBLOCK =      1    inner block; outer block 
   IBRION =      0    ionic relax: 0-MD 1-quasi-New 2-CG
   NFREE  =      0    steps in history (QN), initial steepest desc. (CG)
   ISIF   =      2    stress and relaxation
   IWAVPR =     12    prediction:  0-non 1-charg 2-wave 3-comb
   ISYM   =      0    0-nonsym 1-usesym 2-fastsym
   LCORR  =      T    Harris-Foulkes like correction to forces

   POTIM  = 2.0000    time-step for ionic-motion
   TEIN   =   50.0    initial temperature
   TEBEG  =   50.0;   TEEND  =  50.0 temperature during run
   SMASS  =   0.00    Nose mass-parameter (am)
   estimated Nose-frequenzy (Omega)   =  0.79E+14 period in steps = 40.00 mass=   0.123E-29a.u.
   SCALEE = 1.0000    scale energy and forces
   NPACO  =    256;   APACO  = 16.0  distance and # of slots for P.C.
   PSTRESS=    0.0 pullay stress

  Mass of Ions in am
   POMASS =   1.00 12.01
  Ionic Valenz
   ZVAL   =   1.00  4.00
  Atomic Wigner-Seitz radii
   RWIGS  =  -1.00 -1.00
  virtual crystal weights 
   VCA    =   1.00  1.00
   NELECT =       8.0000    total number of electrons
   NUPDOWN=      -1.0000    fix difference up-down

 DOS related values:
   EMIN   =  10.00;   EMAX   =-10.00  energy-range for DOS
   EFERMI =   0.00
   ISMEAR =     1;   SIGMA  =   0.20  broadening in eV -4-tet -1-fermi 0-gaus

 Electronic relaxation 2 (details)
   IALGO  =     68    algorithm
   LDIAG  =      T    sub-space diagonalisation (order eigenvalues)
   LSUBROT=      F    optimize rotation matrix (better conditioning)
   TURBO    =      0    0=normal 1=particle mesh
   IRESTART =      0    0=no restart 2=restart with 2 vectors
   NREBOOT  =      0    no. of reboots
   NMIN     =      0    reboot dimension
   EREF     =   0.00    reference energy to select bands
   IMIX   =      4    mixing-type and parameters
     AMIX     =   0.40;   BMIX     =  1.00
     AMIX_MAG =   1.60;   BMIX_MAG =  1.00
     AMIN     =   0.10
     WC   =   100.;   INIMIX=   1;  MIXPRE=   1;  MAXMIX=  50

 Intra band minimization:
   WEIMIN = 0.0010     energy-eigenvalue tresh-hold
   EBREAK =  0.31E-07  absolut break condition
   DEPER  =   0.30     relativ break condition  

   TIME   =   0.40     timestep for ELM

  volume/ion in A,a.u.               =     195.71      1320.68
  Fermi-wavevector in a.u.,A,eV,Ry     =   0.329798  0.623227  1.479857  0.108766
  Thomas-Fermi vector in A             =   1.224553

 Write flags
   LWAVE        =      F    write WAVECAR
   LDOWNSAMPLE  =      F    k-point downsampling of WAVECAR
   LCHARG       =      F    write CHGCAR
   LVTOT        =      F    write LOCPOT, total local potential
   LVHAR        =      F    write LOCPOT, Hartree potential only
   LELF         =      F    write electronic localiz. function (ELF)
   LORBIT       =      0    0 simple, 1 ext, 2 COOP (PROOUT), +10 PAW based schemes


 Dipole corrections
   LMONO  =      F    monopole corrections only (constant potential shift)
   LDIPOL =      F    correct potential (dipole corrections)
   IDIPOL =      0    1-x, 2-y, 3-z, 4-all directions 
   EPSILON=  1.0000000 bulk dielectric constant

 Exchange correlation treatment:
   GGA     =    --    GGA type
   LEXCH   =     8    internal setting for exchange type
   VOSKOWN=      0    Vosko Wilk Nusair interpolation
   LHFCALC =     F    Hartree Fock is set to
   LHFONE  =     F    Hartree Fock one center treatment
   AEXX    =    0.0000 exact exchange contribution

 Linear response parameters
   LEPSILON=     F    determine dielectric tensor
   LRPA    =     F    only Hartree local field effects (RPA)
   LNABLA  =     F    use nabla operator in PAW spheres
   LVEL    =     F    velocity operator in full k-point grid
   LINTERFAST=   F  fast interpolation
   KINTER  =     0    interpolate to denser k-point grid
   CSHIFT  =0.1000    complex shift for real part using Kramers Kronig
   OMEGAMAX=  -1.0    maximum frequency
   DEG_THRESHOLD= 0.2000000E-02 threshold for treating states as degnerate
   RTIME   =   -0.100 relaxation time in fs
  (WPLASMAI=    0.000 imaginary part of plasma frequency in eV, 0.658/RTIME)
   DFIELD  = 0.0000000 0.0000000 0.0000000 field for delta impulse in time

 Orbital magnetization related:
   ORBITALMAG=     F  switch on orbital magnetization
   LCHIMAG   =     F  perturbation theory with respect to B field
   DQ        =  0.001000  dq finite difference perturbation B field
   LLRAUG    =     F  two centre corrections for induced B field



--------------------------------------------------------------------------------------------------------


 molecular dynamics for ions
   using nose mass (canonical ensemble)
 charge density and potential will be updated during run
 non-spin polarized calculation
 RMM-DIIS sequential band-by-band and
  variant of blocked Davidson during initial phase
 perform sub-space diagonalisation
    before iterative eigenvector-optimisation
 modified Broyden-mixing scheme, WC =      100.0
 initial mixing is a Kerker type mixing with AMIX =  0.4000 and BMIX =      1.0000
 Hartree-type preconditioning will be used
 using additional bands            4
 real space projection scheme for non local part
 use partial core corrections
 calculate Harris-corrections to forces   (improved forces if not selfconsistent)
 use gradient corrections 
 use of overlap-Matrix (Vanderbilt PP)
 Methfessel and Paxton  Order N= 1 SIGMA  =   0.20


--------------------------------------------------------------------------------------------------------


  energy-cutoff  :      400.00
  volume of cell :      978.53
      direct lattice vectors                 reciprocal lattice vectors
     9.909768793  0.000000000  0.000000000     0.100910528  0.001849050  0.002283326
    -0.183643531 10.022209577  0.000000000    -0.000000000  0.099778396  0.002204983
    -0.218944710 -0.217727888  9.852475955     0.000000000 -0.000000000  0.101497330

  length of vectors
     9.909768793 10.023891947  9.857313257     0.100953292  0.099802757  0.101497330



 k-points in units of 2pi/SCALE and weight: read from INCAR                         
   0.02522763  0.02540686  0.02649641       0.250
  -0.02522763  0.02448234  0.02535475       0.250
   0.02522763 -0.02448234  0.02539392       0.250
  -0.02522763 -0.02540686  0.02425226       0.250

 k-points in reciprocal lattice and weights: read from INCAR                         
   0.25000000  0.25000000  0.25000000       0.250
  -0.25000000  0.25000000  0.25000000       0.250
   0.25000000 -0.25000000  0.25000000       0.250
  -0.25000000 -0.25000000  0.25000000       0.250

 position of ions in fractional coordinates (direct lattice) 
   0.53856385  0.40714928  0.36092180
   0.39377719  0.47991310  0.43869542
   0.55172512  0.56616685  0.44256442
   0.52858020  0.41634340  0.53892310
   0.50303321  0.46817787  0.44553611

 position of ions in cartesian coordinates  (Angst):
   5.18325096  4.00195269  3.55597332
   3.71805789  4.71427340  4.32223610
   5.26659838  5.57788424  4.36035528
   5.04365448  4.05534218  5.30972684
   4.80141720  4.59517113  4.38963385



--------------------------------------------------------------------------------------------------------


 k-point  1 :   0.2500 0.2500 0.2500  plane waves:   17759
 k-point  2 :  -0.2500 0.2500 0.2500  plane waves:   17776
 k-point  3 :   0.2500-0.2500 0.2500  plane waves:   17782
 k-point  4 :  -0.2500-0.2500 0.2500  plane waves:   17786

 maximum and minimum number of plane-waves per node :     17786    17759

 maximum number of plane-waves:     17786
 maximum index in each direction: 
   IXMAX=   16   IYMAX=   16   IZMAX=   15
   IXMIN=  -16   IYMIN=  -16   IZMIN=  -16


 serial   3D FFT for wavefunctions
 parallel 3D FFT for charge:
    minimum data exchange during FFTs selected (reduces bandwidth)


 total amount of memory used by VASP MPI-rank0   280683. kBytes
=======================================================================

   base      :      30000. kBytes
   nonlr-proj:        157. kBytes
   fftplans  :      86708. kBytes
   grid      :     154683. kBytes
   one-center:         15. kBytes
   wavefun   :       9120. kBytes

     INWAV:  cpu time    0.0000: real time    0.0000
 Broyden mixing: mesh for mixing (old mesh)
   NGX = 33   NGY = 33   NGZ = 33
  (NGX  =140   NGY  =140   NGZ  =128)
  gives a total of  35937 points

 initial charge density was supplied:
 charge density of overlapping atoms calculated
 number of electron       8.0000000 magnetization 
 keeping initial charge density in first step


--------------------------------------------------------------------------------------------------------


 Maximum index for non-local projection operator          695
 Maximum index for augmentation-charges         3662 (set IRDMAX)


--------------------------------------------------------------------------------------------------------


 First call to EWALD:  gamma=   0.179
 Maximum number of real-space cells 3x 3x 3
 Maximum number of reciprocal cells 3x 3x 3

    FEWALD:  cpu time    0.0007: real time    0.0007


--------------------------------------- Iteration      1(   1)  ---------------------------------------


    POTLOK:  cpu time    1.6160: real time    1.6199
    SETDIJ:  cpu time    0.0065: real time    0.0065
     EDDAV:  cpu time    2.1463: real time    2.1513
       DOS:  cpu time    0.0003: real time    0.0003
    --------------------------------------------
      LOOP:  cpu time    3.7690: real time    3.7781

 eigenvalue-minimisations  :    88
 total energy-change (2. order) : 0.2667620E+02  (-0.1947136E+03)
 number of electron       8.0000000 magnetization 
 augmentation part        8.0000000 magnetization 

 Free energy of the ion-electron system (eV)
  ---------------------------------------------------
  alpha Z        PSCENC =         0.24756704
  Ewald energy   TEWEN  =       129.07316621
  -Hartree energ DENC   =      -243.75604701
  -exchange      EXHF   =         0.00000000
  -V(xc)+E(xc)   XCENC  =        22.04053010
  PAW double counting   =       117.05815612     -117.66307307
  entropy T*S    EENTRO =        -0.03331509
  eigenvalues    EBANDS =       -77.33253644
  atomic energy  EATOM  =       197.04175453
  Solvation  Ediel_sol  =         0.00000000
  ---------------------------------------------------
  free energy    TOTEN  =        26.67620239 eV

  energy without entropy =       26.70951748  energy(sigma->0) =       26.68730742


--------------------------------------------------------------------------------------------------------




--------------------------------------- Iteration      1(   2)  ---------------------------------------


     EDDAV:  cpu time    2.0621: real time    2.0670
       DOS:  cpu time    0.0002: real time    0.0002
    --------------------------------------------
      LOOP:  cpu time    2.0623: real time    2.0673

 eigenvalue-minimisations  :    80
 total energy-change (2. order) :-0.4740679E+02  (-0.4199080E+02)
 number of electron       8.0000000 magnetization 
 augmentation part        8.0000000 magnetization 

 Free energy of the ion-electron system (eV)
  ---------------------------------------------------
  alpha Z        PSCENC =         0.24756704
  Ewald energy   TEWEN  =       129.07316621
  -Hartree energ DENC   =      -243.75604701
  -exchange      EXHF   =         0.00000000
  -V(xc)+E(xc)   XCENC  =        22.04053010
  PAW double counting   =       117.05815612     -117.66307307
  entropy T*S    EENTRO =         0.00551695
  eigenvalues    EBANDS =      -124.77815511
  atomic energy  EATOM  =       197.04175453
  Solvation  Ediel_sol  =         0.00000000
  ---------------------------------------------------
  free energy    TOTEN  =       -20.73058425 eV

  energy without entropy =      -20.73610119  energy(sigma->0) =      -20.73242323


--------------------------------------------------------------------------------------------------------




--------------------------------------- Iteration      1(   3)  ---------------------------------------


     EDDAV:  cpu time    1.7736: real time    1.7778
       DOS:  cpu time    0.0002: real time    0.0002
    --------------------------------------------
      LOOP:  cpu time    1.7738: real time    1.7780

 eigenvalue-minimisations  :    64
 total energy-change (2. order) :-0.6586354E+01  (-0.6593586E+01)
 number of electron       8.0000000 magnetization 
 augmentation part        8.0000000 magnetization 

 Free energy of the ion-electron system (eV)
  ---------------------------------------------------
  alpha Z        PSCENC =         0.24756704
  Ewald energy   TEWEN  =       129.07316621
  -Hartree energ DENC   =      -243.75604701
  -exchange      EXHF   =         0.00000000
  -V(xc)+E(xc)   XCENC  =        22.04053010
  PAW double counting   =       117.05815612     -117.66307307
  entropy T*S    EENTRO =         0.01831182
  eigenvalues    EBANDS =      -131.37730374
  atomic energy  EATOM  =       197.04175453
  Solvation  Ediel_sol  =         0.00000000
  ---------------------------------------------------
  free energy    TOTEN  =       -27.31693799 eV

  energy without entropy =      -27.33524982  energy(sigma->0) =      -27.32304193


--------------------------------------------------------------------------------------------------------




--------------------------------------- Iteration      1(   4)  ---------------------------------------


     EDDAV:  cpu time    3.2068: real time    3.2144
       DOS:  cpu time    0.0002: real time    0.0002
    --------------------------------------------
      LOOP:  cpu time    3.2070: real time    3.2146

 eigenvalue-minimisations  :   128
 total energy-change (2. order) :-0.2757459E+00  (-0.2757986E+00)
 number of electron       8.0000000 magnetization 
 augmentation part        8.0000000 magnetization 

 Free energy of the ion-electron system (eV)
  ---------------------------------------------------
  alpha Z        PSCENC =         0.24756704
  Ewald energy   TEWEN  =       129.07316621
  -Hartree energ DENC   =      -243.75604701
  -exchange      EXHF   =         0.00000000
  -V(xc)+E(xc)   XCENC  =        22.04053010
  PAW double counting   =       117.05815612     -117.66307307
  entropy T*S    EENTRO =         0.01706028
  eigenvalues    EBANDS =      -131.65179810
  atomic energy  EATOM  =       197.04175453
  Solvation  Ediel_sol  =         0.00000000
  ---------------------------------------------------
  free energy    TOTEN  =       -27.59268390 eV

  energy without entropy =      -27.60974418  energy(sigma->0) =      -27.59837066


--------------------------------------------------------------------------------------------------------




--------------------------------------- Iteration      1(   5)  ---------------------------------------


     EDDAV:  cpu time    2.6635: real time    2.6698
       DOS:  cpu time    0.0002: real time    0.0002
    CHARGE:  cpu time    0.1779: real time    0.1783
    MIXING:  cpu time    0.0401: real time    0.0402
    --------------------------------------------
      LOOP:  cpu time    2.8817: real time    2.8885

 eigenvalue-minimisations  :   104
 total energy-change (2. order) :-0.9146491E-04  (-0.9146391E-04)
 number of electron       8.0000002 magnetization 
 augmentation part        0.2270286 magnetization 

 Broyden mixing:
  rms(total) = 0.88938E+00    rms(broyden)= 0.88920E+00
  rms(prec ) = 0.12601E+01
  weight for this iteration     100.00

 Free energy of the ion-electron system (eV)
  ---------------------------------------------------
  alpha Z        PSCENC =         0.24756704
  Ewald energy   TEWEN  =       129.07316621
  -Hartree energ DENC   =      -243.75604701
  -exchange      EXHF   =         0.00000000
  -V(xc)+E(xc)   XCENC  =        22.04053010
  PAW double counting   =       117.05815612     -117.66307307
  entropy T*S    EENTRO =         0.01705972
  eigenvalues    EBANDS =      -131.65188901
  atomic energy  EATOM  =       197.04175453
  Solvation  Ediel_sol  =         0.00000000
  ---------------------------------------------------
  free energy    TOTEN  =       -27.59277537 eV

  energy without entropy =      -27.60983508  energy(sigma->0) =      -27.59846194


--------------------------------------------------------------------------------------------------------




--------------------------------------- Iteration      1(   6)  ---------------------------------------


    POTLOK:  cpu time    1.7111: real time    1.7152
    SETDIJ:  cpu time    0.0066: real time    0.0066
    EDDIAG:  cpu time    0.3712: real time    0.3721
  RMM-DIIS:  cpu time    1.3203: real time    1.3235
    ORTHCH:  cpu time    0.0118: real time    0.0118
       DOS:  cpu time    0.0002: real time    0.0002
    CHARGE:  cpu time    0.1571: real time    0.1575
    MIXING:  cpu time    0.0398: real time    0.0399
    --------------------------------------------
      LOOP:  cpu time    3.6182: real time    3.6268

 eigenvalue-minimisations  :    64
 total energy-change (2. order) : 0.2956408E+01  (-0.5515814E+00)
 number of electron       8.0000002 magnetization 
 augmentation part        0.2000137 magnetization 

 Broyden mixing:
  rms(total) = 0.44331E+00    rms(broyden)= 0.44324E+00
  rms(prec ) = 0.57294E+00
  weight for this iteration     100.00

 eigenvalues of (default mixing * dielectric matrix)
  average eigenvalue GAMMA=   1.3167
  1.3167

 Free energy of the ion-electron system (eV)
  ---------------------------------------------------
  alpha Z        PSCENC =         0.24756704
  Ewald energy   TEWEN  =       129.07316621
  -Hartree energ DENC   =      -263.70021452
  -exchange      EXHF   =         0.00000000
  -V(xc)+E(xc)   XCENC  =        23.25068081
  PAW double counting   =       245.70871194     -246.49222008
  entropy T*S    EENTRO =         0.01828601
  eigenvalues    EBANDS =      -109.78409899
  atomic energy  EATOM  =       197.04175453
  Solvation  Ediel_sol  =         0.00000000
  ---------------------------------------------------
  free energy    TOTEN  =       -24.63636706 eV

  energy without entropy =      -24.65465307  energy(sigma->0) =      -24.64246239


--------------------------------------------------------------------------------------------------------




--------------------------------------- Iteration      1(   7)  ---------------------------------------


    POTLOK:  cpu time    1.6966: real time    1.7006
    SETDIJ:  cpu time    0.0065: real time    0.0065
    EDDIAG:  cpu time    0.3724: real time    0.3733
  RMM-DIIS:  cpu time    1.2794: real time    1.2825
    ORTHCH:  cpu time    0.0122: real time    0.0122
       DOS:  cpu time    0.0002: real time    0.0002
    CHARGE:  cpu time    0.1633: real time    0.1637
    MIXING:  cpu time    0.0416: real time    0.0417
    --------------------------------------------
      LOOP:  cpu time    3.5723: real time    3.5807

 eigenvalue-minimisations  :    64
 total energy-change (2. order) : 0.5058236E+00  (-0.1280566E+00)
 number of electron       8.0000002 magnetization 
 augmentation part        0.1892268 magnetization 

 Broyden mixing:
  rms(total) = 0.23499E+00    rms(broyden)= 0.23494E+00
  rms(prec ) = 0.28252E+00
  weight for this iteration     100.00

 eigenvalues of (default mixing * dielectric matrix)
  average eigenvalue GAMMA=   1.8501
  1.4613  2.2389

 Free energy of the ion-electron system (eV)
  ---------------------------------------------------
  alpha Z        PSCENC =         0.24756704
  Ewald energy   TEWEN  =       129.07316621
  -Hartree energ DENC   =      -275.63008729
  -exchange      EXHF   =         0.00000000
  -V(xc)+E(xc)   XCENC  =        24.12540953
  PAW double counting   =       383.95913193     -384.78441289
  entropy T*S    EENTRO =         0.02004886
  eigenvalues    EBANDS =       -98.18312138
  atomic energy  EATOM  =       197.04175453
  Solvation  Ediel_sol  =         0.00000000
  ---------------------------------------------------
  free energy    TOTEN  =       -24.13054346 eV

  energy without entropy =      -24.15059232  energy(sigma->0) =      -24.13722642


--------------------------------------------------------------------------------------------------------




--------------------------------------- Iteration      1(   8)  ---------------------------------------


    POTLOK:  cpu time    1.7146: real time    1.7187
    SETDIJ:  cpu time    0.0065: real time    0.0065
    EDDIAG:  cpu time    0.3711: real time    0.3720
  RMM-DIIS:  cpu time    1.2794: real time    1.2824
    ORTHCH:  cpu time    0.0114: real time    0.0114
       DOS:  cpu time    0.0002: real time    0.0002
    CHARGE:  cpu time    0.1663: real time    0.1667
    MIXING:  cpu time    0.0416: real time    0.0417
    --------------------------------------------
      LOOP:  cpu time    3.5911: real time    3.5996

 eigenvalue-minimisations  :    64
 total energy-change (2. order) : 0.1471631E+00  (-0.1630152E-01)
 number of electron       8.0000002 magnetization 
 augmentation part        0.1878552 magnetization 

 Broyden mixing:
  rms(total) = 0.22916E-01    rms(broyden)= 0.22896E-01
  rms(prec ) = 0.53259E-01
  weight for this iteration     100.00

 eigenvalues of (default mixing * dielectric matrix)
  average eigenvalue GAMMA=   1.5571
  2.2545  1.0048  1.4121

 Free energy of the ion-electron system (eV)
  ---------------------------------------------------
  alpha Z        PSCENC =         0.24756704
  Ewald energy   TEWEN  =       129.07316621
  -Hartree energ DENC   =      -281.02536501
  -exchange      EXHF   =         0.00000000
  -V(xc)+E(xc)   XCENC  =        24.66137305
  PAW double counting   =       503.39040621     -504.18345589
  entropy T*S    EENTRO =         0.02227062
  eigenvalues    EBANDS =       -93.21109707
  atomic energy  EATOM  =       197.04175453
  Solvation  Ediel_sol  =         0.00000000
  ---------------------------------------------------
  free energy    TOTEN  =       -23.98338032 eV

  energy without entropy =      -24.00565094  energy(sigma->0) =      -23.99080386


--------------------------------------------------------------------------------------------------------




--------------------------------------- Iteration      1(   9)  ---------------------------------------


    POTLOK:  cpu time    1.7122: real time    1.7163
    SETDIJ:  cpu time    0.0066: real time    0.0066
    EDDIAG:  cpu time    0.3768: real time    0.3777
  RMM-DIIS:  cpu time    1.2752: real time    1.2783
    ORTHCH:  cpu time    0.0115: real time    0.0115
       DOS:  cpu time    0.0002: real time    0.0002
    CHARGE:  cpu time    0.1546: real time    0.1550
    MIXING:  cpu time    0.0409: real time    0.0410
    --------------------------------------------
      LOOP:  cpu time    3.5780: real time    3.5865

 eigenvalue-minimisations  :    64
 total energy-change (2. order) : 0.5540603E-02  (-0.1103039E-02)
 number of electron       8.0000002 magnetization 
 augmentation part        0.1872902 magnetization 

 Broyden mixing:
  rms(total) = 0.19902E-01    rms(broyden)= 0.19899E-01
  rms(prec ) = 0.40988E-01
  weight for this iteration     100.00

 eigenvalues of (default mixing * dielectric matrix)
  average eigenvalue GAMMA=   2.1147
  3.2514  2.8233  1.0005  1.3835

 Free energy of the ion-electron system (eV)
  ---------------------------------------------------
  alpha Z        PSCENC =         0.24756704
  Ewald energy   TEWEN  =       129.07316621
  -Hartree energ DENC   =      -282.27418296
  -exchange      EXHF   =         0.00000000
  -V(xc)+E(xc)   XCENC  =        24.73008411
  PAW double counting   =       507.02570554     -507.82143244
  entropy T*S    EENTRO =         0.02273768
  eigenvalues    EBANDS =       -92.02323943
  atomic energy  EATOM  =       197.04175453
  Solvation  Ediel_sol  =         0.00000000
  ---------------------------------------------------
  free energy    TOTEN  =       -23.97783971 eV

  energy without entropy =      -24.00057740  energy(sigma->0) =      -23.98541894


--------------------------------------------------------------------------------------------------------




--------------------------------------- Iteration      1(  10)  ---------------------------------------


    POTLOK:  cpu time    1.6327: real time    1.6367
    SETDIJ:  cpu time    0.0067: real time    0.0067
    EDDIAG:  cpu time    0.3856: real time    0.3866
  RMM-DIIS:  cpu time    1.2673: real time    1.2703
    ORTHCH:  cpu time    0.0111: real time    0.0111
       DOS:  cpu time    0.0002: real time    0.0002
    CHARGE:  cpu time    0.1534: real time    0.1538
    MIXING:  cpu time    0.0414: real time    0.0415
    --------------------------------------------
      LOOP:  cpu time    3.4984: real time    3.5068

 eigenvalue-minimisations  :    64
 total energy-change (2. order) : 0.6053571E-02  (-0.2424966E-02)
 number of electron       8.0000001 magnetization 
 augmentation part        0.1862449 magnetization 

 Broyden mixing:
  rms(total) = 0.28178E-01    rms(broyden)= 0.28177E-01
  rms(prec ) = 0.35764E-01
  weight for this iteration     100.00

 eigenvalues of (default mixing * dielectric matrix)
  average eigenvalue GAMMA=   1.7824
  3.0983  2.4555  1.1948  1.1948  0.9688

 Free energy of the ion-electron system (eV)
  ---------------------------------------------------
  alpha Z        PSCENC =         0.24756704
  Ewald energy   TEWEN  =       129.07316621
  -Hartree energ DENC   =      -284.48056689
  -exchange      EXHF   =         0.00000000
  -V(xc)+E(xc)   XCENC  =        24.80012496
  PAW double counting   =       489.90431244     -490.70360365
  entropy T*S    EENTRO =         0.02384386
  eigenvalues    EBANDS =       -89.87838463
  atomic energy  EATOM  =       197.04175453
  Solvation  Ediel_sol  =         0.00000000
  ---------------------------------------------------
  free energy    TOTEN  =       -23.97178614 eV

  energy without entropy =      -23.99563000  energy(sigma->0) =      -23.97973409


--------------------------------------------------------------------------------------------------------




--------------------------------------- Iteration      1(  11)  ---------------------------------------


    POTLOK:  cpu time    1.6259: real time    1.6298
    SETDIJ:  cpu time    0.0065: real time    0.0065
    EDDIAG:  cpu time    0.3924: real time    0.3933
  RMM-DIIS:  cpu time    1.2906: real time    1.2936
    ORTHCH:  cpu time    0.0114: real time    0.0114
       DOS:  cpu time    0.0002: real time    0.0002
    CHARGE:  cpu time    0.1519: real time    0.1522
    MIXING:  cpu time    0.0439: real time    0.0440
    --------------------------------------------
      LOOP:  cpu time    3.5227: real time    3.5311

 eigenvalue-minimisations  :    64
 total energy-change (2. order) :-0.5099679E-03  (-0.6326326E-03)
 number of electron       8.0000002 magnetization 
 augmentation part        0.1865555 magnetization 

 Broyden mixing:
  rms(total) = 0.61086E-02    rms(broyden)= 0.61057E-02
  rms(prec ) = 0.12658E-01
  weight for this iteration     100.00

 eigenvalues of (default mixing * dielectric matrix)
  average eigenvalue GAMMA=   2.2655
  4.7230  3.1332  2.4232  1.3052  1.0041  1.0041

 Free energy of the ion-electron system (eV)
  ---------------------------------------------------
  alpha Z        PSCENC =         0.24756704
  Ewald energy   TEWEN  =       129.07316621
  -Hartree energ DENC   =      -284.37484891
  -exchange      EXHF   =         0.00000000
  -V(xc)+E(xc)   XCENC  =        24.81277237
  PAW double counting   =       499.22500708     -500.01740840
  entropy T*S    EENTRO =         0.02394961
  eigenvalues    EBANDS =       -90.00425563
  atomic energy  EATOM  =       197.04175453
  Solvation  Ediel_sol  =         0.00000000
  ---------------------------------------------------
  free energy    TOTEN  =       -23.97229611 eV

  energy without entropy =      -23.99624572  energy(sigma->0) =      -23.98027931


--------------------------------------------------------------------------------------------------------




--------------------------------------- Iteration      1(  12)  ---------------------------------------


    POTLOK:  cpu time    1.4819: real time    1.4854
    SETDIJ:  cpu time    0.0065: real time    0.0065
    EDDIAG:  cpu time    0.3781: real time    0.3790
  RMM-DIIS:  cpu time    1.3694: real time    1.3726
    ORTHCH:  cpu time    0.0112: real time    0.0112
       DOS:  cpu time    0.0002: real time    0.0002
    CHARGE:  cpu time    0.1575: real time    0.1579
    MIXING:  cpu time    0.0433: real time    0.0434
    --------------------------------------------
      LOOP:  cpu time    3.4481: real time    3.4563

 eigenvalue-minimisations  :    64
 total energy-change (2. order) :-0.1000883E-01  (-0.4778593E-03)
 number of electron       8.0000002 magnetization 
 augmentation part        0.1868473 magnetization 

 Broyden mixing:
  rms(total) = 0.13174E-01    rms(broyden)= 0.13173E-01
  rms(prec ) = 0.17239E-01
  weight for this iteration     100.00

 eigenvalues of (default mixing * dielectric matrix)
  average eigenvalue GAMMA=   2.0189
  4.7906  2.9056  2.4354  1.2401  0.9944  0.9944  0.7720

 Free energy of the ion-electron system (eV)
  ---------------------------------------------------
  alpha Z        PSCENC =         0.24756704
  Ewald energy   TEWEN  =       129.07316621
  -Hartree energ DENC   =      -284.54043014
  -exchange      EXHF   =         0.00000000
  -V(xc)+E(xc)   XCENC  =        24.80487023
  PAW double counting   =       496.85585549     -497.64615328
  entropy T*S    EENTRO =         0.02412015
  eigenvalues    EBANDS =       -89.84305516
  atomic energy  EATOM  =       197.04175453
  Solvation  Ediel_sol  =         0.00000000
  ---------------------------------------------------
  free energy    TOTEN  =       -23.98230494 eV

  energy without entropy =      -24.00642509  energy(sigma->0) =      -23.99034499


--------------------------------------------------------------------------------------------------------




--------------------------------------- Iteration      1(  13)  ---------------------------------------


    POTLOK:  cpu time    1.4777: real time    1.4812
    SETDIJ:  cpu time    0.0064: real time    0.0064
    EDDIAG:  cpu time    0.3788: real time    0.3797
  RMM-DIIS:  cpu time    1.3793: real time    1.3826
    ORTHCH:  cpu time    0.0114: real time    0.0114
       DOS:  cpu time    0.0002: real time    0.0002
    CHARGE:  cpu time    0.1651: real time    0.1654
    MIXING:  cpu time    0.0474: real time    0.0475
    --------------------------------------------
      LOOP:  cpu time    3.4663: real time    3.4745

 eigenvalue-minimisations  :    64
 total energy-change (2. order) :-0.3252680E-03  (-0.8557598E-04)
 number of electron       8.0000002 magnetization 
 augmentation part        0.1866275 magnetization 

 Broyden mixing:
  rms(total) = 0.61480E-02    rms(broyden)= 0.61479E-02
  rms(prec ) = 0.81063E-02
  weight for this iteration     100.00

 eigenvalues of (default mixing * dielectric matrix)
  average eigenvalue GAMMA=   2.2693
  5.5854  3.6270  2.4988  2.0410  1.2640  1.2640  0.8893  0.9851

 Free energy of the ion-electron system (eV)
  ---------------------------------------------------
  alpha Z        PSCENC =         0.24756704
  Ewald energy   TEWEN  =       129.07316621
  -Hartree energ DENC   =      -284.74006695
  -exchange      EXHF   =         0.00000000
  -V(xc)+E(xc)   XCENC  =        24.81139434
  PAW double counting   =       496.77036167     -497.56306493
  entropy T*S    EENTRO =         0.02414295
  eigenvalues    EBANDS =       -89.64788506
  atomic energy  EATOM  =       197.04175453
  Solvation  Ediel_sol  =         0.00000000
  ---------------------------------------------------
  free energy    TOTEN  =       -23.98263021 eV

  energy without entropy =      -24.00677315  energy(sigma->0) =      -23.99067786


--------------------------------------------------------------------------------------------------------




--------------------------------------- Iteration      1(  14)  ---------------------------------------


    POTLOK:  cpu time    1.4678: real time    1.4713
    SETDIJ:  cpu time    0.0065: real time    0.0065
    EDDIAG:  cpu time    0.3735: real time    0.3744
  RMM-DIIS:  cpu time    1.3372: real time    1.3403
    ORTHCH:  cpu time    0.0116: real time    0.0116
       DOS:  cpu time    0.0002: real time    0.0002
    CHARGE:  cpu time    0.1706: real time    0.1710
    MIXING:  cpu time    0.0488: real time    0.0489
    --------------------------------------------
      LOOP:  cpu time    3.4162: real time    3.4243

 eigenvalue-minimisations  :    64
 total energy-change (2. order) :-0.2694337E-02  (-0.1713579E-03)
 number of electron       8.0000001 magnetization 
 augmentation part        0.1864294 magnetization 

 Broyden mixing:
  rms(total) = 0.33592E-02    rms(broyden)= 0.33572E-02
  rms(prec ) = 0.45317E-02
  weight for this iteration     100.00

 eigenvalues of (default mixing * dielectric matrix)
  average eigenvalue GAMMA=   2.3404
  6.4374  4.1890  2.4422  2.4422  1.2516  1.2516  1.1405  0.9999  0.9097

 Free energy of the ion-electron system (eV)
  ---------------------------------------------------
  alpha Z        PSCENC =         0.24756704
  Ewald energy   TEWEN  =       129.07316621
  -Hartree energ DENC   =      -284.79656065
  -exchange      EXHF   =         0.00000000
  -V(xc)+E(xc)   XCENC  =        24.80451970
  PAW double counting   =       495.92631421     -496.72098581
  entropy T*S    EENTRO =         0.02409623
  eigenvalues    EBANDS =       -89.58519601
  atomic energy  EATOM  =       197.04175453
  Solvation  Ediel_sol  =         0.00000000
  ---------------------------------------------------
  free energy    TOTEN  =       -23.98532454 eV

  energy without entropy =      -24.00942078  energy(sigma->0) =      -23.99335662


--------------------------------------------------------------------------------------------------------




--------------------------------------- Iteration      1(  15)  ---------------------------------------


    POTLOK:  cpu time    1.4835: real time    1.4870
    SETDIJ:  cpu time    0.0064: real time    0.0064
    EDDIAG:  cpu time    0.3648: real time    0.3656
  RMM-DIIS:  cpu time    1.3219: real time    1.3251
    ORTHCH:  cpu time    0.0118: real time    0.0118
       DOS:  cpu time    0.0002: real time    0.0002
    CHARGE:  cpu time    0.1782: real time    0.1786
    MIXING:  cpu time    0.0501: real time    0.0502
    --------------------------------------------
      LOOP:  cpu time    3.4169: real time    3.4250

 eigenvalue-minimisations  :    64
 total energy-change (2. order) :-0.3524167E-03  (-0.1208212E-04)
 number of electron       8.0000001 magnetization 
 augmentation part        0.1864332 magnetization 

 Broyden mixing:
  rms(total) = 0.14595E-02    rms(broyden)= 0.14593E-02
  rms(prec ) = 0.18808E-02
  weight for this iteration     100.00

 eigenvalues of (default mixing * dielectric matrix)
  average eigenvalue GAMMA=   2.4302
  6.9876  4.7007  2.8227  2.4854  1.5890  1.3960  1.3960  1.0217  1.0217  0.8812

 Free energy of the ion-electron system (eV)
  ---------------------------------------------------
  alpha Z        PSCENC =         0.24756704
  Ewald energy   TEWEN  =       129.07316621
  -Hartree energ DENC   =      -284.71555601
  -exchange      EXHF   =         0.00000000
  -V(xc)+E(xc)   XCENC  =        24.80002269
  PAW double counting   =       495.85319739     -496.64691406
  entropy T*S    EENTRO =         0.02406039
  eigenvalues    EBANDS =       -89.66297515
  atomic energy  EATOM  =       197.04175453
  Solvation  Ediel_sol  =         0.00000000
  ---------------------------------------------------
  free energy    TOTEN  =       -23.98567696 eV

  energy without entropy =      -24.00973735  energy(sigma->0) =      -23.99369709


--------------------------------------------------------------------------------------------------------




--------------------------------------- Iteration      1(  16)  ---------------------------------------


    POTLOK:  cpu time    1.5205: real time    1.5241
    SETDIJ:  cpu time    0.0065: real time    0.0066
    EDDIAG:  cpu time    0.3849: real time    0.3858
  RMM-DIIS:  cpu time    1.3096: real time    1.3127
    ORTHCH:  cpu time    0.0124: real time    0.0125
       DOS:  cpu time    0.0002: real time    0.0002
    CHARGE:  cpu time    0.1715: real time    0.1719
    MIXING:  cpu time    0.0480: real time    0.0481
    --------------------------------------------
      LOOP:  cpu time    3.4536: real time    3.4618

 eigenvalue-minimisations  :    64
 total energy-change (2. order) :-0.1716210E-03  (-0.2187780E-05)
 number of electron       8.0000001 magnetization 
 augmentation part        0.1864429 magnetization 

 Broyden mixing:
  rms(total) = 0.58175E-03    rms(broyden)= 0.58169E-03
  rms(prec ) = 0.74253E-03
  weight for this iteration     100.00

 eigenvalues of (default mixing * dielectric matrix)
  average eigenvalue GAMMA=   2.5843
  8.0307  4.8589  3.8030  2.4651  2.4651  1.2816  1.2816  0.9066  0.9754  1.0562
  1.3033

 Free energy of the ion-electron system (eV)
  ---------------------------------------------------
  alpha Z        PSCENC =         0.24756704
  Ewald energy   TEWEN  =       129.07316621
  -Hartree energ DENC   =      -284.72369812
  -exchange      EXHF   =         0.00000000
  -V(xc)+E(xc)   XCENC  =        24.80094178
  PAW double counting   =       495.87429866     -496.66784006
  entropy T*S    EENTRO =         0.02404698
  eigenvalues    EBANDS =       -89.65608560
  atomic energy  EATOM  =       197.04175453
  Solvation  Ediel_sol  =         0.00000000
  ---------------------------------------------------
  free energy    TOTEN  =       -23.98584858 eV

  energy without entropy =      -24.00989556  energy(sigma->0) =      -23.99386424


--------------------------------------------------------------------------------------------------------




--------------------------------------- Iteration      1(  17)  ---------------------------------------


    POTLOK:  cpu time    1.5637: real time    1.5674
    SETDIJ:  cpu time    0.0065: real time    0.0065
    EDDIAG:  cpu time    0.3820: real time    0.3829
  RMM-DIIS:  cpu time    1.3650: real time    1.3682
    ORTHCH:  cpu time    0.0114: real time    0.0114
       DOS:  cpu time    0.0003: real time    0.0003
    CHARGE:  cpu time    0.1570: real time    0.1574
    MIXING:  cpu time    0.0491: real time    0.0493
    --------------------------------------------
      LOOP:  cpu time    3.5351: real time    3.5434

 eigenvalue-minimisations  :    64
 total energy-change (2. order) :-0.5925181E-04  (-0.9926008E-06)
 number of electron       8.0000002 magnetization 
 augmentation part        0.1864515 magnetization 

 Broyden mixing:
  rms(total) = 0.24661E-03    rms(broyden)= 0.24640E-03
  rms(prec ) = 0.30351E-03
  weight for this iteration     100.00

 eigenvalues of (default mixing * dielectric matrix)
  average eigenvalue GAMMA=   2.5458
  8.2288  5.2355  3.6054  2.5512  2.3048  1.8999  1.3479  1.3479  1.1450  1.0133
  0.9349  0.9349

 Free energy of the ion-electron system (eV)
  ---------------------------------------------------
  alpha Z        PSCENC =         0.24756704
  Ewald energy   TEWEN  =       129.07316621
  -Hartree energ DENC   =      -284.73596868
  -exchange      EXHF   =         0.00000000
  -V(xc)+E(xc)   XCENC  =        24.80221185
  PAW double counting   =       495.98907976     -496.78248455
  entropy T*S    EENTRO =         0.02404979
  eigenvalues    EBANDS =       -89.64528378
  atomic energy  EATOM  =       197.04175453
  Solvation  Ediel_sol  =         0.00000000
  ---------------------------------------------------
  free energy    TOTEN  =       -23.98590783 eV

  energy without entropy =      -24.00995762  energy(sigma->0) =      -23.99392443


--------------------------------------------------------------------------------------------------------




--------------------------------------- Iteration      1(  18)  ---------------------------------------


    POTLOK:  cpu time    1.5840: real time    1.5878
    SETDIJ:  cpu time    0.0065: real time    0.0065
    EDDIAG:  cpu time    0.3812: real time    0.3821
  RMM-DIIS:  cpu time    1.2874: real time    1.2904
    ORTHCH:  cpu time    0.0115: real time    0.0115
       DOS:  cpu time    0.0002: real time    0.0002
    CHARGE:  cpu time    0.1662: real time    0.1666
    MIXING:  cpu time    0.0518: real time    0.0519
    --------------------------------------------
      LOOP:  cpu time    3.4888: real time    3.4970

 eigenvalue-minimisations  :    60
 total energy-change (2. order) :-0.1067186E-04  (-0.5257610E-06)
 number of electron       8.0000002 magnetization 
 augmentation part        0.1864729 magnetization 

 Broyden mixing:
  rms(total) = 0.48704E-03    rms(broyden)= 0.48696E-03
  rms(prec ) = 0.64944E-03
  weight for this iteration     100.00

 eigenvalues of (default mixing * dielectric matrix)
  average eigenvalue GAMMA=   2.4970
  8.2921  5.1821  4.0152  2.5791  2.5791  2.0818  1.3037  1.3037  1.2368  0.8927
  0.9940  1.0003  1.0003

 Free energy of the ion-electron system (eV)
  ---------------------------------------------------
  alpha Z        PSCENC =         0.24756704
  Ewald energy   TEWEN  =       129.07316621
  -Hartree energ DENC   =      -284.72175207
  -exchange      EXHF   =         0.00000000
  -V(xc)+E(xc)   XCENC  =        24.80127740
  PAW double counting   =       495.91966880     -496.71299519
  entropy T*S    EENTRO =         0.02404821
  eigenvalues    EBANDS =       -89.65865344
  atomic energy  EATOM  =       197.04175453
  Solvation  Ediel_sol  =         0.00000000
  ---------------------------------------------------
  free energy    TOTEN  =       -23.98591851 eV

  energy without entropy =      -24.00996672  energy(sigma->0) =      -23.99393458


--------------------------------------------------------------------------------------------------------




--------------------------------------- Iteration      1(  19)  ---------------------------------------


    POTLOK:  cpu time    1.6244: real time    1.6284
    SETDIJ:  cpu time    0.0065: real time    0.0065
    EDDIAG:  cpu time    0.3757: real time    0.3766
  RMM-DIIS:  cpu time    1.3684: real time    1.3716
    ORTHCH:  cpu time    0.0121: real time    0.0122
       DOS:  cpu time    0.0002: real time    0.0002
    CHARGE:  cpu time    0.1740: real time    0.1745
    MIXING:  cpu time    0.0532: real time    0.0533
    --------------------------------------------
      LOOP:  cpu time    3.6146: real time    3.6233

 eigenvalue-minimisations  :    64
 total energy-change (2. order) :-0.2848852E-05  (-0.6301515E-06)
 number of electron       8.0000002 magnetization 
 augmentation part        0.1864536 magnetization 

 Broyden mixing:
  rms(total) = 0.10204E-03    rms(broyden)= 0.10193E-03
  rms(prec ) = 0.14261E-03
  weight for this iteration     100.00

 eigenvalues of (default mixing * dielectric matrix)
  average eigenvalue GAMMA=   2.4854
  8.4226  5.2891  4.1639  3.0403  2.4678  2.0426  1.7155  1.2972  1.2972  1.3015
  0.9936  0.9501  0.9501  0.8639

 Free energy of the ion-electron system (eV)
  ---------------------------------------------------
  alpha Z        PSCENC =         0.24756704
  Ewald energy   TEWEN  =       129.07316621
  -Hartree energ DENC   =      -284.73678953
  -exchange      EXHF   =         0.00000000
  -V(xc)+E(xc)   XCENC  =        24.80186820
  PAW double counting   =       495.90749436     -496.70100933
  entropy T*S    EENTRO =         0.02405007
  eigenvalues    EBANDS =       -89.64402290
  atomic energy  EATOM  =       197.04175453
  Solvation  Ediel_sol  =         0.00000000
  ---------------------------------------------------
  free energy    TOTEN  =       -23.98592135 eV

  energy without entropy =      -24.00997142  energy(sigma->0) =      -23.99393804


--------------------------------------------------------------------------------------------------------




--------------------------------------- Iteration      1(  20)  ---------------------------------------


    POTLOK:  cpu time    1.6332: real time    1.6370
    SETDIJ:  cpu time    0.0064: real time    0.0064
    EDDIAG:  cpu time    0.3640: real time    0.3649
  RMM-DIIS:  cpu time    1.0628: real time    1.0654
    ORTHCH:  cpu time    0.0124: real time    0.0124
       DOS:  cpu time    0.0002: real time    0.0002
    --------------------------------------------
      LOOP:  cpu time    3.0790: real time    3.0863

 eigenvalue-minimisations  :    48
 total energy-change (2. order) :-0.8138414E-06  (-0.1255087E-07)
 number of electron       8.0000002 magnetization 
 augmentation part        0.1864536 magnetization 

 Free energy of the ion-electron system (eV)
  ---------------------------------------------------
  alpha Z        PSCENC =         0.24756704
  Ewald energy   TEWEN  =       129.07316621
  -Hartree energ DENC   =      -284.73484779
  -exchange      EXHF   =         0.00000000
  -V(xc)+E(xc)   XCENC  =        24.80177170
  PAW double counting   =       495.89969281     -496.69319276
  entropy T*S    EENTRO =         0.02404993
  eigenvalues    EBANDS =       -89.64588383
  atomic energy  EATOM  =       197.04175453
  Solvation  Ediel_sol  =         0.00000000
  ---------------------------------------------------
  free energy    TOTEN  =       -23.98592217 eV

  energy without entropy =      -24.00997209  energy(sigma->0) =      -23.99393881


--------------------------------------------------------------------------------------------------------




 average (electrostatic) potential at core
  the test charge radii are     0.5201  0.6991
  (the norm of the test charge is              1.0000)
       1 -41.5103       2 -41.4476       3 -41.5793       4 -41.5574       5 -57.9244



 E-fermi :  -8.9943     XC(G=0):  -0.7139     alpha+bet : -0.2153


 k-point     1 :       0.2500    0.2500    0.2500
  band No.  band energies     occupation 
      1     -16.9150      2.00000
      2      -9.4342      2.00796
      3      -9.3249      2.04128
      4      -9.1437      1.95052
      5      -0.2994      0.00000
      6       0.5667      0.00000
      7       0.6657      0.00000
      8       0.6913      0.00000

 k-point     2 :      -0.2500    0.2500    0.2500
  band No.  band energies     occupation 
      1     -16.9150      2.00000
      2      -9.4342      2.00796
      3      -9.3250      2.04120
      4      -9.1438      1.95081
      5      -0.3077      0.00000
      6       0.5750      0.00000
      7       0.6850      0.00000
      8       0.7162      0.00000

 k-point     3 :       0.2500   -0.2500    0.2500
  band No.  band energies     occupation 
      1     -16.9150      2.00000
      2      -9.4343      2.00795
      3      -9.3250      2.04121
      4      -9.1438      1.95090
      5      -0.3075      0.00000
      6       0.5779      0.00000
      7       0.6864      0.00000
      8       0.7125      0.00000

 k-point     4 :      -0.2500   -0.2500    0.2500
  band No.  band energies     occupation 
      1     -16.9150      2.00000
      2      -9.4343      2.00796
      3      -9.3251      2.04119
      4      -9.1439      1.95107
      5      -0.3084      0.00000
      6       0.5804      0.00000
      7       0.6827      0.00000
      8       0.7226      0.00000


--------------------------------------------------------------------------------------------------------


 soft charge-density along one line, spin component           1
         0         1         2         3         4         5         6         7         8         9
 total charge-density along one line

 pseudopotential strength for first ion, spin component:           1
 -2.341  -4.034  -0.001  -0.001   0.001
 -4.034  -6.865  -0.003  -0.004   0.002
 -0.001  -0.003  -0.336   0.002  -0.001
 -0.001  -0.004   0.002  -0.335  -0.001
  0.001   0.002  -0.001  -0.001  -0.337
 total augmentation occupancy for first ion, spin component:           1
  3.890  -0.765   0.247   0.361  -0.149
 -0.765   0.163  -0.050  -0.072   0.030
  0.247  -0.050   0.022   0.019  -0.007
  0.361  -0.072   0.019   0.038  -0.011
 -0.149   0.030  -0.007  -0.011   0.013


------------------------ aborting loop because EDIFF is reached ----------------------------------------


    CHARGE:  cpu time    0.1788: real time    0.1792
    FORLOC:  cpu time    0.1120: real time    0.1122
    FORNL :  cpu time    0.5384: real time    0.5397
    STRESS:  cpu time    1.6270: real time    1.6308
    FORCOR:  cpu time    1.7222: real time    1.7263
    FORHAR:  cpu time    0.5758: real time    0.5771
    MIXING:  cpu time    0.0549: real time    0.0550
    OFIELD:  cpu time    0.0000: real time    0.0000

  FORCE on cell =-STRESS in cart. coord.  units (eV):
  Direction    XX          YY          ZZ          XY          YZ          ZX
  --------------------------------------------------------------------------------------
  Alpha Z     0.24757     0.24757     0.24757
  Ewald      43.58161    43.91226    41.57928    -1.46352    -2.17628    -2.22526
  Hartree    95.44777    94.23276    95.04917    -0.71433    -0.90481    -1.05315
  E(xc)     -27.27218   -27.26584   -27.28798    -0.00803    -0.00987    -0.01104
  Local    -197.93083  -196.40805  -195.55425     2.09865     2.85646     3.25077
  n-local   -16.25475   -15.70836   -16.02013    -0.14409     0.40083     0.35712
  augment     0.11239     0.10616     0.10922     0.00010     0.00211    -0.00109
  Kinetic   101.76986   101.07974   101.76185     0.17237     0.22995    -0.15241
  Fock        0.00000     0.00000     0.00000     0.00000     0.00000     0.00000
  -------------------------------------------------------------------------------------
  Total      -0.29857     0.19623    -0.11527    -0.05883     0.39839     0.16494
  in kB      -0.48886     0.32130    -0.18873    -0.09633     0.65231     0.27007
  external pressure =       -0.12 kB  Pullay stress =        0.00 kB

  kinetic pressure (ideal gas correction) =      0.03 kB
  total pressure  =     -0.09 kB
  Total+kin.    -0.464       0.338      -0.146      -0.087       0.662       0.300

 VOLUME and BASIS-vectors are now :
 -----------------------------------------------------------------------------
  energy-cutoff  :      400.00
  volume of cell :      978.53
      direct lattice vectors                 reciprocal lattice vectors
     9.909768793  0.000000000  0.000000000     0.100910528  0.001849050  0.002283326
    -0.183643531 10.022209577  0.000000000    -0.000000000  0.099778396  0.002204983
    -0.218944710 -0.217727888  9.852475955     0.000000000 -0.000000000  0.101497330

  length of vectors
     9.909768793 10.023891947  9.857313257     0.100953292  0.099802757  0.101497330


 FORCES acting on ions
    electron-ion (+dipol)            ewald-force                    non-local-force                 convergence-correction
 -----------------------------------------------------------------------------------------------
   -.184E+02 0.289E+02 0.406E+02   0.205E+02 -.319E+02 -.450E+02   -.197E+01 0.268E+01 0.447E+01   -.198E-03 0.299E-03 0.412E-03
   0.527E+02 -.582E+01 0.341E+01   -.584E+02 0.642E+01 -.368E+01   0.583E+01 -.195E+00 0.544E-01   0.545E-03 -.431E-04 0.356E-04
   -.228E+02 -.482E+02 0.130E+01   0.254E+02 0.535E+02 -.142E+01   -.210E+01 -.464E+01 0.254E+00   -.247E-03 -.481E-03 0.250E-04
   -.118E+02 0.260E+02 -.447E+02   0.130E+02 -.288E+02 0.495E+02   -.140E+01 0.251E+01 -.420E+01   -.125E-03 0.286E-03 -.458E-03
   0.195E+00 -.659E+00 -.682E+00   -.462E+00 0.727E+00 0.674E+00   0.132E-01 0.172E+00 -.644E-01   -.328E-04 0.124E-03 0.318E-04
 -----------------------------------------------------------------------------------------------
   -.679E-01 0.197E+00 0.537E-02   -.355E-14 -.355E-14 -.711E-14   0.383E+00 0.528E+00 0.509E+00   -.574E-04 0.185E-03 0.464E-04


 POSITION                                       TOTAL-FORCE (eV/Angst)
 -----------------------------------------------------------------------------------
      5.18325      4.00195      3.55597         0.091030     -0.386283      0.062081
      3.71806      4.71427      4.32224         0.183883      0.404137     -0.217656
      5.26660      5.57788      4.36036         0.478586      0.687055      0.139093
      5.04365      4.05534      5.30973        -0.184620     -0.219888      0.603234
      4.80142      4.59517      4.38963        -0.253718      0.239918     -0.072572
 -----------------------------------------------------------------------------------
    total drift:                                0.315161      0.724938      0.514179


--------------------------------------------------------------------------------------------------------



  FREE ENERGIE OF THE ION-ELECTRON SYSTEM (eV)
  ---------------------------------------------------
  free  energy   TOTEN  =       -23.98592217 eV

  energy  without entropy=      -24.00997209  energy(sigma->0) =      -23.99393881



--------------------------------------------------------------------------------------------------------


    POTLOK:  cpu time    1.6680: real time    1.6720


--------------------------------------------------------------------------------------------------------


           RANDOM_SEED =         578492888                0                0
           RANDOM_SEED =         578492888               30                0
   IONSTEP:  cpu time    0.0017: real time    0.0020

  ENERGY OF THE ELECTRON-ION-THERMOSTAT SYSTEM (eV)
  ---------------------------------------------------
% ion-electron   TOTEN  =       -23.985922  see above
  kinetic energy EKIN   =         0.024738
  kin. lattice  EKIN_LAT=         0.000000  (temperature   47.84 K)
  nose potential ES     =         0.000000
  nose kinetic   EPS    =         0.000000
  ---------------------------------------------------
  total energy   ETOTAL =       -23.961184 eV

  maximum distance moved by ions :      0.35E-02


 mean value of Nose-termostat <S>:     0.999 mean value of <T> :    47.844
 mean temperature <T/S>/<1/S>  :    47.844

    WAVPRE:  cpu time    0.4551: real time    0.4614
    FEWALD:  cpu time    0.0004: real time    0.0004
    ORTHCH:  cpu time    0.1843: real time    0.1847
     LOOP+:  cpu time   73.1218: real time   73.3028


--------------------------------------- Iteration      2(   1)  ---------------------------------------


    POTLOK:  cpu time    1.6887: real time    1.6929
    SETDIJ:  cpu time    0.0065: real time    0.0065
     EDDAV:  cpu time    1.7401: real time    1.7442
       DOS:  cpu time    0.0002: real time    0.0002
    CHARGE:  cpu time    0.1546: real time    0.1550
    MIXING:  cpu time    0.0426: real time    0.0427
    --------------------------------------------
      LOOP:  cpu time    3.6327: real time    3.6415

 eigenvalue-minimisations  :    64
 total energy-change (2. order) : 0.9189966E-02  (-0.1130640E+00)
 number of electron       8.0000001 magnetization 
 augmentation part        0.1848740 magnetization 

 Broyden mixing:
  rms(total) = 0.38549E-01    rms(broyden)= 0.38503E-01
  rms(prec ) = 0.45251E-01
  weight for this iteration     100.00

 Free energy of the ion-electron system (eV)
  ---------------------------------------------------
  alpha Z        PSCENC =         0.24756704
  Ewald energy   TEWEN  =       127.75714913
  -Hartree energ DENC   =      -283.94891423
  -exchange      EXHF   =         0.00000000
  -V(xc)+E(xc)   XCENC  =        24.76188441
  PAW double counting   =       495.90030806     -496.69378691
  entropy T*S    EENTRO =         0.01183499
  eigenvalues    EBANDS =       -89.05452841
  atomic energy  EATOM  =       197.04175453
  Solvation  Ediel_sol  =         0.00000000
  ---------------------------------------------------
  free energy    TOTEN  =       -23.97673139 eV

  energy without entropy =      -23.98856638  energy(sigma->0) =      -23.98067639


--------------------------------------------------------------------------------------------------------




--------------------------------------- Iteration      2(   2)  ---------------------------------------


    POTLOK:  cpu time    1.4931: real time    1.4966
    SETDIJ:  cpu time    0.0065: real time    0.0065
    EDDIAG:  cpu time    0.3471: real time    0.3479
  RMM-DIIS:  cpu time    1.2783: real time    1.2813
    ORTHCH:  cpu time    0.0112: real time    0.0112
       DOS:  cpu time    0.0002: real time    0.0002
    CHARGE:  cpu time    0.1495: real time    0.1498
    MIXING:  cpu time    0.0549: real time    0.0550
    --------------------------------------------
      LOOP:  cpu time    3.3407: real time    3.3486

 eigenvalue-minimisations  :    64
 total energy-change (2. order) :-0.1383444E-01  (-0.1314045E-01)
 number of electron       8.0000001 magnetization 
 augmentation part        0.1875113 magnetization 

 Broyden mixing:
  rms(total) = 0.60630E-01    rms(broyden)= 0.60621E-01
  rms(prec ) = 0.83207E-01
  weight for this iteration     100.00

 eigenvalues of (default mixing * dielectric matrix)
  average eigenvalue GAMMA=   2.4555
  8.4272  5.4372  4.0701  3.5946  2.5674  2.4099  2.0948  1.7877  1.3661  1.3661
  1.1299  1.1299  1.0428  1.0075  0.9635  0.8930

 Free energy of the ion-electron system (eV)
  ---------------------------------------------------
  alpha Z        PSCENC =         0.24756704
  Ewald energy   TEWEN  =       127.75714913
  -Hartree energ DENC   =      -281.69615272
  -exchange      EXHF   =         0.00000000
  -V(xc)+E(xc)   XCENC  =        24.64763815
  PAW double counting   =       482.70155987     -483.47377374
  entropy T*S    EENTRO =         0.01184263
  eigenvalues    EBANDS =       -91.22815071
  atomic energy  EATOM  =       197.04175453
  Solvation  Ediel_sol  =         0.00000000
  ---------------------------------------------------
  free energy    TOTEN  =       -23.99056582 eV

  energy without entropy =      -24.00240846  energy(sigma->0) =      -23.99451337


--------------------------------------------------------------------------------------------------------




--------------------------------------- Iteration      2(   3)  ---------------------------------------


    POTLOK:  cpu time    1.4833: real time    1.4868
    SETDIJ:  cpu time    0.0065: real time    0.0065
    EDDIAG:  cpu time    0.3657: real time    0.3666
  RMM-DIIS:  cpu time    1.2962: real time    1.3041
    ORTHCH:  cpu time    0.0118: real time    0.0118
       DOS:  cpu time    0.0002: real time    0.0002
    CHARGE:  cpu time    0.1594: real time    0.1598
    MIXING:  cpu time    0.0559: real time    0.0560
    --------------------------------------------
      LOOP:  cpu time    3.3790: real time    3.3918

 eigenvalue-minimisations  :    64
 total energy-change (2. order) : 0.1420943E-01  (-0.3703634E-02)
 number of electron       8.0000001 magnetization 
 augmentation part        0.1860955 magnetization 

 Broyden mixing:
  rms(total) = 0.14256E-01    rms(broyden)= 0.14252E-01
  rms(prec ) = 0.20027E-01
  weight for this iteration     100.00

 eigenvalues of (default mixing * dielectric matrix)
  average eigenvalue GAMMA=   2.3940
  8.4271  5.4378  4.0685  3.5952  2.5663  2.4066  2.5032  1.7969  1.3653  1.3653
  1.1296  1.1296  0.8930  1.0429  0.9637  1.0092  0.9970

 Free energy of the ion-electron system (eV)
  ---------------------------------------------------
  alpha Z        PSCENC =         0.24756704
  Ewald energy   TEWEN  =       127.75714913
  -Hartree energ DENC   =      -283.29048362
  -exchange      EXHF   =         0.00000000
  -V(xc)+E(xc)   XCENC  =        24.72390068
  PAW double counting   =       483.78348615     -484.57057113
  entropy T*S    EENTRO =         0.01179870
  eigenvalues    EBANDS =       -89.68095787
  atomic energy  EATOM  =       197.04175453
  Solvation  Ediel_sol  =         0.00000000
  ---------------------------------------------------
  free energy    TOTEN  =       -23.97635640 eV

  energy without entropy =      -23.98815510  energy(sigma->0) =      -23.98028930


--------------------------------------------------------------------------------------------------------




--------------------------------------- Iteration      2(   4)  ---------------------------------------


    POTLOK:  cpu time    1.5215: real time    1.5250
    SETDIJ:  cpu time    0.0064: real time    0.0064
    EDDIAG:  cpu time    0.3797: real time    0.3806
  RMM-DIIS:  cpu time    1.2831: real time    1.2861
    ORTHCH:  cpu time    0.0111: real time    0.0112
       DOS:  cpu time    0.0002: real time    0.0002
    CHARGE:  cpu time    0.1525: real time    0.1528
    MIXING:  cpu time    0.0553: real time    0.0554
    --------------------------------------------
      LOOP:  cpu time    3.4098: real time    3.4179

 eigenvalue-minimisations  :    64
 total energy-change (2. order) :-0.7569343E-03  (-0.1807503E-02)
 number of electron       8.0000001 magnetization 
 augmentation part        0.1851366 magnetization 

 Broyden mixing:
  rms(total) = 0.12549E-01    rms(broyden)= 0.12541E-01
  rms(prec ) = 0.16095E-01
  weight for this iteration     100.00

 eigenvalues of (default mixing * dielectric matrix)
  average eigenvalue GAMMA=   2.3529
  8.4269  5.4454  4.1007  3.5198  2.5496  2.5496  2.4276  1.9552  1.4329  1.4329
  1.3037  1.1478  1.1478  0.8908  1.0545  0.9654  0.9946  1.0070

 Free energy of the ion-electron system (eV)
  ---------------------------------------------------
  alpha Z        PSCENC =         0.24756704
  Ewald energy   TEWEN  =       127.75714913
  -Hartree energ DENC   =      -283.81012499
  -exchange      EXHF   =         0.00000000
  -V(xc)+E(xc)   XCENC  =        24.74672145
  PAW double counting   =       485.19596960     -485.98938805
  entropy T*S    EENTRO =         0.01178890
  eigenvalues    EBANDS =       -89.17855095
  atomic energy  EATOM  =       197.04175453
  Solvation  Ediel_sol  =         0.00000000
  ---------------------------------------------------
  free energy    TOTEN  =       -23.97711333 eV

  energy without entropy =      -23.98890223  energy(sigma->0) =      -23.98104297


--------------------------------------------------------------------------------------------------------




--------------------------------------- Iteration      2(   5)  ---------------------------------------


    POTLOK:  cpu time    1.5199: real time    1.5235
    SETDIJ:  cpu time    0.0064: real time    0.0064
    EDDIAG:  cpu time    0.3613: real time    0.3621
  RMM-DIIS:  cpu time    1.2955: real time    1.2985
    ORTHCH:  cpu time    0.0115: real time    0.0115
       DOS:  cpu time    0.0002: real time    0.0002
    CHARGE:  cpu time    0.1627: real time    0.1631
    MIXING:  cpu time    0.0595: real time    0.0596
    --------------------------------------------
      LOOP:  cpu time    3.4169: real time    3.4250

 eigenvalue-minimisations  :    64
 total energy-change (2. order) : 0.2642532E-03  (-0.4973119E-04)
 number of electron       8.0000001 magnetization 
 augmentation part        0.1851068 magnetization 

 Broyden mixing:
  rms(total) = 0.85495E-02    rms(broyden)= 0.85487E-02
  rms(prec ) = 0.11207E-01
  weight for this iteration     100.00

 eigenvalues of (default mixing * dielectric matrix)
  average eigenvalue GAMMA=   2.3296
  8.4251  5.4541  4.1116  3.5106  2.6235  2.5212  2.4568  2.2428  1.9459  1.3553
  1.3553  1.1581  1.1581  0.8913  1.0490  1.0490  0.9755  0.9755  1.0039

 Free energy of the ion-electron system (eV)
  ---------------------------------------------------
  alpha Z        PSCENC =         0.24756704
  Ewald energy   TEWEN  =       127.75714913
  -Hartree energ DENC   =      -283.70884626
  -exchange      EXHF   =         0.00000000
  -V(xc)+E(xc)   XCENC  =        24.74502753
  PAW double counting   =       486.87008447     -487.66173571
  entropy T*S    EENTRO =         0.01179153
  eigenvalues    EBANDS =       -89.27964134
  atomic energy  EATOM  =       197.04175453
  Solvation  Ediel_sol  =         0.00000000
  ---------------------------------------------------
  free energy    TOTEN  =       -23.97684908 eV

  energy without entropy =      -23.98864061  energy(sigma->0) =      -23.98077959


--------------------------------------------------------------------------------------------------------




--------------------------------------- Iteration      2(   6)  ---------------------------------------


    POTLOK:  cpu time    1.5333: real time    1.5369
    SETDIJ:  cpu time    0.0065: real time    0.0065
    EDDIAG:  cpu time    0.3752: real time    0.3761
  RMM-DIIS:  cpu time    1.2539: real time    1.2569
    ORTHCH:  cpu time    0.0116: real time    0.0117
       DOS:  cpu time    0.0002: real time    0.0002
    CHARGE:  cpu time    0.1657: real time    0.1661
    MIXING:  cpu time    0.0623: real time    0.0625
    --------------------------------------------
      LOOP:  cpu time    3.4087: real time    3.4168

 eigenvalue-minimisations  :    64
 total energy-change (2. order) : 0.1062164E-03  (-0.1804669E-03)
 number of electron       8.0000001 magnetization 
 augmentation part        0.1854141 magnetization 

 Broyden mixing:
  rms(total) = 0.18312E-02    rms(broyden)= 0.18283E-02
  rms(prec ) = 0.24388E-02
  weight for this iteration     100.00

 eigenvalues of (default mixing * dielectric matrix)
  average eigenvalue GAMMA=   2.2458
  8.4255  5.4524  4.1234  3.5219  2.5229  2.4790  2.4329  1.8885  1.8885  1.3755
  1.3755  1.3124  1.3124  1.0364  1.0364  0.8541  0.9360  0.9360  1.0036  1.0028

 Free energy of the ion-electron system (eV)
  ---------------------------------------------------
[...]
  rms(total) = 0.21566E-02    rms(broyden)= 0.21559E-02
  rms(prec ) = 0.28714E-02
  weight for this iteration     100.00

 eigenvalues of (default mixing * dielectric matrix)
  average eigenvalue GAMMA=   2.3794
  6.0692  5.0486  5.0486  4.4404  4.4404  3.7666  0.3557  0.3557  3.2413  3.2413
  0.6992  0.6992  0.6775  1.2244  1.2244  2.1185  2.1185  1.0217  1.0217  1.0832
  1.3474  1.3474  1.6647  1.6647  1.7133  3.2138  2.0671  2.0671  2.0626  2.4676
  2.4676  2.8746  2.8746  2.8834  2.2174  2.7775  2.6956  2.6956  2.5482  2.5482
  2.2789  2.3601  2.4428  2.6351  2.5868  2.5868  2.5534  2.5534  2.4983

 Free energy of the ion-electron system (eV)
  ---------------------------------------------------
  alpha Z        PSCENC =         0.24756704
  Ewald energy   TEWEN  =       130.91050820
  -Hartree energ DENC   =      -286.33361267
  -exchange      EXHF   =         0.00000000
  -V(xc)+E(xc)   XCENC  =        24.88728581
  PAW double counting   =       503.17295089     -503.97354402
  entropy T*S    EENTRO =         0.02751391
  eigenvalues    EBANDS =       -89.94887936
  atomic energy  EATOM  =       197.04175453
  Solvation  Ediel_sol  =         0.00000000
  ---------------------------------------------------
  free energy    TOTEN  =       -23.96845568 eV

  energy without entropy =      -23.99596959  energy(sigma->0) =      -23.97762698


--------------------------------------------------------------------------------------------------------




--------------------------------------- Iteration     10(  15)  ---------------------------------------


    POTLOK:  cpu time    1.9833: real time    2.0568
    SETDIJ:  cpu time    0.0084: real time    0.0084
    EDDIAG:  cpu time    0.5427: real time    0.5442
  RMM-DIIS:  cpu time    1.5712: real time    1.5750
    ORTHCH:  cpu time    0.0214: real time    0.0215
       DOS:  cpu time    0.0003: real time    0.0003
    CHARGE:  cpu time    0.1629: real time    0.1633
    MIXING:  cpu time    0.1880: real time    0.1884
    --------------------------------------------
      LOOP:  cpu time    4.4782: real time    4.5579

 eigenvalue-minimisations  :    64
 total energy-change (2. order) : 0.7154851E-05  (-0.1213801E-05)
 number of electron       7.9999998 magnetization 
 augmentation part        0.1895641 magnetization 

 Broyden mixing:
  rms(total) = 0.73169E-03    rms(broyden)= 0.73109E-03
  rms(prec ) = 0.96154E-03
  weight for this iteration     100.00

 eigenvalues of (default mixing * dielectric matrix)
  average eigenvalue GAMMA=   2.3759
  6.1380  5.0353  4.2925  4.1163  3.9044  1.8036  1.8036  0.5775  0.5775  0.5538
  0.9668  0.9668  0.8287  1.4511  1.4511  1.0878  1.2452  1.2452  3.2221  3.2221
  3.3588  3.1136  2.1420  2.1420  1.9063  1.9063  2.9805  2.7698  2.7698  2.3271
  2.3271  2.1020  2.2028  2.2028  2.8075  2.7294  2.3349  2.6125  2.6125  2.4365
  2.5937  2.4942  2.4942  2.5292  2.5292

 Free energy of the ion-electron system (eV)
  ---------------------------------------------------
  alpha Z        PSCENC =         0.24756704
  Ewald energy   TEWEN  =       130.91050820
  -Hartree energ DENC   =      -286.30859351
  -exchange      EXHF   =         0.00000000
  -V(xc)+E(xc)   XCENC  =        24.88622385
  PAW double counting   =       503.31009493     -504.11035191
  entropy T*S    EENTRO =         0.02745990
  eigenvalues    EBANDS =       -89.97311155
  atomic energy  EATOM  =       197.04175453
  Solvation  Ediel_sol  =         0.00000000
  ---------------------------------------------------
  free energy    TOTEN  =       -23.96844852 eV

  energy without entropy =      -23.99590842  energy(sigma->0) =      -23.97760182


--------------------------------------------------------------------------------------------------------




--------------------------------------- Iteration     10(  16)  ---------------------------------------


    POTLOK:  cpu time    1.9286: real time    1.9331
    SETDIJ:  cpu time    0.0065: real time    0.0065
    EDDIAG:  cpu time    0.4136: real time    0.4146
  RMM-DIIS:  cpu time    1.4932: real time    1.4968
    ORTHCH:  cpu time    0.0149: real time    0.0149
       DOS:  cpu time    0.0004: real time    0.0004
    CHARGE:  cpu time    0.2313: real time    0.2319
    MIXING:  cpu time    0.1599: real time    0.1604
    --------------------------------------------
      LOOP:  cpu time    4.2483: real time    4.2586

 eigenvalue-minimisations  :    60
 total energy-change (2. order) :-0.4240609E-05  (-0.4245846E-06)
 number of electron       7.9999998 magnetization 
 augmentation part        0.1895789 magnetization 

 Broyden mixing:
  rms(total) = 0.32122E-03    rms(broyden)= 0.32091E-03
  rms(prec ) = 0.42873E-03
  weight for this iteration     100.00

 eigenvalues of (default mixing * dielectric matrix)
  average eigenvalue GAMMA=   2.3830
  6.1609  5.0247  4.7753  4.0593  4.0593  1.8706  1.8706  0.5642  0.5642  0.5404
  0.9997  0.9997  0.9568  0.9568  1.1088  1.3899  1.3899  1.3726  1.3726  3.2954
  3.2954  3.3550  3.1090  2.1105  2.1105  1.9220  2.1859  2.1859  2.0579  2.9442
  2.7965  2.7965  2.4367  2.4367  2.2516  2.7163  2.7163  2.3329  2.7192  2.6046
  2.6046  2.5929  2.4788  2.4788  2.5390  2.5084

 Free energy of the ion-electron system (eV)
  ---------------------------------------------------
  alpha Z        PSCENC =         0.24756704
  Ewald energy   TEWEN  =       130.91050820
  -Hartree energ DENC   =      -286.30098726
  -exchange      EXHF   =         0.00000000
  -V(xc)+E(xc)   XCENC  =        24.88592151
  PAW double counting   =       503.43023476     -504.23041603
  entropy T*S    EENTRO =         0.02744147
  eigenvalues    EBANDS =       -89.98047698
  atomic energy  EATOM  =       197.04175453
  Solvation  Ediel_sol  =         0.00000000
  ---------------------------------------------------
  free energy    TOTEN  =       -23.96845276 eV

  energy without entropy =      -23.99589424  energy(sigma->0) =      -23.97759992


--------------------------------------------------------------------------------------------------------




--------------------------------------- Iteration     10(  17)  ---------------------------------------


    POTLOK:  cpu time    1.9172: real time    1.9849
    SETDIJ:  cpu time    0.0124: real time    0.0244
    EDDIAG:  cpu time    0.4285: real time    0.4415
  RMM-DIIS:  cpu time    1.2962: real time    1.2992
    ORTHCH:  cpu time    0.0117: real time    0.0117
       DOS:  cpu time    0.0002: real time    0.0002
    CHARGE:  cpu time    0.2138: real time    0.2143
    MIXING:  cpu time    0.2026: real time    0.2031
    --------------------------------------------
      LOOP:  cpu time    4.0825: real time    4.1794

 eigenvalue-minimisations  :    48
 total energy-change (2. order) :-0.2861798E-05  (-0.4377116E-07)
 number of electron       7.9999998 magnetization 
 augmentation part        0.1895790 magnetization 

 Broyden mixing:
  rms(total) = 0.98079E-04    rms(broyden)= 0.97181E-04
  rms(prec ) = 0.13122E-03
  weight for this iteration     100.00

 eigenvalues of (default mixing * dielectric matrix)
  average eigenvalue GAMMA=   2.3791
  6.6996  5.1061  4.5066  4.5066  4.1133  1.6943  1.6943  0.5301  0.5301  0.5245
  0.9496  0.9496  0.8721  0.8721  1.0936  1.1946  1.1946  1.6947  1.6947  3.5657
  1.6200  2.7921  2.7921  3.1819  2.0727  2.0727  1.8904  3.0639  2.8390  2.8390
  2.9263  2.9263  2.2444  2.2444  2.2354  2.2354  2.5383  2.5383  2.3033  2.7164
  2.6038  2.6038  2.4757  2.4757  2.4958  2.5663  2.5368

 Free energy of the ion-electron system (eV)
  ---------------------------------------------------
  alpha Z        PSCENC =         0.24756704
  Ewald energy   TEWEN  =       130.91050820
  -Hartree energ DENC   =      -286.30263673
  -exchange      EXHF   =         0.00000000
  -V(xc)+E(xc)   XCENC  =        24.88599668
  PAW double counting   =       503.45924137     -504.25945270
  entropy T*S    EENTRO =         0.02741809
  eigenvalues    EBANDS =       -89.97885210
  atomic energy  EATOM  =       197.04175453
  Solvation  Ediel_sol  =         0.00000000
  ---------------------------------------------------
  free energy    TOTEN  =       -23.96845563 eV

  energy without entropy =      -23.99587371  energy(sigma->0) =      -23.97759499


--------------------------------------------------------------------------------------------------------




--------------------------------------- Iteration     10(  18)  ---------------------------------------


    POTLOK:  cpu time    1.9616: real time    1.9663
    SETDIJ:  cpu time    0.0064: real time    0.0064
    EDDIAG:  cpu time    0.4946: real time    0.4957
  RMM-DIIS:  cpu time    1.2925: real time    1.2956
    ORTHCH:  cpu time    0.0120: real time    0.0120
       DOS:  cpu time    0.0002: real time    0.0002
    --------------------------------------------
      LOOP:  cpu time    3.7673: real time    3.7763

 eigenvalue-minimisations  :    48
 total energy-change (2. order) :-0.7890291E-06  (-0.2735620E-07)
 number of electron       7.9999998 magnetization 
 augmentation part        0.1895790 magnetization 

 Free energy of the ion-electron system (eV)
  ---------------------------------------------------
  alpha Z        PSCENC =         0.24756704
  Ewald energy   TEWEN  =       130.91050820
  -Hartree energ DENC   =      -286.30080467
  -exchange      EXHF   =         0.00000000
  -V(xc)+E(xc)   XCENC  =        24.88591425
  PAW double counting   =       503.46730996     -504.26750305
  entropy T*S    EENTRO =         0.02741314
  eigenvalues    EBANDS =       -89.98061581
  atomic energy  EATOM  =       197.04175453
  Solvation  Ediel_sol  =         0.00000000
  ---------------------------------------------------
  free energy    TOTEN  =       -23.96845641 eV

  energy without entropy =      -23.99586955  energy(sigma->0) =      -23.97759413


--------------------------------------------------------------------------------------------------------




 average (electrostatic) potential at core
  the test charge radii are     0.5201  0.6991
  (the norm of the test charge is              1.0000)
       1 -41.5822       2 -41.2830       3 -41.8532       4 -41.5984       5 -57.8871



 E-fermi :  -9.0729     XC(G=0):  -0.6998     alpha+bet : -0.2153


 k-point     1 :       0.2500    0.2500    0.2500
  band No.  band energies     occupation 
      1     -16.9819      2.00000
      2      -9.5105      2.00830
      3      -9.2767      2.05404
      4      -9.2181      1.93729
      5      -0.2872      0.00000
      6       0.5795      0.00000
      7       0.6755      0.00000
      8       0.7039      0.00000

 k-point     2 :      -0.2500    0.2500    0.2500
  band No.  band energies     occupation 
      1     -16.9819      2.00000
      2      -9.5106      2.00829
      3      -9.2769      2.05418
      4      -9.2181      1.93748
      5      -0.2949      0.00000
      6       0.5865      0.00000
      7       0.6952      0.00000
      8       0.7251      0.00000

 k-point     3 :       0.2500   -0.2500    0.2500
  band No.  band energies     occupation 
      1     -16.9819      2.00000
      2      -9.5106      2.00829
      3      -9.2768      2.05414
      4      -9.2182      1.93767
      5      -0.2952      0.00000
      6       0.5976      0.00000
      7       0.6924      0.00000
      8       0.7189      0.00000

 k-point     4 :      -0.2500   -0.2500    0.2500
  band No.  band energies     occupation 
      1     -16.9819      2.00000
      2      -9.5106      2.00830
      3      -9.2769      2.05422
      4      -9.2182      1.93780
      5      -0.2965      0.00000
      6       0.5977      0.00000
      7       0.6975      0.00000
      8       0.7253      0.00000


--------------------------------------------------------------------------------------------------------


 soft charge-density along one line, spin component           1
         0         1         2         3         4         5         6         7         8         9
 total charge-density along one line

 pseudopotential strength for first ion, spin component:           1
 -2.343  -4.037  -0.001  -0.001   0.001
 -4.037  -6.870  -0.003  -0.004   0.002
 -0.001  -0.003  -0.337   0.002  -0.001
 -0.001  -0.004   0.002  -0.336  -0.001
  0.001   0.002  -0.001  -0.001  -0.338
 total augmentation occupancy for first ion, spin component:           1
  3.515  -0.636   0.212   0.324  -0.159
 -0.636   0.129  -0.040  -0.060   0.030
  0.212  -0.040   0.019   0.016  -0.008
  0.324  -0.060   0.016   0.034  -0.012
 -0.159   0.030  -0.008  -0.012   0.016


------------------------ aborting loop because EDIFF is reached ----------------------------------------


    CHARGE:  cpu time    0.2457: real time    0.2463
    FORLOC:  cpu time    0.1099: real time    0.1101
    FORNL :  cpu time    0.7075: real time    0.7396
    STRESS:  cpu time    2.2183: real time    2.3012
    FORCOR:  cpu time    2.2645: real time    2.2846
    FORHAR:  cpu time    0.6567: real time    0.6583
    MIXING:  cpu time    0.2158: real time    0.2163
    OFIELD:  cpu time    0.0000: real time    0.0000

  FORCE on cell =-STRESS in cart. coord.  units (eV):
  Direction    XX          YY          ZZ          XY          YZ          ZX
  --------------------------------------------------------------------------------------
  Alpha Z     0.24757     0.24757     0.24757
  Ewald      44.63626    43.75702    42.51720     0.12718    -3.11008    -0.91696
  Hartree    96.49536    94.07985    95.72402    -0.66249    -1.13455    -0.55513
  E(xc)     -27.35733   -27.36890   -27.37380    -0.00682    -0.01298    -0.00406
  Local    -200.32151  -195.71227  -196.90009     1.07511     3.93311     1.38962
  n-local   -16.02787   -15.90940   -15.75547     0.01660     0.25181     0.02553
  augment     0.11643     0.10419     0.11202    -0.00639     0.00287    -0.00056
  Kinetic   102.62907   102.13745   101.43238     0.05401     0.15514     0.10279
  Fock        0.00000     0.00000     0.00000     0.00000     0.00000     0.00000
  -------------------------------------------------------------------------------------
  Total       0.41798     1.33550     0.00383     0.59719     0.08531     0.04123
  in kB       0.68437     2.18667     0.00628     0.97780     0.13969     0.06750
  external pressure =        0.96 kB  Pullay stress =        0.00 kB

  kinetic pressure (ideal gas correction) =      0.10 kB
  total pressure  =      1.06 kB
  Total+kin.     0.815       2.257       0.095       1.058       0.181       0.161

 VOLUME and BASIS-vectors are now :
 -----------------------------------------------------------------------------
  energy-cutoff  :      400.00
  volume of cell :      978.53
      direct lattice vectors                 reciprocal lattice vectors
     9.909768793  0.000000000  0.000000000     0.100910528  0.001849050  0.002283326
    -0.183643531 10.022209577  0.000000000    -0.000000000  0.099778396  0.002204983
    -0.218944710 -0.217727888  9.852475955     0.000000000 -0.000000000  0.101497330

  length of vectors
     9.909768793 10.023891947  9.857313257     0.100953292  0.099802757  0.101497330


 FORCES acting on ions
    electron-ion (+dipol)            ewald-force                    non-local-force                 convergence-correction
 -----------------------------------------------------------------------------------------------
   -.199E+02 0.282E+02 0.399E+02   0.220E+02 -.312E+02 -.439E+02   -.196E+01 0.220E+01 0.411E+01   0.288E-04 0.726E-04 0.171E-03
   0.525E+02 -.681E+01 0.729E+01   -.581E+02 0.750E+01 -.801E+01   0.550E+01 -.482E+00 0.779E+00   0.876E-04 0.127E-03 0.171E-03
   -.250E+02 -.488E+02 -.169E-01   0.285E+02 0.557E+02 0.267E-01   -.270E+01 -.559E+01 0.262E+00   -.259E-03 -.570E-04 -.194E-03
   -.888E+01 0.266E+02 -.454E+02   0.989E+01 -.295E+02 0.504E+02   -.720E+00 0.261E+01 -.464E+01   -.202E-03 -.792E-04 -.225E-03
   0.125E+01 0.205E+01 -.140E+01   -.228E+01 -.245E+01 0.152E+01   0.356E-01 -.906E-01 -.351E+00   -.835E-03 0.600E-04 -.409E-03
 -----------------------------------------------------------------------------------------------
   -.330E-01 0.123E+01 0.369E+00   -.533E-14 -.355E-14 0.711E-14   0.159E+00 -.135E+01 0.166E+00   -.118E-02 0.123E-03 -.485E-03


 POSITION                                       TOTAL-FORCE (eV/Angst)
 -----------------------------------------------------------------------------------
      5.21997      4.00823      3.56100         0.157174     -0.741385      0.112832
      3.73042      4.73519      4.24281        -0.129702      0.208733      0.061342
      5.28379      5.53496      4.38780         0.811405      1.257597      0.272094
      4.98446      4.05064      5.31685         0.287789     -0.354553      0.320505
      4.80083      4.59687      4.39295        -1.001916     -0.491931     -0.232226
 -----------------------------------------------------------------------------------
    total drift:                                0.124749     -0.121538      0.534548


--------------------------------------------------------------------------------------------------------



  FREE ENERGIE OF THE ION-ELECTRON SYSTEM (eV)
  ---------------------------------------------------
  free  energy   TOTEN  =       -23.96845641 eV

  energy  without entropy=      -23.99586955  energy(sigma->0) =      -23.97759413

 d Force =-0.2043885E-01[-0.873E-01, 0.464E-01]  d Energy =-0.1639014E-01-0.405E-02
 d Force =-0.2090349E+01[-0.212E+01,-0.207E+01]  d Ewald  =-0.2092202E+01 0.185E-02


--------------------------------------------------------------------------------------------------------


    POTLOK:  cpu time    2.0380: real time    2.0990


--------------------------------------------------------------------------------------------------------


           RANDOM_SEED =         578492888               30                0
   IONSTEP:  cpu time    0.0001: real time    0.0001

  ENERGY OF THE ELECTRON-ION-THERMOSTAT SYSTEM (eV)
  ---------------------------------------------------
% ion-electron   TOTEN  =       -23.968456  see above
  kinetic energy EKIN   =         0.054202
  kin. lattice  EKIN_LAT=         0.000000  (temperature  104.83 K)
  nose potential ES     =         0.023786
  nose kinetic   EPS    =         0.030652
  ---------------------------------------------------
  total energy   ETOTAL =       -23.859817 eV

  maximum distance moved by ions :      0.39E-02


 mean value of Nose-termostat <S>:     1.798 mean value of <T> :   104.831
 mean temperature <T/S>/<1/S>  :   104.831

    WAVPRE:  cpu time    0.5675: real time    0.5759
    FEWALD:  cpu time    0.0007: real time    0.0007
    ORTHCH:  cpu time    0.2044: real time    0.2049
 Prediction of Wavefunctions ALPHA= 1.002 BETA=-0.701
    POTLOK:  cpu time    1.9190: real time    1.9236
    EDDIAG:  cpu time    0.5161: real time    0.5173
     LOOP+:  cpu time   91.3860: real time   92.7443
    4ORBIT:  cpu time    0.0000: real time    0.0000

 total amount of memory used by VASP MPI-rank0   298923. kBytes
=======================================================================

   base      :      30000. kBytes
   nonlr-proj:        157. kBytes
   fftplans  :      86708. kBytes
   grid      :     154683. kBytes
   one-center:         15. kBytes
   wavefun   :      27360. kBytes

  
  
 General timing and accounting informations for this job:
 ========================================================
  
                  Total CPU time used (sec):      635.576
                            User time (sec):      622.367
                          System time (sec):       13.209
                         Elapsed time (sec):      639.098
  
                   Maximum memory used (kb):      468388.
                   Average memory used (kb):           0.
  
                          Minor page faults:      2009868
                          Major page faults:            0
                 Voluntary context switches:          482
