 running on    1 total cores
 distrk:  each k-point on    1 cores,    1 groups
 distr:  one band on    1 cores,    1 groups
 using from now: INCAR     
 vasp.5.4.4.18Apr17-6-g9f103f2a35 (build Jul 12 2018 13:43:46) complex           
 POSCAR found type information on POSCAR  H  C 
 POSCAR found :  2 types and       5 ions
 scaLAPACK will be used

 ----------------------------------------------------------------------------- 
|                                                                             |
|  ADVICE TO THIS USER RUNNING 'VASP/VAMP'   (HEAR YOUR MASTER'S VOICE ...):  |
|                                                                             |
|      You have a (more or less) 'small supercell' and for smaller cells      |
|      it is recommended  to use the reciprocal-space projection scheme!      |
|      The real space optimization is not  efficient for small cells and it   |
|      is also less accurate ...                                              |
|      Therefore set LREAL=.FALSE. in the  INCAR file                         |
|                                                                             |
 ----------------------------------------------------------------------------- 


 ----------------------------------------------------------------------------- 
|                                                                             |
|           W    W    AA    RRRRR   N    N  II  N    N   GGGG   !!!           |
|           W    W   A  A   R    R  NN   N  II  NN   N  G    G  !!!           |
|           W    W  A    A  R    R  N N  N  II  N N  N  G       !!!           |
|           W WW W  AAAAAA  RRRRR   N  N N  II  N  N N  G  GGG   !            |
|           WW  WW  A    A  R   R   N   NN  II  N   NN  G    G                |
|           W    W  A    A  R    R  N    N  II  N    N   GGGG   !!!           |
|                                                                             |
|     The real-space-projection scheme for the treatment of the nonlocal      |
|     pseudopotentials has been switched on -- but on file POTCAR I have      |
|     not found any entries signalling me that you have ever performed a      |
|     real-space optimization of all nonlocal projectors! BE WARNED that      |
|     a calculation using the real-space-projection scheme together with      |
|     nonlocal projectors which were not real-space-optimized (according      |
|     to the plane-wave-cutoff used in this calculation) might give more      |
|     or less inaccurate results                                              |
|     I hope you know what you are doing                                      |
|                                                                             |
 ----------------------------------------------------------------------------- 

 LDA part: xc-table for Pade appr. of Perdew
 generate k-points for:    2    2    2
 POSCAR, INCAR and KPOINTS ok, starting setup
 FFT: planning ...
 WAVECAR not read
 prediction of wavefunctions initialized - no I/O
 entering main loop
       N       E                     dE             d eps       ncg     rms          rms(c)
DAV:   1     0.266762023896E+02    0.26676E+02   -0.19471E+03    88   0.428E+02
DAV:   2    -0.207305842451E+02   -0.47407E+02   -0.41991E+02    80   0.105E+02
DAV:   3    -0.273169379936E+02   -0.65864E+01   -0.65936E+01    64   0.507E+01
DAV:   4    -0.275926839012E+02   -0.27575E+00   -0.27580E+00   128   0.123E+01
DAV:   5    -0.275927753661E+02   -0.91465E-04   -0.91464E-04   104   0.253E-01    0.889E+00
RMM:   6    -0.246363670561E+02    0.29564E+01   -0.55158E+00    64   0.144E+01    0.443E+00
RMM:   7    -0.241305434631E+02    0.50582E+00   -0.12806E+00    64   0.655E+00    0.235E+00
RMM:   8    -0.239833803150E+02    0.14716E+00   -0.16302E-01    64   0.290E+00    0.229E-01
RMM:   9    -0.239778397121E+02    0.55406E-02   -0.11030E-02    64   0.697E-01    0.199E-01
RMM:  10    -0.239717861407E+02    0.60536E-02   -0.24250E-02    64   0.853E-01    0.282E-01
RMM:  11    -0.239722961085E+02   -0.50997E-03   -0.63263E-03    64   0.499E-01    0.611E-02
RMM:  12    -0.239823049385E+02   -0.10009E-01   -0.47786E-03    64   0.429E-01    0.132E-01
RMM:  13    -0.239826302065E+02   -0.32527E-03   -0.85576E-04    64   0.165E-01    0.615E-02
RMM:  14    -0.239853245437E+02   -0.26943E-02   -0.17136E-03    64   0.255E-01    0.336E-02
RMM:  15    -0.239856769604E+02   -0.35242E-03   -0.12082E-04    64   0.668E-02    0.146E-02
RMM:  16    -0.239858485814E+02   -0.17162E-03   -0.21878E-05    64   0.305E-02    0.582E-03
RMM:  17    -0.239859078332E+02   -0.59252E-04   -0.99260E-06    64   0.219E-02    0.247E-03
RMM:  18    -0.239859185051E+02   -0.10672E-04   -0.52576E-06    60   0.136E-02    0.487E-03
RMM:  19    -0.239859213539E+02   -0.28489E-05   -0.63015E-06    64   0.143E-02    0.102E-03
RMM:  20    -0.239859221678E+02   -0.81384E-06   -0.12551E-07    48   0.319E-03
    1 T=    48. E= -.23961184E+02 F= -.23985922E+02 E0= -.23993939E+02  EK= 0.24738E-01 SP= 0.00E+00 SK= 0.15E-06
 bond charge predicted
       N       E                     dE             d eps       ncg     rms          rms(c)
DAV:   1    -0.239767313884E+02    0.91900E-02   -0.11306E+00    64   0.105E+01    0.385E-01
RMM:   2    -0.239905658248E+02   -0.13834E-01   -0.13140E-01    64   0.224E+00    0.606E-01
RMM:   3    -0.239763563996E+02    0.14209E-01   -0.37036E-02    64   0.112E+00    0.143E-01
RMM:   4    -0.239771133339E+02   -0.75693E-03   -0.18075E-02    64   0.826E-01    0.125E-01
RMM:   5    -0.239768490807E+02    0.26425E-03   -0.49731E-04    64   0.183E-01    0.855E-02
RMM:   6    -0.239767428643E+02    0.10622E-03   -0.18047E-03    64   0.244E-01    0.183E-02
RMM:   7    -0.239767472037E+02   -0.43394E-05   -0.14925E-05    64   0.339E-02    0.761E-03
RMM:   8    -0.239767993244E+02   -0.52121E-04   -0.28271E-05    64   0.311E-02    0.452E-03
RMM:   9    -0.239768074982E+02   -0.81737E-05   -0.29118E-06    58   0.109E-02    0.212E-03
RMM:  10    -0.239768250555E+02   -0.17557E-04   -0.29557E-06    56   0.958E-03    0.201E-03
RMM:  11    -0.239768286071E+02   -0.35516E-05   -0.87847E-07    48   0.573E-03    0.467E-04
RMM:  12    -0.239768320558E+02   -0.34487E-05   -0.91992E-07    48   0.649E-03    0.121E-03
RMM:  13    -0.239768328302E+02   -0.77441E-06   -0.16185E-07    48   0.292E-03
    2 T=    59. E= -.23946347E+02 F= -.23976833E+02 E0= -.23980765E+02  EK= 0.30513E-01 SP= -.28E-04 SK= 0.71E-06
 bond charge predicted
 prediction of wavefunctions
       N       E                     dE             d eps       ncg     rms          rms(c)
DAV:   1    -0.239786193122E+02   -0.17873E-02   -0.12875E+00    64   0.112E+01    0.494E-01
RMM:   2    -0.239912538181E+02   -0.12635E-01   -0.17854E-01    64   0.238E+00    0.615E-01
RMM:   3    -0.239757172779E+02    0.15537E-01   -0.26683E-02    64   0.924E-01    0.231E-01
RMM:   4    -0.239746447266E+02    0.10726E-02   -0.17003E-02    64   0.779E-01    0.420E-02
RMM:   5    -0.239748711636E+02   -0.22644E-03   -0.10279E-03    64   0.248E-01    0.415E-02
RMM:   6    -0.239748354122E+02    0.35751E-04   -0.10937E-04    64   0.653E-02    0.721E-03
RMM:   7    -0.239748522065E+02   -0.16794E-04   -0.23538E-06    49   0.127E-02    0.560E-03
RMM:   8    -0.239748655191E+02   -0.13313E-04   -0.19548E-05    64   0.271E-02    0.436E-03
RMM:   9    -0.239748708180E+02   -0.52989E-05   -0.77908E-07    48   0.713E-03    0.450E-03
RMM:  10    -0.239748741652E+02   -0.33472E-05   -0.36170E-06    60   0.108E-02    0.413E-04
RMM:  11    -0.239748753082E+02   -0.11430E-05   -0.13815E-07    48   0.289E-03    0.336E-04
RMM:  12    -0.239748762624E+02   -0.95425E-06   -0.11517E-07    48   0.231E-03
    3 T=    89. E= -.23928474E+02 F= -.23974876E+02 E0= -.23979213E+02  EK= 0.46252E-01 SP= 0.60E-04 SK= 0.91E-04
 bond charge predicted
 prediction of wavefunctions
       N       E                     dE             d eps       ncg     rms          rms(c)
DAV:   1    -0.240050768755E+02   -0.30202E-01   -0.16871E+00    64   0.124E+01    0.618E-01
RMM:   2    -0.240533497321E+02   -0.48273E-01   -0.53740E-01    64   0.421E+00    0.112E+00
RMM:   3    -0.239928228028E+02    0.60527E-01   -0.16771E-01    64   0.231E+00    0.263E-01
RMM:   4    -0.240005588744E+02   -0.77361E-02   -0.68866E-02    64   0.156E+00    0.405E-01
RMM:   5    -0.240015500442E+02   -0.99117E-03   -0.34540E-03    64   0.424E-01    0.346E-01
RMM:   6    -0.239988229077E+02    0.27271E-02   -0.57216E-03    64   0.443E-01    0.122E-01
RMM:   7    -0.239987312124E+02    0.91695E-04   -0.14680E-03    64   0.234E-01    0.500E-02
RMM:   8    -0.239988817034E+02   -0.15049E-03   -0.97069E-04    64   0.190E-01    0.136E-02
RMM:   9    -0.239989741188E+02   -0.92415E-04   -0.13919E-04    64   0.828E-02    0.299E-02
RMM:  10    -0.239989670421E+02    0.70767E-05   -0.62153E-05    64   0.453E-02    0.689E-03
RMM:  11    -0.239989756057E+02   -0.85636E-05   -0.12218E-05    68   0.233E-02    0.328E-03
RMM:  12    -0.239989786956E+02   -0.30899E-05   -0.10534E-06    48   0.683E-03    0.957E-04
RMM:  13    -0.239989820869E+02   -0.33913E-05   -0.27376E-07    48   0.345E-03    0.760E-04
RMM:  14    -0.239989840789E+02   -0.19919E-05   -0.16218E-06    48   0.772E-03    0.243E-03
RMM:  15    -0.239989848290E+02   -0.75009E-06   -0.16926E-07    48   0.316E-03
    4 T=   178. E= -.23904691E+02 F= -.23998985E+02 E0= -.24007173E+02  EK= 0.92058E-01 SP= 0.65E-03 SK= 0.16E-02
 bond charge predicted
 prediction of wavefunctions
       N       E                     dE             d eps       ncg     rms          rms(c)
DAV:   1    -0.239179383277E+02    0.81046E-01   -0.11525E+00    64   0.103E+01    0.520E-01
RMM:   2    -0.239157224245E+02    0.22159E-02   -0.32676E-02    64   0.158E+00    0.356E-01
RMM:   3    -0.239457630685E+02   -0.30041E-01   -0.19939E-01    64   0.258E+00    0.101E+00
RMM:   4    -0.239272315611E+02    0.18532E-01   -0.10208E-02    64   0.649E-01    0.699E-01
RMM:   5    -0.239165986949E+02    0.10633E-01   -0.91293E-02    64   0.176E+00    0.933E-02
RMM:   6    -0.239170056441E+02   -0.40695E-03   -0.29582E-03    64   0.388E-01    0.123E-01
RMM:   7    -0.239172356478E+02   -0.23000E-03   -0.96989E-04    64   0.206E-01    0.157E-01
RMM:   8    -0.239166864175E+02    0.54923E-03   -0.80665E-04    64   0.168E-01    0.866E-02
RMM:   9    -0.239166162200E+02    0.70197E-04   -0.29113E-03    64   0.321E-01    0.439E-02
RMM:  10    -0.239165715073E+02    0.44713E-04   -0.77460E-05    64   0.676E-02    0.233E-02
RMM:  11    -0.239166403406E+02   -0.68833E-04   -0.62977E-04    64   0.145E-01    0.404E-02
RMM:  12    -0.239166001896E+02    0.40151E-04   -0.15228E-04    64   0.722E-02    0.695E-03
RMM:  13    -0.239166166197E+02   -0.16430E-04   -0.10379E-05    64   0.220E-02    0.276E-03
RMM:  14    -0.239166243578E+02   -0.77380E-05   -0.85556E-06    64   0.174E-02    0.280E-03
RMM:  15    -0.239166261539E+02   -0.17961E-05   -0.52528E-07    48   0.502E-03    0.128E-03
RMM:  16    -0.239166272647E+02   -0.11108E-05   -0.33536E-07    48   0.374E-03    0.594E-04
RMM:  17    -0.239166292493E+02   -0.19846E-05   -0.12406E-07    44   0.251E-03    0.307E-04
RMM:  18    -0.239166299931E+02   -0.74379E-06   -0.28036E-07    48   0.352E-03
    5 T=   111. E= -.23851157E+02 F= -.23916630E+02 E0= -.23925227E+02  EK= 0.57240E-01 SP= 0.29E-02 SK= 0.54E-02
 bond charge predicted
 prediction of wavefunctions
       N       E                     dE             d eps       ncg     rms          rms(c)
DAV:   1    -0.239679806446E+02   -0.51351E-01   -0.17218E+00    64   0.127E+01    0.810E-01
RMM:   2    -0.239664351004E+02    0.15455E-02   -0.36044E-02    64   0.165E+00    0.879E-01
RMM:   3    -0.239690520755E+02   -0.26170E-02   -0.25231E-01    64   0.291E+00    0.695E-01
RMM:   4    -0.239646061231E+02    0.44460E-02   -0.11608E-02    64   0.790E-01    0.654E-01
RMM:   5    -0.239535439376E+02    0.11062E-01   -0.85937E-02    64   0.167E+00    0.674E-02
RMM:   6    -0.239538606038E+02   -0.31667E-03   -0.22985E-03    64   0.355E-01    0.108E-01
RMM:   7    -0.239536000450E+02    0.26056E-03   -0.17550E-03    64   0.236E-01    0.146E-02
RMM:   8    -0.239536947355E+02   -0.94691E-04   -0.63150E-05    64   0.511E-02    0.208E-02
RMM:   9    -0.239537181161E+02   -0.23381E-04   -0.87667E-06    60   0.179E-02    0.201E-02
RMM:  10    -0.239537169972E+02    0.11189E-05   -0.10689E-04    64   0.599E-02    0.997E-03
RMM:  11    -0.239537239535E+02   -0.69564E-05   -0.53168E-06    64   0.158E-02    0.451E-03
RMM:  12    -0.239537281360E+02   -0.41825E-05   -0.13237E-05    64   0.210E-02    0.369E-03
RMM:  13    -0.239537290114E+02   -0.87541E-06   -0.10270E-06    48   0.667E-03
    6 T=   100. E= -.23887353E+02 F= -.23953729E+02 E0= -.23957606E+02  EK= 0.51856E-01 SP= 0.58E-02 SK= 0.87E-02
 bond charge predicted
 prediction of wavefunctions
       N       E                     dE             d eps       ncg     rms          rms(c)
DAV:   1    -0.239199328253E+02    0.33795E-01   -0.76049E-01    64   0.893E+00    0.678E-01
RMM:   2    -0.239413331181E+02   -0.21400E-01   -0.13375E-01    64   0.258E+00    0.110E+00
RMM:   3    -0.239136256952E+02    0.27707E-01   -0.88793E-02    64   0.177E+00    0.251E-01
RMM:   4    -0.239151848474E+02   -0.15592E-02   -0.63560E-03    64   0.586E-01    0.142E-01
RMM:   5    -0.239152687647E+02   -0.83917E-04   -0.43519E-03    64   0.418E-01    0.912E-02
RMM:   6    -0.239151522368E+02    0.11653E-03   -0.12255E-03    64   0.207E-01    0.432E-02
RMM:   7    -0.239151314544E+02    0.20782E-04   -0.17241E-04    64   0.906E-02    0.209E-02
RMM:   8    -0.239151413848E+02   -0.99304E-05   -0.43628E-05    64   0.419E-02    0.943E-03
RMM:   9    -0.239151588841E+02   -0.17499E-04   -0.83323E-06    64   0.206E-02    0.768E-03
RMM:  10    -0.239151758724E+02   -0.16988E-04   -0.23576E-05    64   0.288E-02    0.524E-03
RMM:  11    -0.239151891040E+02   -0.13232E-04   -0.11880E-05    64   0.209E-02    0.119E-02
RMM:  12    -0.239151877640E+02    0.13399E-05   -0.30006E-05    64   0.310E-02    0.223E-03
RMM:  13    -0.239151883859E+02   -0.62183E-06   -0.45202E-07    48   0.599E-03
    7 T=    75. E= -.23855624E+02 F= -.23915188E+02 E0= -.23919057E+02  EK= 0.38779E-01 SP= 0.95E-02 SK= 0.11E-01
 bond charge predicted
 prediction of wavefunctions
       N       E                     dE             d eps       ncg     rms          rms(c)
DAV:   1    -0.239332835673E+02   -0.18096E-01   -0.61643E-01    64   0.774E+00    0.452E-01
RMM:   2    -0.239403573604E+02   -0.70738E-02   -0.58960E-02    64   0.165E+00    0.650E-01
RMM:   3    -0.239308732318E+02    0.94841E-02   -0.70834E-02    64   0.155E+00    0.252E-01
RMM:   4    -0.239299427647E+02    0.93047E-03   -0.13139E-02    64   0.729E-01    0.125E-01
RMM:   5    -0.239311216664E+02   -0.11789E-02   -0.10072E-02    64   0.578E-01    0.127E-01
RMM:   6    -0.239307695575E+02    0.35211E-03   -0.30719E-03    64   0.323E-01    0.227E-02
RMM:   7    -0.239309186497E+02   -0.14909E-03   -0.65475E-04    72   0.163E-01    0.601E-02
RMM:   8    -0.239308729766E+02    0.45673E-04   -0.11419E-03    64   0.191E-01    0.227E-02
RMM:   9    -0.239308585542E+02    0.14422E-04   -0.31547E-05    64   0.385E-02    0.823E-03
RMM:  10    -0.239308613403E+02   -0.27862E-05   -0.32110E-05    64   0.332E-02    0.438E-03
RMM:  11    -0.239308626386E+02   -0.12983E-05   -0.26756E-06    58   0.102E-02    0.182E-03
RMM:  12    -0.239308642394E+02   -0.16007E-05   -0.49074E-07    48   0.484E-03    0.573E-04
RMM:  13    -0.239308645448E+02   -0.30540E-06   -0.16174E-07    48   0.294E-03
    8 T=    96. E= -.23853662E+02 F= -.23930865E+02 E0= -.23935459E+02  EK= 0.49526E-01 SP= 0.13E-01 SK= 0.14E-01
 bond charge predicted
 prediction of wavefunctions
       N       E                     dE             d eps       ncg     rms          rms(c)
DAV:   1    -0.239858644990E+02   -0.55000E-01   -0.70206E-01    64   0.809E+00    0.404E-01
RMM:   2    -0.240095551457E+02   -0.23691E-01   -0.13350E-01    64   0.233E+00    0.932E-01
RMM:   3    -0.240299220347E+02   -0.20367E-01   -0.36257E-02    64   0.120E+00    0.126E+00
RMM:   4    -0.239827718494E+02    0.47150E-01   -0.20752E-01    64   0.260E+00    0.169E-01
RMM:   5    -0.239849910611E+02   -0.22192E-02   -0.27426E-03    64   0.444E-01    0.224E-01
RMM:   6    -0.239844217140E+02    0.56935E-03   -0.62167E-03    64   0.474E-01    0.103E-01
RMM:   7    -0.239846046121E+02   -0.18290E-03   -0.38555E-04    64   0.128E-01    0.705E-02
RMM:   8    -0.239848224833E+02   -0.21787E-03   -0.19927E-04    64   0.891E-02    0.836E-02
RMM:   9    -0.239848470463E+02   -0.24563E-04   -0.80820E-05    64   0.588E-02    0.788E-02
RMM:  10    -0.239848201482E+02    0.26898E-04   -0.28168E-05    64   0.346E-02    0.582E-02
RMM:  11    -0.239848090286E+02    0.11120E-04   -0.44081E-04    64   0.123E-01    0.200E-02
RMM:  12    -0.239848245954E+02   -0.15567E-04   -0.31158E-05    64   0.389E-02    0.964E-03
RMM:  13    -0.239848343470E+02   -0.97516E-05   -0.15013E-05    64   0.244E-02    0.106E-02
RMM:  14    -0.239848383549E+02   -0.40078E-05   -0.12798E-05    64   0.217E-02    0.336E-03
RMM:  15    -0.239848436251E+02   -0.52703E-05   -0.10491E-06    48   0.716E-03    0.113E-03
RMM:  16    -0.239848456591E+02   -0.20339E-05   -0.18549E-07    48   0.313E-03    0.765E-04
RMM:  17    -0.239848465573E+02   -0.89819E-06   -0.13467E-07    48   0.234E-03
    9 T=   153. E= -.23866083E+02 F= -.23984847E+02 E0= -.23996052E+02  EK= 0.79120E-01 SP= 0.18E-01 SK= 0.22E-01
 bond charge predicted
 prediction of wavefunctions
       N       E                     dE             d eps       ncg     rms          rms(c)
DAV:   1    -0.239728985665E+02    0.11947E-01   -0.72580E-01    64   0.741E+00    0.689E-01
RMM:   2    -0.239687109516E+02    0.41876E-02   -0.59469E-02    64   0.186E+00    0.463E-01
RMM:   3    -0.239855675347E+02   -0.16857E-01   -0.89809E-02    64   0.187E+00    0.962E-01
RMM:   4    -0.239767675472E+02    0.88000E-02   -0.58067E-02    64   0.151E+00    0.402E-01
RMM:   5    -0.239713023022E+02    0.54652E-02   -0.40235E-02    64   0.119E+00    0.254E-01
RMM:   6    -0.239696965210E+02    0.16058E-02   -0.37522E-03    64   0.396E-01    0.278E-01
RMM:   7    -0.239702986724E+02   -0.60215E-03   -0.31604E-04    64   0.129E-01    0.304E-01
RMM:   8    -0.239690709461E+02    0.12277E-02   -0.18668E-03    64   0.263E-01    0.244E-01
RMM:   9    -0.239685902307E+02    0.48072E-03   -0.45422E-03    64   0.403E-01    0.177E-01
RMM:  10    -0.239684483462E+02    0.14188E-03   -0.24701E-03    64   0.301E-01    0.107E-01
RMM:  11    -0.239683844005E+02    0.63946E-04   -0.44027E-04    64   0.130E-01    0.641E-02
RMM:  12    -0.239683750191E+02    0.93814E-05   -0.13018E-04    64   0.710E-02    0.305E-02
RMM:  13    -0.239684130892E+02   -0.38070E-04   -0.22214E-05    64   0.305E-02    0.128E-02
RMM:  14    -0.239684556777E+02   -0.42589E-04   -0.13029E-04    64   0.668E-02    0.216E-02
RMM:  15    -0.239684485228E+02    0.71549E-05   -0.12138E-05    64   0.214E-02    0.732E-03
RMM:  16    -0.239684527635E+02   -0.42406E-05   -0.42458E-06    60   0.131E-02    0.321E-03
RMM:  17    -0.239684556253E+02   -0.28618E-05   -0.43771E-07    48   0.504E-03    0.981E-04
RMM:  18    -0.239684564143E+02   -0.78903E-06   -0.27356E-07    48   0.366E-03
   10 T=   105. E= -.23859817E+02 F= -.23968456E+02 E0= -.23977594E+02  EK= 0.54202E-01 SP= 0.24E-01 SK= 0.31E-01
 bond charge predicted
 prediction of wavefunctions
 wavefunctions rotated
