<?xml version="1.0" encoding="ISO-8859-1"?>
<modeling>
 <generator>
  <i name="program" type="string">vasp </i>
  <i name="version" type="string">5.4.4.18Apr17-6-g9f103f2a35  </i>
  <i name="subversion" type="string">(build Jul 12 2018 13:43:46) complex            parallel </i>
  <i name="platform" type="string">LinuxGNU </i>
  <i name="date" type="string">2019 06 22 </i>
  <i name="time" type="string">02:17:32 </i>
 </generator>
 <incar>
  <i type="int" name="ISTART">     0</i>
  <i type="string" name="PREC">a</i>
  <i type="string" name="ALGO">fast</i>
  <i type="int" name="MAXMIX">    50</i>
  <i type="int" name="ICHARG">     2</i>
  <i type="int" name="IBRION">     0</i>
  <i name="EDIFF">      0.00000100</i>
  <i type="int" name="NSW">    10</i>
  <i type="int" name="ISIF">     2</i>
  <i type="int" name="ISYM">     0</i>
  <i type="int" name="NBLOCK">     1</i>
  <i type="int" name="KBLOCK">   100</i>
  <i name="ENCUT">    400.00000000</i>
  <i name="POTIM">      2.00000000</i>
  <i name="TEBEG">     50.00000000</i>
  <i name="TEEND">     50.00000000</i>
  <i name="SMASS">      0.00000000</i>
  <i type="logical" name="LREAL"> T  </i>
  <i type="int" name="ISMEAR">     1</i>
  <i name="SIGMA">      0.20000000</i>
  <i name="KSPACING">      0.50000000</i>
  <i type="logical" name="KGAMMA"> F  </i>
  <i name="PSTRESS">      0.00000000</i>
  <i type="logical" name="LWAVE"> F  </i>
  <i type="logical" name="LCHARG"> F  </i>
  <v type="int" name="KPOINT_BSE">    -1     0     0     0</v>
 </incar>
 <structure name="primitive_cell" >
  <crystal>
   <varray name="basis" >
    <v>       9.90976879       0.00000000       0.00000000 </v>
    <v>      -0.18364353      10.02220958       0.00000000 </v>
    <v>      -0.21894471      -0.21772789       9.85247595 </v>
   </varray>
   <i name="volume">    978.52603639 </i>
   <varray name="rec_basis" >
    <v>       0.10091053       0.00184905       0.00228333 </v>
    <v>      -0.00000000       0.09977840       0.00220498 </v>
    <v>       0.00000000      -0.00000000       0.10149733 </v>
   </varray>
  </crystal>
  <varray name="positions" >
   <v>      -0.46143615       0.40714928       0.36092180 </v>
   <v>      -0.49696679       0.46817787       0.44553611 </v>
   <v>      -0.47141980       0.41634340      -0.46107690 </v>
   <v>      -0.44827488      -0.43383315       0.44256442 </v>
   <v>       0.39377719       0.47991310       0.43869542 </v>
  </varray>
 </structure>
 <varray name="primitive_index" >
  <v type="int" >        1 </v>
  <v type="int" >        5 </v>
  <v type="int" >        4 </v>
  <v type="int" >        3 </v>
  <v type="int" >        2 </v>
 </varray>
 <kpoints>
  <generation param="Monkhorst-Pack">
   <v type="int" name="divisions">       2        2        2 </v>
   <v name="usershift">      0.00000000       0.00000000       0.00000000 </v>
   <v name="genvec1">      0.50000000       0.00000000       0.00000000 </v>
   <v name="genvec2">      0.00000000       0.50000000      -0.00000000 </v>
   <v name="genvec3">      0.00000000       0.00000000       0.50000000 </v>
   <v name="shift">      0.50000000       0.50000000       0.50000000 </v>
  </generation>
  <varray name="kpointlist" >
   <v>       0.25000000       0.25000000       0.25000000 </v>
   <v>      -0.25000000       0.25000000       0.25000000 </v>
   <v>       0.25000000      -0.25000000       0.25000000 </v>
   <v>      -0.25000000      -0.25000000       0.25000000 </v>
  </varray>
  <varray name="weights" >
   <v>       0.25000000 </v>
   <v>       0.25000000 </v>
   <v>       0.25000000 </v>
   <v>       0.25000000 </v>
  </varray>
 </kpoints>
 <parameters>
  <separator name="general" >
   <i type="string" name="SYSTEM">unknown system</i>
   <i type="logical" name="LCOMPAT"> F  </i>
  </separator>
  <separator name="electronic" >
   <i type="string" name="PREC">a</i>
   <i name="ENMAX">    400.00000000</i>
   <i name="ENAUG">    644.87300000</i>
   <i name="EDIFF">      0.00000100</i>
   <i type="int" name="IALGO">    68</i>
   <i type="int" name="IWAVPR">    12</i>
   <i type="int" name="NBANDS">     8</i>
   <i name="NELECT">      8.00000000</i>
   <i type="int" name="TURBO">     0</i>
   <i type="int" name="IRESTART">     0</i>
   <i type="int" name="NREBOOT">     0</i>
   <i type="int" name="NMIN">     0</i>
   <i name="EREF">      0.00000000</i>
   <separator name="electronic smearing" >
    <i type="int" name="ISMEAR">     1</i>
    <i name="SIGMA">      0.20000000</i>
    <i name="KSPACING">      0.50000000</i>
    <i type="logical" name="KGAMMA"> F  </i>
   </separator>
   <separator name="electronic projectors" >
    <i type="logical" name="LREAL"> T  </i>
    <v name="ROPT">      0.00000000      0.00000000</v>
    <i type="int" name="LMAXPAW">  -100</i>
    <i type="int" name="LMAXMIX">     2</i>
    <i type="logical" name="NLSPLINE"> F  </i>
   </separator>
   <separator name="electronic startup" >
    <i type="int" name="ISTART">     0</i>
    <i type="int" name="ICHARG">     2</i>
    <i type="int" name="INIWAV">     1</i>
   </separator>
   <separator name="electronic spin" >
    <i type="int" name="ISPIN">     1</i>
    <i type="logical" name="LNONCOLLINEAR"> F  </i>
    <v name="MAGMOM">      1.00000000      1.00000000      1.00000000      1.00000000      1.00000000</v>
    <i name="NUPDOWN">     -1.00000000</i>
    <i type="logical" name="LSORBIT"> F  </i>
    <v name="SAXIS">      0.00000000      0.00000000      1.00000000</v>
    <i type="logical" name="LSPIRAL"> F  </i>
    <v name="QSPIRAL">      0.00000000      0.00000000      0.00000000</v>
    <i type="logical" name="LZEROZ"> F  </i>
   </separator>
   <separator name="electronic exchange-correlation" >
    <i type="logical" name="LASPH"> F  </i>
    <i type="logical" name="LMETAGGA"> F  </i>
   </separator>
   <separator name="electronic convergence" >
    <i type="int" name="NELM">    60</i>
    <i type="int" name="NELMDL">    -5</i>
    <i type="int" name="NELMIN">     2</i>
    <i name="ENINI">    400.00000000</i>
    <separator name="electronic convergence detail" >
     <i type="logical" name="LDIAG"> T  </i>
     <i type="logical" name="LSUBROT"> F  </i>
     <i name="WEIMIN">      0.00100000</i>
     <i name="EBREAK">      0.00000003</i>
     <i name="DEPER">      0.30000000</i>
     <i type="int" name="NRMM">     4</i>
     <i name="TIME">      0.40000000</i>
    </separator>
   </separator>
   <separator name="electronic mixer" >
    <i name="AMIX">      0.40000000</i>
    <i name="BMIX">      1.00000000</i>
    <i name="AMIN">      0.10000000</i>
    <i name="AMIX_MAG">      1.60000000</i>
    <i name="BMIX_MAG">      1.00000000</i>
    <separator name="electronic mixer details" >
     <i type="int" name="IMIX">     4</i>
     <i type="logical" name="MIXFIRST"> F  </i>
     <i type="int" name="MAXMIX">    50</i>
     <i name="WC">    100.00000000</i>
     <i type="int" name="INIMIX">     1</i>
     <i type="int" name="MIXPRE">     1</i>
     <i type="int" name="MREMOVE">     5</i>
    </separator>
   </separator>
   <separator name="electronic dipolcorrection" >
    <i type="logical" name="LDIPOL"> F  </i>
    <i type="logical" name="LMONO"> F  </i>
    <i type="int" name="IDIPOL">     0</i>
    <i name="EPSILON">      1.00000000</i>
    <v name="DIPOL">   -100.00000000   -100.00000000   -100.00000000</v>
    <i name="EFIELD">      0.00000000</i>
   </separator>
  </separator>
  <separator name="grids" >
   <i type="int" name="NGX">    70</i>
   <i type="int" name="NGY">    70</i>
   <i type="int" name="NGZ">    64</i>
   <i type="int" name="NGXF">   140</i>
   <i type="int" name="NGYF">   140</i>
   <i type="int" name="NGZF">   128</i>
   <i type="logical" name="ADDGRID"> F  </i>
  </separator>
  <separator name="ionic" >
   <i type="int" name="NSW">    10</i>
   <i type="int" name="IBRION">     0</i>
   <i type="int" name="MDALGO">     0</i>
   <i type="int" name="ISIF">     2</i>
   <i name="PSTRESS">      0.00000000</i>
   <i name="EDIFFG">      0.00001000</i>
   <i type="int" name="NFREE">     0</i>
   <i name="POTIM">      2.00000000</i>
   <i name="SMASS">      0.00164707</i>
   <i name="SCALEE">      1.00000000</i>
  </separator>
  <separator name="ionic md" >
   <i name="TEBEG">     50.00000000</i>
   <i name="TEEND">     50.00000000</i>
   <i type="int" name="NBLOCK">     1</i>
   <i type="int" name="KBLOCK">     1</i>
   <i type="int" name="NPACO">   256</i>
   <i name="APACO">     16.00000000</i>
  </separator>
  <separator name="symmetry" >
   <i type="int" name="ISYM">     0</i>
   <i name="SYMPREC">      0.00001000</i>
  </separator>
  <separator name="dos" >
   <i type="int" name="LORBIT">     0</i>
   <v name="RWIGS">     -1.00000000     -1.00000000</v>
   <i type="int" name="NEDOS">   301</i>
   <i name="EMIN">     10.00000000</i>
   <i name="EMAX">    -10.00000000</i>
   <i name="EFERMI">      0.00000000</i>
  </separator>
  <separator name="writing" >
   <i type="int" name="NWRITE">     2</i>
   <i type="logical" name="LWAVE"> F  </i>
   <i type="logical" name="LDOWNSAMPLE"> F  </i>
   <i type="logical" name="LCHARG"> F  </i>
   <i type="logical" name="LPARD"> F  </i>
   <i type="logical" name="LVTOT"> F  </i>
   <i type="logical" name="LVHAR"> F  </i>
   <i type="logical" name="LELF"> F  </i>
   <i type="logical" name="LOPTICS"> F  </i>
   <v name="STM">      0.00000000      0.00000000      0.00000000      0.00000000      0.00000000      0.00000000      0.00000000</v>
  </separator>
  <separator name="performance" >
   <i type="int" name="NPAR">     1</i>
   <i type="int" name="NSIM">     4</i>
   <i type="int" name="NBLK">    -1</i>
   <i type="logical" name="LPLANE"> T  </i>
   <i type="logical" name="LSCALAPACK"> T  </i>
   <i type="logical" name="LSCAAWARE"> F  </i>
   <i type="logical" name="LSCALU"> F  </i>
   <i type="logical" name="LASYNC"> F  </i>
   <i type="logical" name="LORBITALREAL"> F  </i>
  </separator>
  <separator name="miscellaneous" >
   <i type="int" name="IDIOT">     3</i>
   <i type="int" name="ISPECIAL">     0</i>
   <i type="logical" name="LMUSIC"> F  </i>
   <v name="POMASS">      1.00000000     12.01100000</v>
   <v name="DARWINR">      0.00000000      0.00000000</v>
   <v name="DARWINV">      1.00000000      1.00000000</v>
   <i type="logical" name="LCORR"> T  </i>
  </separator>
  <i type="logical" name="GGA_COMPAT"> T  </i>
  <i type="logical" name="LBERRY"> F  </i>
  <i type="int" name="ICORELEVEL">     0</i>
  <i type="logical" name="LDAU"> F  </i>
  <i type="int" name="I_CONSTRAINED_M">     0</i>
  <separator name="electronic exchange-correlation" >
   <i type="string" name="GGA">--</i>
   <i type="int" name="VOSKOWN">     0</i>
   <i type="logical" name="LHFCALC"> F  </i>
   <i type="string" name="PRECFOCK"></i>
   <i type="logical" name="LSYMGRAD"> F  </i>
   <i type="logical" name="LHFONE"> F  </i>
   <i type="logical" name="LRHFCALC"> F  </i>
   <i type="logical" name="LTHOMAS"> F  </i>
   <i type="logical" name="LMODELHF"> F  </i>
   <i name="ENCUT4O">     -1.00000000</i>
   <i type="int" name="EXXOEP">     0</i>
   <i type="int" name="FOURORBIT">     0</i>
   <i name="AEXX">      0.00000000</i>
   <i name="HFALPHA">      0.00000000</i>
   <i name="MCALPHA">      0.00000000</i>
   <i name="ALDAX">      1.00000000</i>
   <i name="AGGAX">      1.00000000</i>
   <i name="ALDAC">      1.00000000</i>
   <i name="AGGAC">      1.00000000</i>
   <i type="int" name="NKREDX">     1</i>
   <i type="int" name="NKREDY">     1</i>
   <i type="int" name="NKREDZ">     1</i>
   <i type="logical" name="SHIFTRED"> F  </i>
   <i type="logical" name="ODDONLY"> F  </i>
   <i type="logical" name="EVENONLY"> F  </i>
   <i type="int" name="LMAXFOCK">     0</i>
   <i type="int" name="NMAXFOCKAE">     0</i>
   <i type="logical" name="LFOCKAEDFT"> F  </i>
   <i name="HFSCREEN">      0.00000000</i>
   <i name="HFSCREENC">      0.00000000</i>
   <i type="int" name="NBANDSGWLOW">     0</i>
  </separator>
  <separator name="vdW DFT" >
   <i type="logical" name="LUSE_VDW"> F  </i>
   <i name="Zab_VDW">     -0.84910000</i>
   <i name="PARAM1">      0.12340000</i>
   <i name="PARAM2">      1.00000000</i>
   <i name="PARAM3">      0.00000000</i>
  </separator>
  <separator name="model GW" >
   <i type="int" name="MODEL_GW">     0</i>
   <i name="MODEL_EPS0">    117.42312437</i>
   <i name="MODEL_ALPHA">      1.00000000</i>
  </separator>
  <separator name="linear response parameters" >
   <i type="logical" name="LEPSILON"> F  </i>
   <i type="logical" name="LRPA"> F  </i>
   <i type="logical" name="LNABLA"> F  </i>
   <i type="logical" name="LVEL"> F  </i>
   <i type="int" name="KINTER">     0</i>
   <i name="CSHIFT">      0.10000000</i>
   <i name="OMEGAMAX">     -1.00000000</i>
   <i name="DEG_THRESHOLD">      0.00200000</i>
   <i name="RTIME">     -0.10000000</i>
   <i name="WPLASMAI">      0.00000000</i>
   <v name="DFIELD">      0.00000000      0.00000000      0.00000000</v>
   <v name="WPLASMA">      0.00000000      0.00000000      0.00000000      0.00000000      0.00000000      0.00000000      0.00000000      0.00000000      0.00000000</v>
  </separator>
  <separator name="orbital magnetization" >
   <i type="logical" name="NUCIND"> F  </i>
   <v name="MAGPOS">      0.00000000      0.00000000      0.00000000</v>
   <i type="logical" name="LNICSALL"> T  </i>
   <i type="logical" name="ORBITALMAG"> F  </i>
   <i type="logical" name="LMAGBLOCH"> F  </i>
   <i type="logical" name="LCHIMAG"> F  </i>
   <i type="logical" name="LGAUGE"> T  </i>
   <i type="int" name="MAGATOM">     0</i>
   <v name="MAGDIPOL">      0.00000000      0.00000000      0.00000000</v>
   <v name="AVECCONST">      0.00000000      0.00000000      0.00000000</v>
  </separator>
  <separator name="response functions" >
   <i type="logical" name="LADDER"> F  </i>
   <i type="logical" name="LRPAFORCE"> F  </i>
   <i type="logical" name="LFXC"> F  </i>
   <i type="logical" name="LHARTREE"> T  </i>
   <i type="int" name="IBSE">     0</i>
   <v type="int" name="KPOINT">    -1     0     0     0</v>
   <i type="logical" name="LTCTE"> F  </i>
   <i type="logical" name="LTETE"> F  </i>
   <i type="logical" name="LTRIPLET"> F  </i>
   <i type="logical" name="LFXCEPS"> F  </i>
   <i type="logical" name="LFXHEG"> F  </i>
   <i type="int" name="NATURALO">     2</i>
   <i type="logical" name="L2ORDER"> F  </i>
   <i type="logical" name="LMP2LT"> F  </i>
   <i type="logical" name="LUSEW"> F  </i>
   <i name="ENCUTGW">     -2.00000000</i>
   <i name="ENCUTGWSOFT">     -2.00000000</i>
   <i name="ENCUTLF">     -1.00000000</i>
   <i type="int" name="LMAXMP2">    -1</i>
   <i name="SCISSOR">      0.00000000</i>
   <i type="int" name="NOMEGA">     0</i>
   <i type="int" name="NOMEGAR">     0</i>
   <i type="int" name="NBANDSGW">    -1</i>
   <i type="int" name="NBANDSO">    -1</i>
   <i type="int" name="NBANDSV">    -1</i>
   <i type="int" name="NELM">     1</i>
   <i type="int" name="NELMHF">     1</i>
   <i type="int" name="DIM">     3</i>
   <i type="int" name="ANTIRES">     0</i>
   <i name="OMEGAMAX">    -30.00000000</i>
   <i name="OMEGAMIN">    -30.00000000</i>
   <i name="OMEGATL">   -200.00000000</i>
   <i type="int" name="OMEGAGRID">   140</i>
   <i name="CSHIFT">     -0.10000000</i>
   <i type="logical" name="SELFENERGY"> F  </i>
   <i type="logical" name="LSPECTRAL"> F  </i>
   <i type="logical" name="LSPECTRALGW"> F  </i>
   <i type="logical" name="LSINGLES"> F  </i>
   <i type="logical" name="LFERMIGW"> F  </i>
   <i type="logical" name="ODDONLYGW"> F  </i>
   <i type="logical" name="EVENONLYGW"> F  </i>
   <i type="int" name="NKREDLFX">     1</i>
   <i type="int" name="NKREDLFY">     1</i>
   <i type="int" name="NKREDLFZ">     1</i>
   <i type="int" name="MAXMEM">  2800</i>
   <i type="int" name="TELESCOPE">     0</i>
   <i type="int" name="TAUPAR">     1</i>
   <i type="int" name="OMEGAPAR">    -1</i>
   <i name="LAMBDA">      1.00000000</i>
  </separator>
  <separator name="External order field" >
   <i name="OFIELD_KAPPA">      0.00000000</i>
   <v name="OFIELD_K">      0.00000000      0.00000000      0.00000000</v>
   <i name="OFIELD_Q6_NEAR">      0.00000000</i>
   <i name="OFIELD_Q6_FAR">      0.00000000</i>
   <i name="OFIELD_A">      0.00000000</i>
  </separator>
 </parameters>
 <atominfo>
  <atoms>       5 </atoms>
  <types>       2 </types>
  <array name="atoms" >
   <dimension dim="1">ion</dimension>
   <field type="string">element</field>
   <field type="int">atomtype</field>
   <set>
    <rc><c>H </c><c>   1</c></rc>
    <rc><c>H </c><c>   1</c></rc>
    <rc><c>H </c><c>   1</c></rc>
    <rc><c>H </c><c>   1</c></rc>
    <rc><c>C </c><c>   2</c></rc>
   </set>
  </array>
  <array name="atomtypes" >
   <dimension dim="1">type</dimension>
   <field type="int">atomspertype</field>
   <field type="string">element</field>
   <field>mass</field>
   <field>valence</field>
   <field type="string">pseudopotential</field>
   <set>
    <rc><c>   4</c><c>H </c><c>      1.00000000</c><c>      1.00000000</c><c>  PAW_PBE H 15Jun2001                   </c></rc>
    <rc><c>   1</c><c>C </c><c>     12.01100000</c><c>      4.00000000</c><c>  PAW_PBE C 08Apr2002                   </c></rc>
   </set>
  </array>
 </atominfo>
 <structure name="initialpos" >
  <crystal>
   <varray name="basis" >
    <v>       9.90976879       0.00000000       0.00000000 </v>
    <v>      -0.18364353      10.02220958       0.00000000 </v>
    <v>      -0.21894471      -0.21772789       9.85247595 </v>
   </varray>
   <i name="volume">    978.52603639 </i>
   <varray name="rec_basis" >
    <v>       0.10091053       0.00184905       0.00228333 </v>
    <v>      -0.00000000       0.09977840       0.00220498 </v>
    <v>       0.00000000      -0.00000000       0.10149733 </v>
   </varray>
  </crystal>
  <varray name="positions" >
   <v>       0.53856385       0.40714928       0.36092180 </v>
   <v>       0.39377719       0.47991310       0.43869542 </v>
   <v>       0.55172512       0.56616685       0.44256442 </v>
   <v>       0.52858020       0.41634340       0.53892310 </v>
   <v>       0.50303321       0.46817787       0.44553611 </v>
  </varray>
  <varray name="velocities" >
   <v>       0.00145930       0.00192700       0.00173385 </v>
   <v>       0.00023867      -0.00025485       0.00027471 </v>
   <v>      -0.00129393       0.00025189      -0.00248953 </v>
   <v>      -0.00152918      -0.00013353      -0.00098840 </v>
   <v>       0.00009368      -0.00014907       0.00012234 </v>
  </varray>
 </structure>
 <calculation>
  <scstep>
   <time name="dav">    2.15    2.15</time>
   <time name="total">    3.77    3.78</time>
   <energy>
    <i name="alphaZ">      0.24756704 </i>
    <i name="ewald">    129.07316621 </i>
    <i name="hartreedc">   -243.75604701 </i>
    <i name="XCdc">     22.04053010 </i>
    <i name="pawpsdc">    117.05815612 </i>
    <i name="pawaedc">   -117.66307307 </i>
    <i name="eentropy">     -0.03331509 </i>
    <i name="bandstr">    -77.33253644 </i>
    <i name="atom">    197.04175453 </i>
    <i name="e_fr_energy">     26.67620239 </i>
    <i name="e_wo_entrp">     26.70951748 </i>
    <i name="e_0_energy">     26.68730742 </i>
   </energy>
  </scstep>
  <scstep>
   <time name="dav">    2.06    2.07</time>
   <time name="total">    2.06    2.07</time>
   <energy>
    <i name="e_fr_energy">    -20.73058425 </i>
    <i name="e_wo_entrp">    -20.73610119 </i>
    <i name="e_0_energy">    -20.73242323 </i>
   </energy>
  </scstep>
  <scstep>
   <time name="dav">    1.77    1.78</time>
   <time name="total">    1.77    1.78</time>
   <energy>
    <i name="e_fr_energy">    -27.31693799 </i>
    <i name="e_wo_entrp">    -27.33524982 </i>
    <i name="e_0_energy">    -27.32304193 </i>
   </energy>
  </scstep>
  <scstep>
   <time name="dav">    3.21    3.21</time>
   <time name="total">    3.21    3.21</time>
   <energy>
    <i name="e_fr_energy">    -27.59268390 </i>
    <i name="e_wo_entrp">    -27.60974418 </i>
    <i name="e_0_energy">    -27.59837066 </i>
   </energy>
  </scstep>
  <scstep>
   <time name="dav">    2.66    2.67</time>
   <time name="total">    2.88    2.89</time>
   <energy>
    <i name="e_fr_energy">    -27.59277537 </i>
    <i name="e_wo_entrp">    -27.60983508 </i>
    <i name="e_0_energy">    -27.59846194 </i>
   </energy>
  </scstep>
  <scstep>
   <time name="diag">    0.37    0.37</time>
   <time name="diis">    1.32    1.32</time>
   <time name="orth">    0.01    0.01</time>
   <time name="total">    3.62    3.63</time>
   <energy>
    <i name="e_fr_energy">    -24.63636706 </i>
    <i name="e_wo_entrp">    -24.65465307 </i>
    <i name="e_0_energy">    -24.64246239 </i>
   </energy>
  </scstep>
  <scstep>
   <time name="diag">    0.37    0.37</time>
   <time name="diis">    1.28    1.28</time>
   <time name="orth">    0.01    0.01</time>
   <time name="total">    3.57    3.58</time>
   <energy>
    <i name="e_fr_energy">    -24.13054346 </i>
    <i name="e_wo_entrp">    -24.15059232 </i>
    <i name="e_0_energy">    -24.13722642 </i>
   </energy>
  </scstep>
  <scstep>
   <time name="diag">    0.37    0.37</time>
   <time name="diis">    1.28    1.28</time>
   <time name="orth">    0.01    0.01</time>
   <time name="total">    3.59    3.60</time>
   <energy>
    <i name="e_fr_energy">    -23.98338032 </i>
    <i name="e_wo_entrp">    -24.00565094 </i>
    <i name="e_0_energy">    -23.99080386 </i>
   </energy>
  </scstep>
  <scstep>
   <time name="diag">    0.38    0.38</time>
   <time name="diis">    1.28    1.28</time>
   <time name="orth">    0.01    0.01</time>
   <time name="total">    3.58    3.59</time>
   <energy>
    <i name="e_fr_energy">    -23.97783971 </i>
    <i name="e_wo_entrp">    -24.00057740 </i>
    <i name="e_0_energy">    -23.98541894 </i>
   </energy>
  </scstep>
  <scstep>
   <time name="diag">    0.39    0.39</time>
   <time name="diis">    1.27    1.27</time>
   <time name="orth">    0.01    0.01</time>
   <time name="total">    3.50    3.51</time>
   <energy>
    <i name="e_fr_energy">    -23.97178614 </i>
    <i name="e_wo_entrp">    -23.99563000 </i>
    <i name="e_0_energy">    -23.97973409 </i>
   </energy>
  </scstep>
  <scstep>
   <time name="diag">    0.39    0.39</time>
   <time name="diis">    1.29    1.29</time>
   <time name="orth">    0.01    0.01</time>
   <time name="total">    3.52    3.53</time>
   <energy>
    <i name="e_fr_energy">    -23.97229611 </i>
    <i name="e_wo_entrp">    -23.99624572 </i>
    <i name="e_0_energy">    -23.98027931 </i>
   </energy>
  </scstep>
  <scstep>
   <time name="diag">    0.38    0.38</time>
   <time name="diis">    1.37    1.37</time>
   <time name="orth">    0.01    0.01</time>
   <time name="total">    3.45    3.46</time>
   <energy>
    <i name="e_fr_energy">    -23.98230494 </i>
    <i name="e_wo_entrp">    -24.00642509 </i>
    <i name="e_0_energy">    -23.99034499 </i>
   </energy>
  </scstep>
  <scstep>
   <time name="diag">    0.38    0.38</time>
   <time name="diis">    1.38    1.38</time>
   <time name="orth">    0.01    0.01</time>
   <time name="total">    3.47    3.47</time>
   <energy>
    <i name="e_fr_energy">    -23.98263021 </i>
    <i name="e_wo_entrp">    -24.00677315 </i>
    <i name="e_0_energy">    -23.99067786 </i>
   </energy>
  </scstep>
  <scstep>
   <time name="diag">    0.37    0.37</time>
   <time name="diis">    1.34    1.34</time>
   <time name="orth">    0.01    0.01</time>
   <time name="total">    3.42    3.42</time>
   <energy>
    <i name="e_fr_energy">    -23.98532454 </i>
    <i name="e_wo_entrp">    -24.00942078 </i>
    <i name="e_0_energy">    -23.99335662 </i>
   </energy>
  </scstep>
  <scstep>
   <time name="diag">    0.36    0.37</time>
   <time name="diis">    1.32    1.33</time>
   <time name="orth">    0.01    0.01</time>
   <time name="total">    3.42    3.43</time>
   <energy>
    <i name="e_fr_energy">    -23.98567696 </i>
    <i name="e_wo_entrp">    -24.00973735 </i>
    <i name="e_0_energy">    -23.99369709 </i>
   </energy>
  </scstep>
  <scstep>
   <time name="diag">    0.38    0.39</time>
   <time name="diis">    1.31    1.31</time>
   <time name="orth">    0.01    0.01</time>
   <time name="total">    3.45    3.46</time>
   <energy>
    <i name="e_fr_energy">    -23.98584858 </i>
    <i name="e_wo_entrp">    -24.00989556 </i>
    <i name="e_0_energy">    -23.99386424 </i>
   </energy>
  </scstep>
  <scstep>
   <time name="diag">    0.38    0.38</time>
   <time name="diis">    1.37    1.37</time>
   <time name="orth">    0.01    0.01</time>
   <time name="total">    3.54    3.54</time>
   <energy>
    <i name="e_fr_energy">    -23.98590783 </i>
    <i name="e_wo_entrp">    -24.00995762 </i>
    <i name="e_0_energy">    -23.99392443 </i>
   </energy>
  </scstep>
  <scstep>
   <time name="diag">    0.38    0.38</time>
   <time name="diis">    1.29    1.29</time>
   <time name="orth">    0.01    0.01</time>
   <time name="total">    3.49    3.50</time>
   <energy>
    <i name="e_fr_energy">    -23.98591851 </i>
    <i name="e_wo_entrp">    -24.00996672 </i>
    <i name="e_0_energy">    -23.99393458 </i>
   </energy>
  </scstep>
  <scstep>
   <time name="diag">    0.38    0.38</time>
   <time name="diis">    1.37    1.37</time>
   <time name="orth">    0.01    0.01</time>
   <time name="total">    3.61    3.62</time>
   <energy>
    <i name="e_fr_energy">    -23.98592135 </i>
    <i name="e_wo_entrp">    -24.00997142 </i>
    <i name="e_0_energy">    -23.99393804 </i>
   </energy>
  </scstep>
  <scstep>
   <time name="diag">    0.36    0.36</time>
   <time name="diis">    1.06    1.07</time>
   <time name="orth">    0.01    0.01</time>
   <time name="total">    3.08    3.09</time>
   <energy>
    <i name="alphaZ">      0.24756704 </i>
    <i name="ewald">    129.07316621 </i>
    <i name="hartreedc">   -284.73484779 </i>
    <i name="XCdc">     24.80177170 </i>
    <i name="pawpsdc">    495.89969281 </i>
    <i name="pawaedc">   -496.69319276 </i>
    <i name="eentropy">      0.02404993 </i>
    <i name="bandstr">    -89.64588383 </i>
    <i name="atom">    197.04175453 </i>
    <i name="e_fr_energy">    -23.98592217 </i>
    <i name="e_wo_entrp">    -24.00997209 </i>
    <i name="e_0_energy">    -23.99393881 </i>
   </energy>
  </scstep>
  <structure>
   <crystal>
    <varray name="basis" >
     <v>       9.90976879       0.00000000       0.00000000 </v>
     <v>      -0.18364353      10.02220958       0.00000000 </v>
     <v>      -0.21894471      -0.21772789       9.85247595 </v>
    </varray>
    <i name="volume">    978.52603639 </i>
    <varray name="rec_basis" >
     <v>       0.10091053       0.00184905       0.00228333 </v>
     <v>      -0.00000000       0.09977840       0.00220498 </v>
     <v>       0.00000000      -0.00000000       0.10149733 </v>
    </varray>
   </crystal>
   <varray name="positions" >
    <v>       0.53856385       0.40714928       0.36092180 </v>
    <v>       0.39377719       0.47991310       0.43869542 </v>
    <v>       0.55172512       0.56616685       0.44256442 </v>
    <v>       0.52858020       0.41634340       0.53892310 </v>
    <v>       0.50303321       0.46817787       0.44553611 </v>
   </varray>
  </structure>
  <varray name="forces" >
   <v>       0.09102971      -0.38628344       0.06208050 </v>
   <v>       0.18388293       0.40413686      -0.21765574 </v>
   <v>       0.47858601       0.68705512       0.13909266 </v>
   <v>      -0.18462020      -0.21988829       0.60323387 </v>
   <v>      -0.25371782       0.23991793      -0.07257239 </v>
  </varray>
  <varray name="stress" >
   <v>      -0.48886457      -0.09632937       0.27006565 </v>
   <v>      -0.09632937       0.32129997       0.65230608 </v>
   <v>       0.27006565       0.65230609      -0.18872992 </v>
  </varray>
  <energy>
   <i name="e_fr_energy">    -23.98592217 </i>
   <i name="e_wo_entrp">    -23.99393881 </i>
   <i name="e_0_energy">      0.02404993 </i>
   <i name="kinetic">      0.02473756 </i>
   <i name="lattice kinetic">      0.00000000 </i>
   <i name="nosepot">      0.00000000 </i>
   <i name="nosekinetic">      0.00000015 </i>
   <i name="total">    -23.96118446 </i>
  </energy>
  <dos>
   <i name="efermi">     -8.99428334 </i>
   <total>
    <array>
     <dimension dim="1">gridpoints</dimension>
     <dimension dim="2">spin</dimension>
     <field>energy</field>
     <field>total</field>
     <field>integrated</field>
     <set>
      <set comment="spin 1">
       <r>   -18.9150     0.0000     0.0000 </r>
       <r>   -18.8429     0.0000     0.0000 </r>
       <r>   -18.7708     0.0000     0.0000 </r>
       <r>   -18.6986     0.0000     0.0000 </r>
       <r>   -18.6265     0.0000     0.0000 </r>
       <r>   -18.5544    -0.0000    -0.0000 </r>
       <r>   -18.4823    -0.0000    -0.0000 </r>
       <r>   -18.4101    -0.0000    -0.0000 </r>
       <r>   -18.3380    -0.0000    -0.0000 </r>
       <r>   -18.2659    -0.0000    -0.0000 </r>
       <r>   -18.1938    -0.0000    -0.0000 </r>
       <r>   -18.1216    -0.0000    -0.0000 </r>
       <r>   -18.0495    -0.0000    -0.0000 </r>
       <r>   -17.9774    -0.0000    -0.0000 </r>
       <r>   -17.9053    -0.0000    -0.0000 </r>
       <r>   -17.8331    -0.0000    -0.0000 </r>
       <r>   -17.7610    -0.0000    -0.0000 </r>
       <r>   -17.6889    -0.0000    -0.0000 </r>
       <r>   -17.6168    -0.0001    -0.0000 </r>
       <r>   -17.5446    -0.0010    -0.0001 </r>
       <r>   -17.4725    -0.0070    -0.0006 </r>
       <r>   -17.4004    -0.0361    -0.0032 </r>
       <r>   -17.3283    -0.1337    -0.0128 </r>
       <r>   -17.2561    -0.3296    -0.0366 </r>
       <r>   -17.1840    -0.4235    -0.0672 </r>
       <r>   -17.1119     0.2813    -0.0469 </r>
       <r>   -17.0397     2.5798     0.1392 </r>
       <r>   -16.9676     5.9902     0.5712 </r>
       <r>   -16.8955     8.2200     1.1641 </r>
       <r>   -16.8234     7.3252     1.6925 </r>
       <r>   -16.7512     4.1167     1.9894 </r>
       <r>   -16.6791     1.1212     2.0702 </r>
       <r>   -16.6070    -0.2574     2.0517 </r>
       <r>   -16.5349    -0.4150     2.0217 </r>
       <r>   -16.4627    -0.2143     2.0063 </r>
       <r>   -16.3906    -0.0689     2.0013 </r>
       <r>   -16.3185    -0.0155     2.0002 </r>
       <r>   -16.2464    -0.0025     2.0000 </r>
       <r>   -16.1742    -0.0003     2.0000 </r>
       <r>   -16.1021    -0.0000     2.0000 </r>
       <r>   -16.0300    -0.0000     2.0000 </r>
       <r>   -15.9579    -0.0000     2.0000 </r>
       <r>   -15.8857    -0.0000     2.0000 </r>
       <r>   -15.8136    -0.0000     2.0000 </r>
       <r>   -15.7415    -0.0000     2.0000 </r>
       <r>   -15.6694    -0.0000     2.0000 </r>
       <r>   -15.5972     0.0000     2.0000 </r>
       <r>   -15.5251     0.0000     2.0000 </r>
       <r>   -15.4530     0.0000     2.0000 </r>
       <r>   -15.3809     0.0000     2.0000 </r>
       <r>   -15.3087     0.0000     2.0000 </r>
       <r>   -15.2366     0.0000     2.0000 </r>
       <r>   -15.1645     0.0000     2.0000 </r>
       <r>   -15.0924     0.0000     2.0000 </r>
       <r>   -15.0202     0.0000     2.0000 </r>
       <r>   -14.9481     0.0000     2.0000 </r>
       <r>   -14.8760     0.0000     2.0000 </r>
       <r>   -14.8039     0.0000     2.0000 </r>
       <r>   -14.7317     0.0000     2.0000 </r>
       <r>   -14.6596     0.0000     2.0000 </r>
       <r>   -14.5875     0.0000     2.0000 </r>
       <r>   -14.5154     0.0000     2.0000 </r>
       <r>   -14.4432     0.0000     2.0000 </r>
       <r>   -14.3711     0.0000     2.0000 </r>
       <r>   -14.2990     0.0000     2.0000 </r>
       <r>   -14.2269     0.0000     2.0000 </r>
       <r>   -14.1547     0.0000     2.0000 </r>
       <r>   -14.0826     0.0000     2.0000 </r>
       <r>   -14.0105     0.0000     2.0000 </r>
       <r>   -13.9384     0.0000     2.0000 </r>
       <r>   -13.8662     0.0000     2.0000 </r>
       <r>   -13.7941     0.0000     2.0000 </r>
       <r>   -13.7220     0.0000     2.0000 </r>
       <r>   -13.6499     0.0000     2.0000 </r>
       <r>   -13.5777     0.0000     2.0000 </r>
       <r>   -13.5056     0.0000     2.0000 </r>
       <r>   -13.4335     0.0000     2.0000 </r>
       <r>   -13.3614     0.0000     2.0000 </r>
       <r>   -13.2892     0.0000     2.0000 </r>
       <r>   -13.2171     0.0000     2.0000 </r>
       <r>   -13.1450     0.0000     2.0000 </r>
       <r>   -13.0729     0.0000     2.0000 </r>
       <r>   -13.0007     0.0000     2.0000 </r>
       <r>   -12.9286     0.0000     2.0000 </r>
       <r>   -12.8565     0.0000     2.0000 </r>
       <r>   -12.7844     0.0000     2.0000 </r>
       <r>   -12.7122     0.0000     2.0000 </r>
       <r>   -12.6401     0.0000     2.0000 </r>
       <r>   -12.5680     0.0000     2.0000 </r>
       <r>   -12.4959     0.0000     2.0000 </r>
       <r>   -12.4237     0.0000     2.0000 </r>
       <r>   -12.3516     0.0000     2.0000 </r>
       <r>   -12.2795     0.0000     2.0000 </r>
       <r>   -12.2074     0.0000     2.0000 </r>
       <r>   -12.1352     0.0000     2.0000 </r>
       <r>   -12.0631     0.0000     2.0000 </r>
       <r>   -11.9910     0.0000     2.0000 </r>
       <r>   -11.9189     0.0000     2.0000 </r>
       <r>   -11.8467     0.0000     2.0000 </r>
       <r>   -11.7746     0.0000     2.0000 </r>
       <r>   -11.7025     0.0000     2.0000 </r>
       <r>   -11.6303     0.0000     2.0000 </r>
       <r>   -11.5582     0.0000     2.0000 </r>
       <r>   -11.4861     0.0000     2.0000 </r>
       <r>   -11.4140     0.0000     2.0000 </r>
       <r>   -11.3418     0.0000     2.0000 </r>
       <r>   -11.2697     0.0000     2.0000 </r>
       <r>   -11.1976     0.0000     2.0000 </r>
       <r>   -11.1255     0.0000     2.0000 </r>
       <r>   -11.0533    -0.0000     2.0000 </r>
       <r>   -10.9812    -0.0000     2.0000 </r>
       <r>   -10.9091    -0.0000     2.0000 </r>
       <r>   -10.8370    -0.0000     2.0000 </r>
       <r>   -10.7648    -0.0000     2.0000 </r>
       <r>   -10.6927    -0.0000     2.0000 </r>
       <r>   -10.6206    -0.0000     2.0000 </r>
       <r>   -10.5485    -0.0000     2.0000 </r>
       <r>   -10.4763    -0.0000     2.0000 </r>
       <r>   -10.4042    -0.0000     2.0000 </r>
       <r>   -10.3321    -0.0000     2.0000 </r>
       <r>   -10.2600    -0.0000     2.0000 </r>
       <r>   -10.1878    -0.0000     2.0000 </r>
       <r>   -10.1157    -0.0002     2.0000 </r>
       <r>   -10.0436    -0.0018     1.9999 </r>
       <r>    -9.9715    -0.0120     1.9990 </r>
       <r>    -9.8993    -0.0587     1.9947 </r>
       <r>    -9.8272    -0.2059     1.9799 </r>
       <r>    -9.7551    -0.4897     1.9446 </r>
       <r>    -9.6830    -0.6373     1.8986 </r>
       <r>    -9.6108     0.2594     1.9173 </r>
       <r>    -9.5387     3.3188     2.1567 </r>
       <r>    -9.4666     8.3667     2.7601 </r>
       <r>    -9.3945    13.1466     3.7083 </r>
       <r>    -9.3223    15.1966     4.8044 </r>
       <r>    -9.2502    14.3813     5.8417 </r>
       <r>    -9.1781    12.2798     6.7274 </r>
       <r>    -9.1060     9.6192     7.4211 </r>
       <r>    -9.0338     6.1889     7.8675 </r>
       <r>    -8.9617     2.6430     8.0581 </r>
       <r>    -8.8896     0.2997     8.0798 </r>
       <r>    -8.8175    -0.4781     8.0453 </r>
       <r>    -8.7453    -0.3959     8.0167 </r>
       <r>    -8.6732    -0.1709     8.0044 </r>
       <r>    -8.6011    -0.0492     8.0009 </r>
       <r>    -8.5290    -0.0101     8.0001 </r>
       <r>    -8.4568    -0.0015     8.0000 </r>
       <r>    -8.3847    -0.0002     8.0000 </r>
       <r>    -8.3126    -0.0000     8.0000 </r>
       <r>    -8.2405    -0.0000     8.0000 </r>
       <r>    -8.1683    -0.0000     8.0000 </r>
       <r>    -8.0962    -0.0000     8.0000 </r>
       <r>    -8.0241    -0.0000     8.0000 </r>
       <r>    -7.9520    -0.0000     8.0000 </r>
       <r>    -7.8798    -0.0000     8.0000 </r>
       <r>    -7.8077     0.0000     8.0000 </r>
       <r>    -7.7356     0.0000     8.0000 </r>
       <r>    -7.6635     0.0000     8.0000 </r>
       <r>    -7.5913     0.0000     8.0000 </r>
       <r>    -7.5192     0.0000     8.0000 </r>
       <r>    -7.4471     0.0000     8.0000 </r>
       <r>    -7.3750     0.0000     8.0000 </r>
       <r>    -7.3028     0.0000     8.0000 </r>
       <r>    -7.2307     0.0000     8.0000 </r>
       <r>    -7.1586     0.0000     8.0000 </r>
       <r>    -7.0865     0.0000     8.0000 </r>
       <r>    -7.0143     0.0000     8.0000 </r>
       <r>    -6.9422     0.0000     8.0000 </r>
       <r>    -6.8701     0.0000     8.0000 </r>
       <r>    -6.7980     0.0000     8.0000 </r>
       <r>    -6.7258     0.0000     8.0000 </r>
       <r>    -6.6537     0.0000     8.0000 </r>
       <r>    -6.5816     0.0000     8.0000 </r>
       <r>    -6.5094     0.0000     8.0000 </r>
       <r>    -6.4373     0.0000     8.0000 </r>
       <r>    -6.3652     0.0000     8.0000 </r>
       <r>    -6.2931     0.0000     8.0000 </r>
       <r>    -6.2209     0.0000     8.0000 </r>
       <r>    -6.1488     0.0000     8.0000 </r>
       <r>    -6.0767     0.0000     8.0000 </r>
       <r>    -6.0046     0.0000     8.0000 </r>
       <r>    -5.9324     0.0000     8.0000 </r>
       <r>    -5.8603     0.0000     8.0000 </r>
       <r>    -5.7882     0.0000     8.0000 </r>
       <r>    -5.7161     0.0000     8.0000 </r>
       <r>    -5.6439     0.0000     8.0000 </r>
       <r>    -5.5718     0.0000     8.0000 </r>
       <r>    -5.4997     0.0000     8.0000 </r>
       <r>    -5.4276     0.0000     8.0000 </r>
       <r>    -5.3554     0.0000     8.0000 </r>
       <r>    -5.2833     0.0000     8.0000 </r>
       <r>    -5.2112     0.0000     8.0000 </r>
       <r>    -5.1391     0.0000     8.0000 </r>
       <r>    -5.0669     0.0000     8.0000 </r>
       <r>    -4.9948     0.0000     8.0000 </r>
       <r>    -4.9227     0.0000     8.0000 </r>
       <r>    -4.8506     0.0000     8.0000 </r>
       <r>    -4.7784     0.0000     8.0000 </r>
       <r>    -4.7063     0.0000     8.0000 </r>
       <r>    -4.6342     0.0000     8.0000 </r>
       <r>    -4.5621     0.0000     8.0000 </r>
       <r>    -4.4899     0.0000     8.0000 </r>
       <r>    -4.4178     0.0000     8.0000 </r>
       <r>    -4.3457     0.0000     8.0000 </r>
       <r>    -4.2736     0.0000     8.0000 </r>
       <r>    -4.2014     0.0000     8.0000 </r>
       <r>    -4.1293     0.0000     8.0000 </r>
       <r>    -4.0572     0.0000     8.0000 </r>
       <r>    -3.9851     0.0000     8.0000 </r>
       <r>    -3.9129     0.0000     8.0000 </r>
       <r>    -3.8408     0.0000     8.0000 </r>
       <r>    -3.7687     0.0000     8.0000 </r>
       <r>    -3.6966     0.0000     8.0000 </r>
       <r>    -3.6244     0.0000     8.0000 </r>
       <r>    -3.5523     0.0000     8.0000 </r>
       <r>    -3.4802     0.0000     8.0000 </r>
       <r>    -3.4081     0.0000     8.0000 </r>
       <r>    -3.3359     0.0000     8.0000 </r>
       <r>    -3.2638     0.0000     8.0000 </r>
       <r>    -3.1917     0.0000     8.0000 </r>
       <r>    -3.1196     0.0000     8.0000 </r>
       <r>    -3.0474     0.0000     8.0000 </r>
       <r>    -2.9753     0.0000     8.0000 </r>
       <r>    -2.9032     0.0000     8.0000 </r>
       <r>    -2.8311     0.0000     8.0000 </r>
       <r>    -2.7589     0.0000     8.0000 </r>
       <r>    -2.6868     0.0000     8.0000 </r>
       <r>    -2.6147     0.0000     8.0000 </r>
       <r>    -2.5426     0.0000     8.0000 </r>
       <r>    -2.4704     0.0000     8.0000 </r>
       <r>    -2.3983     0.0000     8.0000 </r>
       <r>    -2.3262     0.0000     8.0000 </r>
       <r>    -2.2541     0.0000     8.0000 </r>
       <r>    -2.1819     0.0000     8.0000 </r>
       <r>    -2.1098     0.0000     8.0000 </r>
       <r>    -2.0377     0.0000     8.0000 </r>
       <r>    -1.9656    -0.0000     8.0000 </r>
       <r>    -1.8934    -0.0000     8.0000 </r>
       <r>    -1.8213    -0.0000     8.0000 </r>
       <r>    -1.7492    -0.0000     8.0000 </r>
       <r>    -1.6771    -0.0000     8.0000 </r>
       <r>    -1.6049    -0.0000     8.0000 </r>
       <r>    -1.5328    -0.0000     8.0000 </r>
       <r>    -1.4607    -0.0000     8.0000 </r>
       <r>    -1.3885    -0.0000     8.0000 </r>
       <r>    -1.3164    -0.0000     8.0000 </r>
       <r>    -1.2443    -0.0000     8.0000 </r>
       <r>    -1.1722    -0.0000     8.0000 </r>
       <r>    -1.1000    -0.0000     8.0000 </r>
       <r>    -1.0279    -0.0001     8.0000 </r>
       <r>    -0.9558    -0.0005     8.0000 </r>
       <r>    -0.8837    -0.0042     7.9997 </r>
       <r>    -0.8115    -0.0235     7.9980 </r>
       <r>    -0.7394    -0.0960     7.9910 </r>
       <r>    -0.6673    -0.2681     7.9717 </r>
       <r>    -0.5952    -0.4374     7.9402 </r>
       <r>    -0.5230    -0.0532     7.9363 </r>
       <r>    -0.4509     1.7597     8.0632 </r>
       <r>    -0.3788     5.0241     8.4256 </r>
       <r>    -0.3067     7.8585     8.9924 </r>
       <r>    -0.2345     7.9001     9.5622 </r>
       <r>    -0.1624     5.1112     9.9308 </r>
       <r>    -0.0903     1.8269    10.0626 </r>
       <r>    -0.0182    -0.0315    10.0603 </r>
       <r>     0.0540    -0.4563    10.0274 </r>
       <r>     0.1261    -0.3584    10.0016 </r>
       <r>     0.1982    -0.3830     9.9739 </r>
       <r>     0.2703    -0.6734     9.9254 </r>
       <r>     0.3425    -0.8176     9.8664 </r>
       <r>     0.4146     0.3940     9.8948 </r>
       <r>     0.4867     4.5262    10.2213 </r>
       <r>     0.5588    11.7118    11.0660 </r>
       <r>     0.6310    19.0120    12.4372 </r>
       <r>     0.7031    21.7206    14.0038 </r>
       <r>     0.7752    17.6270    15.2752 </r>
       <r>     0.8473     9.5912    15.9670 </r>
       <r>     0.9195     2.6999    16.1617 </r>
       <r>     0.9916    -0.5090    16.1250 </r>
       <r>     1.0637    -0.9637    16.0555 </r>
       <r>     1.1358    -0.5328    16.0171 </r>
       <r>     1.2080    -0.1834    16.0038 </r>
       <r>     1.2801    -0.0442    16.0006 </r>
       <r>     1.3522    -0.0078    16.0001 </r>
       <r>     1.4243    -0.0010    16.0000 </r>
       <r>     1.4965    -0.0001    16.0000 </r>
       <r>     1.5686    -0.0000    16.0000 </r>
       <r>     1.6407    -0.0000    16.0000 </r>
       <r>     1.7128    -0.0000    16.0000 </r>
       <r>     1.7850    -0.0000    16.0000 </r>
       <r>     1.8571    -0.0000    16.0000 </r>
       <r>     1.9292    -0.0000    16.0000 </r>
       <r>     2.0013    -0.0000    16.0000 </r>
       <r>     2.0735     0.0000    16.0000 </r>
       <r>     2.1456     0.0000    16.0000 </r>
       <r>     2.2177     0.0000    16.0000 </r>
       <r>     2.2898     0.0000    16.0000 </r>
       <r>     2.3620     0.0000    16.0000 </r>
       <r>     2.4341     0.0000    16.0000 </r>
       <r>     2.5062     0.0000    16.0000 </r>
       <r>     2.5783     0.0000    16.0000 </r>
       <r>     2.6505     0.0000    16.0000 </r>
       <r>     2.7226     0.0000    16.0000 </r>
      </set>
     </set>
    </array>
   </total>
  </dos>
  <time name="totalsc">   73.12   73.30</time>
 </calculation>
 <calculation>
  <scstep>
   <time name="dav">    1.74    1.74</time>
   <time name="total">    3.63    3.64</time>
   <energy>
    <i name="alphaZ">      0.24756704 </i>
    <i name="ewald">    127.75714913 </i>
    <i name="hartreedc">   -283.94891423 </i>
    <i name="XCdc">     24.76188441 </i>
    <i name="pawpsdc">    495.90030806 </i>
    <i name="pawaedc">   -496.69378691 </i>
    <i name="eentropy">      0.01183499 </i>
    <i name="bandstr">    -89.05452841 </i>
    <i name="atom">    197.04175453 </i>
    <i name="e_fr_energy">    -23.97673139 </i>
    <i name="e_wo_entrp">    -23.98856638 </i>
    <i name="e_0_energy">    -23.98067639 </i>
   </energy>
  </scstep>
  <scstep>
   <time name="diag">    0.35    0.35</time>
   <time name="diis">    1.28    1.28</time>
   <time name="orth">    0.01    0.01</time>
   <time name="total">    3.34    3.35</time>
   <energy>
    <i name="e_fr_energy">    -23.99056582 </i>
    <i name="e_wo_entrp">    -24.00240846 </i>
    <i name="e_0_energy">    -23.99451337 </i>
   </energy>
  </scstep>
  <scstep>
   <time name="diag">    0.37    0.37</time>
   <time name="diis">    1.30    1.30</time>
   <time name="orth">    0.01    0.01</time>
   <time name="total">    3.38    3.39</time>
   <energy>
    <i name="e_fr_energy">    -23.97635640 </i>
    <i name="e_wo_entrp">    -23.98815510 </i>
    <i name="e_0_energy">    -23.98028930 </i>
   </energy>
  </scstep>
  <scstep>
   <time name="diag">    0.38    0.38</time>
   <time name="diis">    1.28    1.29</time>
   <time name="orth">    0.01    0.01</time>
   <time name="total">    3.41    3.42</time>
   <energy>
    <i name="e_fr_energy">    -23.97711333 </i>
    <i name="e_wo_entrp">    -23.98890223 </i>
    <i name="e_0_energy">    -23.98104297 </i>
   </energy>
  </scstep>
  <scstep>
   <time name="diag">    0.36    0.36</time>
   <time name="diis">    1.30    1.30</time>
   <time name="orth">    0.01    0.01</time>
   <time name="total">    3.42    3.42</time>
   <energy>
    <i name="e_fr_energy">    -23.97684908 </i>
    <i name="e_wo_entrp">    -23.98864061 </i>
    <i name="e_0_energy">    -23.98077959 </i>
   </energy>
  </scstep>
  <scstep>
   <time name="diag">    0.38    0.38</time>
   <time name="diis">    1.25    1.26</time>
   <time name="orth">    0.01    0.01</time>
   <time name="total">    3.41    3.42</time>
   <energy>
    <i name="e_fr_energy">    -23.97674286 </i>
    <i name="e_wo_entrp">    -23.98853921 </i>
    <i name="e_0_energy">    -23.98067498 </i>
   </energy>
  </scstep>
  <scstep>
   <time name="diag">    0.36    0.36</time>
   <time name="diis">    1.27    1.27</time>
   <time name="orth">    0.01    0.01</time>
   <time name="total">    3.46    3.47</time>
   <energy>
    <i name="e_fr_energy">    -23.97674720 </i>
    <i name="e_wo_entrp">    -23.98854307 </i>
    <i name="e_0_energy">    -23.98067916 </i>
   </energy>
  </scstep>
  <scstep>
   <time name="diag">    0.42    0.42</time>
   <time name="diis">    1.30    1.30</time>
   <time name="orth">    0.01    0.01</time>
   <time name="total">    3.63    3.64</time>
   <energy>
    <i name="e_fr_energy">    -23.97679932 </i>
    <i name="e_wo_entrp">    -23.98859466 </i>
    <i name="e_0_energy">    -23.98073110 </i>
   </energy>
  </scstep>
  <scstep>
   <time name="diag">    0.38    0.38</time>
   <time name="diis">    1.26    1.27</time>
   <time name="orth">    0.01    0.01</time>
   <time name="total">    3.50    3.51</time>
   <energy>
    <i name="e_fr_energy">    -23.97680750 </i>
    <i name="e_wo_entrp">    -23.98860293 </i>
    <i name="e_0_energy">    -23.98073931 </i>
   </energy>
  </scstep>
  <scstep>
   <time name="diag">    0.38    0.38</time>
   <time name="diis">    1.23    1.23</time>
   <time name="orth">    0.01    0.01</time>
   <time name="total">    3.49    3.50</time>
   <energy>
    <i name="e_fr_energy">    -23.97682506 </i>
    <i name="e_wo_entrp">    -23.98862043 </i>
    <i name="e_0_energy">    -23.98075685 </i>
   </energy>
  </scstep>
  <scstep>
   <time name="diag">    0.38    0.38</time>
   <time name="diis">    1.08    1.08</time>
   <time name="orth">    0.01    0.01</time>
   <time name="total">    3.32    3.32</time>
   <energy>
    <i name="e_fr_energy">    -23.97682861 </i>
    <i name="e_wo_entrp">    -23.98862406 </i>
    <i name="e_0_energy">    -23.98076043 </i>
   </energy>
  </scstep>
  <scstep>
   <time name="diag">    0.37    0.37</time>
   <time name="diis">    1.07    1.07</time>
   <time name="orth">    0.01    0.01</time>
   <time name="total">    3.35    3.36</time>
   <energy>
    <i name="e_fr_energy">    -23.97683206 </i>
    <i name="e_wo_entrp">    -23.98862760 </i>
    <i name="e_0_energy">    -23.98076390 </i>
   </energy>
  </scstep>
  <scstep>
   <time name="diag">    0.37    0.37</time>
   <time name="diis">    1.07    1.08</time>
   <time name="orth">    0.01    0.01</time>
   <time name="total">    3.08    3.08</time>
   <energy>
    <i name="alphaZ">      0.24756704 </i>
    <i name="ewald">    127.75714913 </i>
    <i name="hartreedc">   -283.55320984 </i>
    <i name="XCdc">     24.73890120 </i>
    <i name="pawpsdc">    487.80290438 </i>
    <i name="pawaedc">   -488.59244525 </i>
    <i name="eentropy">      0.01179553 </i>
    <i name="bandstr">    -89.43124956 </i>
    <i name="atom">    197.04175453 </i>
    <i name="e_fr_energy">    -23.97683283 </i>
    <i name="e_wo_entrp">    -23.98862836 </i>
    <i name="e_0_energy">    -23.98076467 </i>
   </energy>
  </scstep>
  <structure>
   <crystal>
    <varray name="basis" >
     <v>       9.90976879       0.00000000       0.00000000 </v>
     <v>      -0.18364353      10.02220958       0.00000000 </v>
     <v>      -0.21894471      -0.21772789       9.85247595 </v>
    </varray>
    <i name="volume">    978.52603639 </i>
    <varray name="rec_basis" >
     <v>       0.10091053       0.00184905       0.00228333 </v>
     <v>      -0.00000000       0.09977840       0.00220498 </v>
     <v>       0.00000000      -0.00000000       0.10149733 </v>
    </varray>
   </crystal>
   <varray name="positions" >
    <v>       0.54027327       0.40741724       0.36277350 </v>
    <v>       0.39465909       0.48101902       0.43799168 </v>
    <v>       0.55227354       0.56889964       0.44049334 </v>
    <v>       0.52628625       0.41523719       0.54017192 </v>
    <v>       0.50296279       0.46792806       0.44550900 </v>
   </varray>
  </structure>
  <varray name="forces" >
   <v>       0.19158246      -0.83538334      -0.05404366 </v>
   <v>      -0.49312131      -0.39916570      -0.17247865 </v>
   <v>       0.00747720      -0.08591727       0.95827265 </v>
   <v>       0.34700237       0.28325808       0.35519320 </v>
   <v>       0.39238064       0.81301516       0.38189448 </v>
  </varray>
  <varray name="stress" >
   <v>       0.28656106      -0.04798717       0.62164378 </v>
   <v>      -0.04798717      -1.07298245       1.38749269 </v>
   <v>       0.62164378       1.38749270      -0.34358701 </v>
  </varray>
  <energy>
   <i name="e_fr_energy">    -23.97683283 </i>
   <i name="e_wo_entrp">    -23.98076467 </i>
   <i name="e_0_energy">      0.01179553 </i>
   <i name="kinetic">      0.03051312 </i>
   <i name="lattice kinetic">      0.00000000 </i>
   <i name="nosepot">     -0.00002751 </i>
   <i name="nosekinetic">      0.00000071 </i>
   <i name="total">    -23.94634651 </i>
  </energy>
  <dos>
   <i name="efermi">     -8.81028600 </i>
   <total>
    <array>
     <dimension dim="1">gridpoints</dimension>
     <dimension dim="2">spin</dimension>
     <field>energy</field>
     <field>total</field>
     <field>integrated</field>
     <set>
      <set comment="spin 1">
       <r>   -18.8787     0.0000     0.0000 </r>
       <r>   -18.8067     0.0000     0.0000 </r>
       <r>   -18.7347     0.0000     0.0000 </r>
       <r>   -18.6627     0.0000     0.0000 </r>
       <r>   -18.5907     0.0000     0.0000 </r>
       <r>   -18.5186    -0.0000    -0.0000 </r>
       <r>   -18.4466    -0.0000    -0.0000 </r>
       <r>   -18.3746    -0.0000    -0.0000 </r>
       <r>   -18.3026    -0.0000    -0.0000 </r>
       <r>   -18.2306    -0.0000    -0.0000 </r>
       <r>   -18.1586    -0.0000    -0.0000 </r>
       <r>   -18.0865    -0.0000    -0.0000 </r>
       <r>   -18.0145    -0.0000    -0.0000 </r>
       <r>   -17.9425    -0.0000    -0.0000 </r>
       <r>   -17.8705    -0.0000    -0.0000 </r>
       <r>   -17.7985    -0.0000    -0.0000 </r>
       <r>   -17.7264    -0.0000    -0.0000 </r>
       <r>   -17.6544    -0.0000    -0.0000 </r>
       <r>   -17.5824    -0.0001    -0.0000 </r>
       <r>   -17.5104    -0.0009    -0.0001 </r>
       <r>   -17.4384    -0.0066    -0.0006 </r>
       <r>   -17.3663    -0.0346    -0.0030 </r>
       <r>   -17.2943    -0.1290    -0.0123 </r>
       <r>   -17.2223    -0.3225    -0.0356 </r>
       <r>   -17.1503    -0.4283    -0.0664 </r>
       <r>   -17.0783     0.2310    -0.0498 </r>
       <r>   -17.0062     2.4640     0.1277 </r>
       <r>   -16.9342     5.8615     0.5498 </r>
       <r>   -16.8622     8.1854     1.1393 </r>
       <r>   -16.7902     7.4250     1.6741 </r>
       <r>   -16.7182     4.2689     1.9815 </r>
       <r>   -16.6461     1.2233     2.0696 </r>
       <r>   -16.5741    -0.2278     2.0532 </r>
       <r>   -16.5021    -0.4212     2.0229 </r>
       <r>   -16.4301    -0.2242     2.0067 </r>
       <r>   -16.3581    -0.0737     2.0014 </r>
       <r>   -16.2861    -0.0168     2.0002 </r>
       <r>   -16.2140    -0.0028     2.0000 </r>
       <r>   -16.1420    -0.0003     2.0000 </r>
       <r>   -16.0700    -0.0000     2.0000 </r>
       <r>   -15.9980    -0.0000     2.0000 </r>
       <r>   -15.9260    -0.0000     2.0000 </r>
       <r>   -15.8539    -0.0000     2.0000 </r>
       <r>   -15.7819    -0.0000     2.0000 </r>
       <r>   -15.7099    -0.0000     2.0000 </r>
       <r>   -15.6379    -0.0000     2.0000 </r>
       <r>   -15.5659     0.0000     2.0000 </r>
       <r>   -15.4938     0.0000     2.0000 </r>
       <r>   -15.4218     0.0000     2.0000 </r>
       <r>   -15.3498     0.0000     2.0000 </r>
       <r>   -15.2778     0.0000     2.0000 </r>
       <r>   -15.2058     0.0000     2.0000 </r>
       <r>   -15.1337     0.0000     2.0000 </r>
       <r>   -15.0617     0.0000     2.0000 </r>
       <r>   -14.9897     0.0000     2.0000 </r>
       <r>   -14.9177     0.0000     2.0000 </r>
       <r>   -14.8457     0.0000     2.0000 </r>
       <r>   -14.7736     0.0000     2.0000 </r>
       <r>   -14.7016     0.0000     2.0000 </r>
       <r>   -14.6296     0.0000     2.0000 </r>
       <r>   -14.5576     0.0000     2.0000 </r>
       <r>   -14.4856     0.0000     2.0000 </r>
       <r>   -14.4135     0.0000     2.0000 </r>
       <r>   -14.3415     0.0000     2.0000 </r>
       <r>   -14.2695     0.0000     2.0000 </r>
       <r>   -14.1975     0.0000     2.0000 </r>
       <r>   -14.1255     0.0000     2.0000 </r>
       <r>   -14.0535     0.0000     2.0000 </r>
       <r>   -13.9814     0.0000     2.0000 </r>
       <r>   -13.9094     0.0000     2.0000 </r>
       <r>   -13.8374     0.0000     2.0000 </r>
       <r>   -13.7654     0.0000     2.0000 </r>
       <r>   -13.6934     0.0000     2.0000 </r>
       <r>   -13.6213     0.0000     2.0000 </r>
       <r>   -13.5493     0.0000     2.0000 </r>
       <r>   -13.4773     0.0000     2.0000 </r>
       <r>   -13.4053     0.0000     2.0000 </r>
       <r>   -13.3333     0.0000     2.0000 </r>
       <r>   -13.2612     0.0000     2.0000 </r>
       <r>   -13.1892     0.0000     2.0000 </r>
       <r>   -13.1172     0.0000     2.0000 </r>
       <r>   -13.0452     0.0000     2.0000 </r>
       <r>   -12.9732     0.0000     2.0000 </r>
       <r>   -12.9011     0.0000     2.0000 </r>
       <r>   -12.8291     0.0000     2.0000 </r>
       <r>   -12.7571     0.0000     2.0000 </r>
       <r>   -12.6851     0.0000     2.0000 </r>
       <r>   -12.6131     0.0000     2.0000 </r>
       <r>   -12.5410     0.0000     2.0000 </r>
       <r>   -12.4690     0.0000     2.0000 </r>
       <r>   -12.3970     0.0000     2.0000 </r>
       <r>   -12.3250     0.0000     2.0000 </r>
       <r>   -12.2530     0.0000     2.0000 </r>
       <r>   -12.1810     0.0000     2.0000 </r>
       <r>   -12.1089     0.0000     2.0000 </r>
       <r>   -12.0369     0.0000     2.0000 </r>
       <r>   -11.9649     0.0000     2.0000 </r>
       <r>   -11.8929     0.0000     2.0000 </r>
       <r>   -11.8209     0.0000     2.0000 </r>
       <r>   -11.7488     0.0000     2.0000 </r>
       <r>   -11.6768     0.0000     2.0000 </r>
       <r>   -11.6048     0.0000     2.0000 </r>
       <r>   -11.5328     0.0000     2.0000 </r>
       <r>   -11.4608     0.0000     2.0000 </r>
       <r>   -11.3887     0.0000     2.0000 </r>
       <r>   -11.3167     0.0000     2.0000 </r>
       <r>   -11.2447     0.0000     2.0000 </r>
       <r>   -11.1727     0.0000     2.0000 </r>
       <r>   -11.1007    -0.0000     2.0000 </r>
       <r>   -11.0286    -0.0000     2.0000 </r>
       <r>   -10.9566    -0.0000     2.0000 </r>
       <r>   -10.8846    -0.0000     2.0000 </r>
       <r>   -10.8126    -0.0000     2.0000 </r>
       <r>   -10.7406    -0.0000     2.0000 </r>
       <r>   -10.6685    -0.0000     2.0000 </r>
       <r>   -10.5965    -0.0000     2.0000 </r>
       <r>   -10.5245    -0.0000     2.0000 </r>
       <r>   -10.4525    -0.0000     2.0000 </r>
       <r>   -10.3805    -0.0000     2.0000 </r>
       <r>   -10.3084    -0.0000     2.0000 </r>
       <r>   -10.2364    -0.0000     2.0000 </r>
       <r>   -10.1644    -0.0002     2.0000 </r>
       <r>   -10.0924    -0.0016     1.9999 </r>
       <r>   -10.0204    -0.0110     1.9991 </r>
       <r>    -9.9484    -0.0548     1.9951 </r>
       <r>    -9.8763    -0.1974     1.9809 </r>
       <r>    -9.8043    -0.4854     1.9460 </r>
       <r>    -9.7323    -0.6682     1.8978 </r>
       <r>    -9.6603     0.1829     1.9110 </r>
       <r>    -9.5883     3.3320     2.1510 </r>
       <r>    -9.5162     8.7274     2.7795 </r>
       <r>    -9.4442    13.6971     3.7660 </r>
       <r>    -9.3722    14.6414     4.8204 </r>
       <r>    -9.3002    10.7206     5.5925 </r>
       <r>    -9.2282     5.0593     5.9569 </r>
       <r>    -9.1561     1.8925     6.0932 </r>
       <r>    -9.0841     2.9298     6.3042 </r>
       <r>    -9.0121     6.1963     6.7504 </r>
       <r>    -8.9401     8.0078     7.3272 </r>
       <r>    -8.8681     6.5170     7.7965 </r>
       <r>    -8.7960     3.2028     8.0272 </r>
       <r>    -8.7240     0.5989     8.0703 </r>
       <r>    -8.6520    -0.3768     8.0432 </r>
       <r>    -8.5800    -0.3718     8.0164 </r>
       <r>    -8.5080    -0.1670     8.0044 </r>
       <r>    -8.4359    -0.0488     8.0009 </r>
       <r>    -8.3639    -0.0101     8.0001 </r>
       <r>    -8.2919    -0.0015     8.0000 </r>
       <r>    -8.2199    -0.0002     8.0000 </r>
       <r>    -8.1479    -0.0000     8.0000 </r>
       <r>    -8.0759    -0.0000     8.0000 </r>
       <r>    -8.0038    -0.0000     8.0000 </r>
       <r>    -7.9318    -0.0000     8.0000 </r>
       <r>    -7.8598    -0.0000     8.0000 </r>
       <r>    -7.7878    -0.0000     8.0000 </r>
       <r>    -7.7158    -0.0000     8.0000 </r>
       <r>    -7.6437     0.0000     8.0000 </r>
       <r>    -7.5717     0.0000     8.0000 </r>
       <r>    -7.4997     0.0000     8.0000 </r>
       <r>    -7.4277     0.0000     8.0000 </r>
       <r>    -7.3557     0.0000     8.0000 </r>
       <r>    -7.2836     0.0000     8.0000 </r>
       <r>    -7.2116     0.0000     8.0000 </r>
       <r>    -7.1396     0.0000     8.0000 </r>
       <r>    -7.0676     0.0000     8.0000 </r>
       <r>    -6.9956     0.0000     8.0000 </r>
       <r>    -6.9235     0.0000     8.0000 </r>
       <r>    -6.8515     0.0000     8.0000 </r>
       <r>    -6.7795     0.0000     8.0000 </r>
       <r>    -6.7075     0.0000     8.0000 </r>
       <r>    -6.6355     0.0000     8.0000 </r>
       <r>    -6.5634     0.0000     8.0000 </r>
       <r>    -6.4914     0.0000     8.0000 </r>
       <r>    -6.4194     0.0000     8.0000 </r>
       <r>    -6.3474     0.0000     8.0000 </r>
       <r>    -6.2754     0.0000     8.0000 </r>
       <r>    -6.2034     0.0000     8.0000 </r>
       <r>    -6.1313     0.0000     8.0000 </r>
       <r>    -6.0593     0.0000     8.0000 </r>
       <r>    -5.9873     0.0000     8.0000 </r>
       <r>    -5.9153     0.0000     8.0000 </r>
       <r>    -5.8433     0.0000     8.0000 </r>
       <r>    -5.7712     0.0000     8.0000 </r>
       <r>    -5.6992     0.0000     8.0000 </r>
       <r>    -5.6272     0.0000     8.0000 </r>
       <r>    -5.5552     0.0000     8.0000 </r>
       <r>    -5.4832     0.0000     8.0000 </r>
       <r>    -5.4111     0.0000     8.0000 </r>
       <r>    -5.3391     0.0000     8.0000 </r>
       <r>    -5.2671     0.0000     8.0000 </r>
       <r>    -5.1951     0.0000     8.0000 </r>
       <r>    -5.1231     0.0000     8.0000 </r>
       <r>    -5.0510     0.0000     8.0000 </r>
       <r>    -4.9790     0.0000     8.0000 </r>
       <r>    -4.9070     0.0000     8.0000 </r>
       <r>    -4.8350     0.0000     8.0000 </r>
       <r>    -4.7630     0.0000     8.0000 </r>
       <r>    -4.6909     0.0000     8.0000 </r>
       <r>    -4.6189     0.0000     8.0000 </r>
       <r>    -4.5469     0.0000     8.0000 </r>
       <r>    -4.4749     0.0000     8.0000 </r>
       <r>    -4.4029     0.0000     8.0000 </r>
       <r>    -4.3308     0.0000     8.0000 </r>
       <r>    -4.2588     0.0000     8.0000 </r>
       <r>    -4.1868     0.0000     8.0000 </r>
       <r>    -4.1148     0.0000     8.0000 </r>
       <r>    -4.0428     0.0000     8.0000 </r>
       <r>    -3.9708     0.0000     8.0000 </r>
       <r>    -3.8987     0.0000     8.0000 </r>
       <r>    -3.8267     0.0000     8.0000 </r>
       <r>    -3.7547     0.0000     8.0000 </r>
       <r>    -3.6827     0.0000     8.0000 </r>
       <r>    -3.6107     0.0000     8.0000 </r>
       <r>    -3.5386     0.0000     8.0000 </r>
       <r>    -3.4666     0.0000     8.0000 </r>
       <r>    -3.3946     0.0000     8.0000 </r>
       <r>    -3.3226     0.0000     8.0000 </r>
       <r>    -3.2506     0.0000     8.0000 </r>
       <r>    -3.1785     0.0000     8.0000 </r>
       <r>    -3.1065     0.0000     8.0000 </r>
       <r>    -3.0345     0.0000     8.0000 </r>
       <r>    -2.9625     0.0000     8.0000 </r>
       <r>    -2.8905     0.0000     8.0000 </r>
       <r>    -2.8184     0.0000     8.0000 </r>
       <r>    -2.7464     0.0000     8.0000 </r>
       <r>    -2.6744     0.0000     8.0000 </r>
       <r>    -2.6024     0.0000     8.0000 </r>
       <r>    -2.5304     0.0000     8.0000 </r>
       <r>    -2.4583     0.0000     8.0000 </r>
       <r>    -2.3863     0.0000     8.0000 </r>
       <r>    -2.3143     0.0000     8.0000 </r>
       <r>    -2.2423     0.0000     8.0000 </r>
       <r>    -2.1703     0.0000     8.0000 </r>
       <r>    -2.0983     0.0000     8.0000 </r>
       <r>    -2.0262     0.0000     8.0000 </r>
       <r>    -1.9542    -0.0000     8.0000 </r>
       <r>    -1.8822    -0.0000     8.0000 </r>
       <r>    -1.8102    -0.0000     8.0000 </r>
       <r>    -1.7382    -0.0000     8.0000 </r>
       <r>    -1.6661    -0.0000     8.0000 </r>
       <r>    -1.5941    -0.0000     8.0000 </r>
       <r>    -1.5221    -0.0000     8.0000 </r>
       <r>    -1.4501    -0.0000     8.0000 </r>
       <r>    -1.3781    -0.0000     8.0000 </r>
       <r>    -1.3060    -0.0000     8.0000 </r>
       <r>    -1.2340    -0.0000     8.0000 </r>
       <r>    -1.1620    -0.0000     8.0000 </r>
       <r>    -1.0900    -0.0000     8.0000 </r>
       <r>    -1.0180    -0.0001     8.0000 </r>
       <r>    -0.9459    -0.0009     7.9999 </r>
       <r>    -0.8739    -0.0064     7.9995 </r>
       <r>    -0.8019    -0.0334     7.9971 </r>
       <r>    -0.7299    -0.1256     7.9880 </r>
       <r>    -0.6579    -0.3172     7.9652 </r>
       <r>    -0.5858    -0.4301     7.9342 </r>
       <r>    -0.5138     0.2005     7.9486 </r>
       <r>    -0.4418     2.3919     8.1209 </r>
       <r>    -0.3698     5.7792     8.5371 </r>
       <r>    -0.2978     8.1575     9.1246 </r>
       <r>    -0.2257     7.4772     9.6631 </r>
       <r>    -0.1537     4.3546     9.9767 </r>
       <r>    -0.0817     1.2820    10.0691 </r>
       <r>    -0.0097    -0.2130    10.0537 </r>
       <r>     0.0623    -0.4454    10.0216 </r>
       <r>     0.1343    -0.3268     9.9981 </r>
       <r>     0.2064    -0.3912     9.9699 </r>
       <r>     0.2784    -0.7059     9.9191 </r>
       <r>     0.3504    -0.7870     9.8624 </r>
       <r>     0.4224     0.6489     9.9091 </r>
       <r>     0.4944     5.1171    10.2777 </r>
       <r>     0.5665    12.4821    11.1766 </r>
       <r>     0.6385    19.5135    12.5820 </r>
       <r>     0.7105    21.5802    14.1361 </r>
       <r>     0.7825    16.9554    15.3573 </r>
       <r>     0.8545     8.8755    15.9965 </r>
       <r>     0.9266     2.2990    16.1620 </r>
       <r>     0.9986    -0.6045    16.1185 </r>
       <r>     1.0706    -0.9337    16.0513 </r>
       <r>     1.1426    -0.4967    16.0155 </r>
       <r>     1.2146    -0.1673    16.0034 </r>
       <r>     1.2867    -0.0397    16.0006 </r>
       <r>     1.3587    -0.0069    16.0001 </r>
       <r>     1.4307    -0.0009    16.0000 </r>
       <r>     1.5027    -0.0001    16.0000 </r>
       <r>     1.5747    -0.0000    16.0000 </r>
       <r>     1.6468    -0.0000    16.0000 </r>
       <r>     1.7188    -0.0000    16.0000 </r>
       <r>     1.7908    -0.0000    16.0000 </r>
       <r>     1.8628    -0.0000    16.0000 </r>
       <r>     1.9348    -0.0000    16.0000 </r>
       <r>     2.0068    -0.0000    16.0000 </r>
       <r>     2.0789     0.0000    16.0000 </r>
       <r>     2.1509     0.0000    16.0000 </r>
       <r>     2.2229     0.0000    16.0000 </r>
       <r>     2.2949     0.0000    16.0000 </r>
       <r>     2.3669     0.0000    16.0000 </r>
       <r>     2.4390     0.0000    16.0000 </r>
       <r>     2.5110     0.0000    16.0000 </r>
       <r>     2.5830     0.0000    16.0000 </r>
       <r>     2.6550     0.0000    16.0000 </r>
       <r>     2.7270     0.0000    16.0000 </r>
      </set>
     </set>
    </array>
   </total>
  </dos>
  <time name="totalsc">   51.57   51.71</time>
 </calculation>
 <calculation>
  <scstep>
   <time name="dav">    1.78    1.78</time>
   <time name="total">    3.66    3.67</time>
   <energy>
    <i name="alphaZ">      0.24756704 </i>
    <i name="ewald">    123.83366552 </i>
    <i name="hartreedc">   -281.04441121 </i>
    <i name="XCdc">     24.61166746 </i>
    <i name="pawpsdc">    483.76739767 </i>
    <i name="pawaedc">   -484.55495924 </i>
    <i name="eentropy">      0.01282719 </i>
    <i name="bandstr">    -87.89412827 </i>
    <i name="atom">    197.04175453 </i>
    <i name="e_fr_energy">    -23.97861931 </i>
    <i name="e_wo_entrp">    -23.99144650 </i>
    <i name="e_0_energy">    -23.98289504 </i>
   </energy>
  </scstep>
  <scstep>
   <time name="diag">    0.38    0.38</time>
   <time name="diis">    1.35    1.36</time>
   <time name="orth">    0.01    0.01</time>
   <time name="total">    3.46    3.46</time>
   <energy>
    <i name="e_fr_energy">    -23.99125382 </i>
    <i name="e_wo_entrp">    -24.00442032 </i>
    <i name="e_0_energy">    -23.99564265 </i>
   </energy>
  </scstep>
  <scstep>
   <time name="diag">    0.39    0.39</time>
   <time name="diis">    1.36    1.36</time>
   <time name="orth">    0.01    0.01</time>
   <time name="total">    3.54    3.55</time>
   <energy>
    <i name="e_fr_energy">    -23.97571728 </i>
    <i name="e_wo_entrp">    -23.98869975 </i>
    <i name="e_0_energy">    -23.98004477 </i>
   </energy>
  </scstep>
  <scstep>
   <time name="diag">    0.36    0.36</time>
   <time name="diis">    1.34    1.34</time>
   <time name="orth">    0.01    0.01</time>
   <time name="total">    3.48    3.48</time>
   <energy>
    <i name="e_fr_energy">    -23.97464473 </i>
    <i name="e_wo_entrp">    -23.98760773 </i>
    <i name="e_0_energy">    -23.97896573 </i>
   </energy>
  </scstep>
  <scstep>
   <time name="diag">    0.36    0.36</time>
   <time name="diis">    1.32    1.32</time>
   <time name="orth">    0.01    0.01</time>
   <time name="total">    3.46    3.47</time>
   <energy>
    <i name="e_fr_energy">    -23.97487116 </i>
    <i name="e_wo_entrp">    -23.98786526 </i>
    <i name="e_0_energy">    -23.97920253 </i>
   </energy>
  </scstep>
  <scstep>
   <time name="diag">    0.36    0.36</time>
   <time name="diis">    1.33    1.33</time>
   <time name="orth">    0.01    0.01</time>
   <time name="total">    3.55    3.56</time>
   <energy>
    <i name="e_fr_energy">    -23.97483541 </i>
    <i name="e_wo_entrp">    -23.98785045 </i>
    <i name="e_0_energy">    -23.97917376 </i>
   </energy>
  </scstep>
  <scstep>
   <time name="diag">    0.37    0.37</time>
   <time name="diis">    1.04    1.04</time>
   <time name="orth">    0.01    0.01</time>
   <time name="total">    3.24    3.25</time>
   <energy>
    <i name="e_fr_energy">    -23.97485221 </i>
    <i name="e_wo_entrp">    -23.98786070 </i>
    <i name="e_0_energy">    -23.97918837 </i>
   </energy>
  </scstep>
  <scstep>
   <time name="diag">    0.35    0.35</time>
   <time name="diis">    1.28    1.29</time>
   <time name="orth">    0.01    0.01</time>
   <time name="total">    3.53    3.53</time>
   <energy>
    <i name="e_fr_energy">    -23.97486552 </i>
    <i name="e_wo_entrp">    -23.98787373 </i>
    <i name="e_0_energy">    -23.97920159 </i>
   </energy>
  </scstep>
  <scstep>
   <time name="diag">    0.35    0.35</time>
   <time name="diis">    1.01    1.01</time>
   <time name="orth">    0.01    0.01</time>
   <time name="total">    3.27    3.27</time>
   <energy>
    <i name="e_fr_energy">    -23.97487082 </i>
    <i name="e_wo_entrp">    -23.98788110 </i>
    <i name="e_0_energy">    -23.97920758 </i>
   </energy>
  </scstep>
  <scstep>
   <time name="diag">    0.36    0.36</time>
   <time name="diis">    1.22    1.22</time>
   <time name="orth">    0.01    0.01</time>
   <time name="total">    3.53    3.54</time>
   <energy>
    <i name="e_fr_energy">    -23.97487417 </i>
    <i name="e_wo_entrp">    -23.98788367 </i>
    <i name="e_0_energy">    -23.97921067 </i>
   </energy>
  </scstep>
  <scstep>
   <time name="diag">    0.36    0.36</time>
   <time name="diis">    0.99    0.99</time>
   <time name="orth">    0.01    0.01</time>
   <time name="total">    3.29    3.29</time>
   <energy>
    <i name="e_fr_energy">    -23.97487531 </i>
    <i name="e_wo_entrp">    -23.98788455 </i>
    <i name="e_0_energy">    -23.97921172 </i>
   </energy>
  </scstep>
  <scstep>
   <time name="diag">    0.37    0.37</time>
   <time name="diis">    0.97    0.97</time>
   <time name="orth">    0.01    0.01</time>
   <time name="total">    3.01    3.02</time>
   <energy>
    <i name="alphaZ">      0.24756704 </i>
    <i name="ewald">    123.83366552 </i>
    <i name="hartreedc">   -280.08852107 </i>
    <i name="XCdc">     24.55640910 </i>
    <i name="pawpsdc">    460.43115619 </i>
    <i name="pawaedc">   -461.20777852 </i>
    <i name="eentropy">      0.01300957 </i>
    <i name="bandstr">    -88.80213863 </i>
    <i name="atom">    197.04175453 </i>
    <i name="e_fr_energy">    -23.97487626 </i>
    <i name="e_wo_entrp">    -23.98788583 </i>
    <i name="e_0_energy">    -23.97921279 </i>
   </energy>
  </scstep>
  <structure>
   <crystal>
    <varray name="basis" >
     <v>       9.90976879       0.00000000       0.00000000 </v>
     <v>      -0.18364353      10.02220958       0.00000000 </v>
     <v>      -0.21894471      -0.21772789       9.85247595 </v>
    </varray>
    <i name="volume">    978.52603639 </i>
    <varray name="rec_basis" >
     <v>       0.10091053       0.00184905       0.00228333 </v>
     <v>      -0.00000000       0.09977840       0.00220498 </v>
     <v>       0.00000000      -0.00000000       0.10149733 </v>
    </varray>
   </crystal>
   <varray name="positions" >
    <v>       0.54254789       0.40451053       0.36405324 </v>
    <v>       0.39346150       0.48061905       0.43625364 </v>
    <v>       0.55281366       0.57142771       0.44181686 </v>
    <v>       0.52528078       0.41529841       0.54245173 </v>
    <v>       0.50291187       0.46798779       0.44524715 </v>
   </varray>
  </structure>
  <varray name="forces" >
   <v>      -0.32453247      -0.06371871       0.14791081 </v>
   <v>      -0.04741099      -0.13471182      -0.11179340 </v>
   <v>      -0.29462860      -1.22178451       1.03773663 </v>
   <v>       0.01923261       0.87253222      -1.30841071 </v>
   <v>       0.48145803       0.86993213       0.48958857 </v>
  </varray>
  <varray name="stress" >
   <v>      -0.86500518      -0.65946724       0.39434286 </v>
   <v>      -0.65946725      -3.71639049       1.47158688 </v>
   <v>       0.39434287       1.47158689      -1.50946220 </v>
  </varray>
  <energy>
   <i name="e_fr_energy">    -23.97487626 </i>
   <i name="e_wo_entrp">    -23.97921279 </i>
   <i name="e_0_energy">      0.01300957 </i>
   <i name="kinetic">      0.04625178 </i>
   <i name="lattice kinetic">      0.00000000 </i>
   <i name="nosepot">      0.00005993 </i>
   <i name="nosekinetic">      0.00009069 </i>
   <i name="total">    -23.92847386 </i>
  </energy>
  <dos>
   <i name="efermi">     -8.76546215 </i>
   <total>
    <array>
     <dimension dim="1">gridpoints</dimension>
     <dimension dim="2">spin</dimension>
     <field>energy</field>
     <field>total</field>
     <field>integrated</field>
     <set>
      <set comment="spin 1">
       <r>   -18.7551     0.0000     0.0000 </r>
       <r>   -18.6835     0.0000     0.0000 </r>
       <r>   -18.6119     0.0000     0.0000 </r>
       <r>   -18.5403     0.0000     0.0000 </r>
       <r>   -18.4687     0.0000     0.0000 </r>
       <r>   -18.3971    -0.0000    -0.0000 </r>
       <r>   -18.3255    -0.0000    -0.0000 </r>
       <r>   -18.2539    -0.0000    -0.0000 </r>
       <r>   -18.1823    -0.0000    -0.0000 </r>
       <r>   -18.1108    -0.0000    -0.0000 </r>
       <r>   -18.0392    -0.0000    -0.0000 </r>
       <r>   -17.9676    -0.0000    -0.0000 </r>
       <r>   -17.8960    -0.0000    -0.0000 </r>
       <r>   -17.8244    -0.0000    -0.0000 </r>
       <r>   -17.7528    -0.0000    -0.0000 </r>
       <r>   -17.6812    -0.0000    -0.0000 </r>
       <r>   -17.6096    -0.0000    -0.0000 </r>
       <r>   -17.5380    -0.0000    -0.0000 </r>
       <r>   -17.4664    -0.0001    -0.0000 </r>
       <r>   -17.3948    -0.0007    -0.0001 </r>
       <r>   -17.3232    -0.0054    -0.0004 </r>
       <r>   -17.2517    -0.0287    -0.0025 </r>
       <r>   -17.1801    -0.1112    -0.0105 </r>
       <r>   -17.1085    -0.2934    -0.0315 </r>
       <r>   -17.0369    -0.4387    -0.0629 </r>
       <r>   -16.9653     0.0499    -0.0593 </r>
       <r>   -16.8937     2.0168     0.0851 </r>
       <r>   -16.8221     5.3272     0.4665 </r>
       <r>   -16.7505     7.9906     1.0385 </r>
       <r>   -16.6789     7.7804     1.5955 </r>
       <r>   -16.6073     4.8857     1.9453 </r>
       <r>   -16.5357     1.6708     2.0649 </r>
       <r>   -16.4641    -0.0796     2.0592 </r>
       <r>   -16.3926    -0.4377     2.0279 </r>
       <r>   -16.3210    -0.2659     2.0089 </r>
       <r>   -16.2494    -0.0954     2.0020 </r>
       <r>   -16.1778    -0.0236     2.0003 </r>
       <r>   -16.1062    -0.0042     2.0000 </r>
       <r>   -16.0346    -0.0006     2.0000 </r>
       <r>   -15.9630    -0.0001     2.0000 </r>
       <r>   -15.8914    -0.0000     2.0000 </r>
       <r>   -15.8198    -0.0000     2.0000 </r>
       <r>   -15.7482    -0.0000     2.0000 </r>
       <r>   -15.6766    -0.0000     2.0000 </r>
       <r>   -15.6050    -0.0000     2.0000 </r>
       <r>   -15.5335    -0.0000     2.0000 </r>
       <r>   -15.4619     0.0000     2.0000 </r>
       <r>   -15.3903     0.0000     2.0000 </r>
       <r>   -15.3187     0.0000     2.0000 </r>
       <r>   -15.2471     0.0000     2.0000 </r>
       <r>   -15.1755     0.0000     2.0000 </r>
       <r>   -15.1039     0.0000     2.0000 </r>
       <r>   -15.0323     0.0000     2.0000 </r>
       <r>   -14.9607     0.0000     2.0000 </r>
       <r>   -14.8891     0.0000     2.0000 </r>
       <r>   -14.8175     0.0000     2.0000 </r>
       <r>   -14.7459     0.0000     2.0000 </r>
       <r>   -14.6744     0.0000     2.0000 </r>
       <r>   -14.6028     0.0000     2.0000 </r>
       <r>   -14.5312     0.0000     2.0000 </r>
       <r>   -14.4596     0.0000     2.0000 </r>
       <r>   -14.3880     0.0000     2.0000 </r>
       <r>   -14.3164     0.0000     2.0000 </r>
       <r>   -14.2448     0.0000     2.0000 </r>
       <r>   -14.1732     0.0000     2.0000 </r>
       <r>   -14.1016     0.0000     2.0000 </r>
       <r>   -14.0300     0.0000     2.0000 </r>
       <r>   -13.9584     0.0000     2.0000 </r>
       <r>   -13.8868     0.0000     2.0000 </r>
       <r>   -13.8153     0.0000     2.0000 </r>
       <r>   -13.7437     0.0000     2.0000 </r>
       <r>   -13.6721     0.0000     2.0000 </r>
       <r>   -13.6005     0.0000     2.0000 </r>
       <r>   -13.5289     0.0000     2.0000 </r>
       <r>   -13.4573     0.0000     2.0000 </r>
       <r>   -13.3857     0.0000     2.0000 </r>
       <r>   -13.3141     0.0000     2.0000 </r>
       <r>   -13.2425     0.0000     2.0000 </r>
       <r>   -13.1709     0.0000     2.0000 </r>
       <r>   -13.0993     0.0000     2.0000 </r>
       <r>   -13.0277     0.0000     2.0000 </r>
       <r>   -12.9562     0.0000     2.0000 </r>
       <r>   -12.8846     0.0000     2.0000 </r>
       <r>   -12.8130     0.0000     2.0000 </r>
       <r>   -12.7414     0.0000     2.0000 </r>
       <r>   -12.6698     0.0000     2.0000 </r>
       <r>   -12.5982     0.0000     2.0000 </r>
       <r>   -12.5266     0.0000     2.0000 </r>
       <r>   -12.4550     0.0000     2.0000 </r>
       <r>   -12.3834     0.0000     2.0000 </r>
       <r>   -12.3118     0.0000     2.0000 </r>
       <r>   -12.2402     0.0000     2.0000 </r>
       <r>   -12.1686     0.0000     2.0000 </r>
       <r>   -12.0971     0.0000     2.0000 </r>
       <r>   -12.0255     0.0000     2.0000 </r>
       <r>   -11.9539     0.0000     2.0000 </r>
       <r>   -11.8823     0.0000     2.0000 </r>
       <r>   -11.8107     0.0000     2.0000 </r>
       <r>   -11.7391     0.0000     2.0000 </r>
       <r>   -11.6675     0.0000     2.0000 </r>
       <r>   -11.5959     0.0000     2.0000 </r>
       <r>   -11.5243     0.0000     2.0000 </r>
       <r>   -11.4527     0.0000     2.0000 </r>
       <r>   -11.3811     0.0000     2.0000 </r>
       <r>   -11.3095     0.0000     2.0000 </r>
       <r>   -11.2379     0.0000     2.0000 </r>
       <r>   -11.1664     0.0000     2.0000 </r>
       <r>   -11.0948    -0.0000     2.0000 </r>
       <r>   -11.0232    -0.0000     2.0000 </r>
       <r>   -10.9516    -0.0000     2.0000 </r>
       <r>   -10.8800    -0.0000     2.0000 </r>
       <r>   -10.8084    -0.0000     2.0000 </r>
       <r>   -10.7368    -0.0000     2.0000 </r>
       <r>   -10.6652    -0.0000     2.0000 </r>
       <r>   -10.5936    -0.0000     2.0000 </r>
       <r>   -10.5220    -0.0000     2.0000 </r>
       <r>   -10.4504    -0.0000     2.0000 </r>
       <r>   -10.3788    -0.0000     2.0000 </r>
       <r>   -10.3073    -0.0000     2.0000 </r>
       <r>   -10.2357    -0.0000     2.0000 </r>
       <r>   -10.1641    -0.0002     2.0000 </r>
       <r>   -10.0925    -0.0014     1.9999 </r>
       <r>   -10.0209    -0.0090     1.9992 </r>
       <r>    -9.9493    -0.0442     1.9961 </r>
       <r>    -9.8777    -0.1547     1.9850 </r>
       <r>    -9.8061    -0.3609     1.9592 </r>
       <r>    -9.7345    -0.4317     1.9283 </r>
       <r>    -9.6629     0.3277     1.9517 </r>
       <r>    -9.5913     2.5959     2.1376 </r>
       <r>    -9.5197     5.8478     2.5562 </r>
       <r>    -9.4482     8.3388     3.1532 </r>
       <r>    -9.3766     9.1437     3.8078 </r>
       <r>    -9.3050     9.0546     4.4560 </r>
       <r>    -9.2334     8.5845     5.0706 </r>
       <r>    -9.1618     7.2414     5.5890 </r>
       <r>    -9.0902     5.6925     5.9966 </r>
[...]
       <r>     0.2651    -0.5889     9.9400 </r>
       <r>     0.3375    -0.8775     9.8765 </r>
       <r>     0.4099    -0.1879     9.8629 </r>
       <r>     0.4822     3.1697    10.0923 </r>
       <r>     0.5546     9.9678    10.8135 </r>
       <r>     0.6269    17.8992    12.1086 </r>
       <r>     0.6993    22.0319    13.7028 </r>
       <r>     0.7716    19.1027    15.0850 </r>
       <r>     0.8440    11.1888    15.8946 </r>
       <r>     0.9164     3.6325    16.1575 </r>
       <r>     0.9887    -0.2576    16.1388 </r>
       <r>     1.0611    -1.0156    16.0653 </r>
       <r>     1.1334    -0.6136    16.0209 </r>
       <r>     1.2058    -0.2222    16.0049 </r>
       <r>     1.2781    -0.0557    16.0008 </r>
       <r>     1.3505    -0.0101    16.0001 </r>
       <r>     1.4229    -0.0014    16.0000 </r>
       <r>     1.4952    -0.0001    16.0000 </r>
       <r>     1.5676    -0.0000    16.0000 </r>
       <r>     1.6399    -0.0000    16.0000 </r>
       <r>     1.7123    -0.0000    16.0000 </r>
       <r>     1.7846    -0.0000    16.0000 </r>
       <r>     1.8570    -0.0000    16.0000 </r>
       <r>     1.9294    -0.0000    16.0000 </r>
       <r>     2.0017    -0.0000    16.0000 </r>
       <r>     2.0741     0.0000    16.0000 </r>
       <r>     2.1464     0.0000    16.0000 </r>
       <r>     2.2188     0.0000    16.0000 </r>
       <r>     2.2911     0.0000    16.0000 </r>
       <r>     2.3635     0.0000    16.0000 </r>
       <r>     2.4359     0.0000    16.0000 </r>
       <r>     2.5082     0.0000    16.0000 </r>
       <r>     2.5806     0.0000    16.0000 </r>
       <r>     2.6529     0.0000    16.0000 </r>
       <r>     2.7253     0.0000    16.0000 </r>
      </set>
     </set>
    </array>
   </total>
  </dos>
  <time name="totalsc">   91.39   92.74</time>
  <eigenvalues>
   <array>
    <dimension dim="1">band</dimension>
    <dimension dim="2">kpoint</dimension>
    <dimension dim="3">spin</dimension>
    <field>eigene</field>
    <field>occ</field>
    <set>
     <set comment="spin 1">
      <set comment="kpoint 1">
       <r>  -16.7160    1.0000 </r>
       <r>   -9.3955    1.0000 </r>
       <r>   -9.1386    1.0072 </r>
       <r>   -8.8943    0.9926 </r>
       <r>   -0.3063    0.0000 </r>
       <r>    0.5788    0.0000 </r>
       <r>    0.6617    0.0000 </r>
       <r>    0.6931    0.0000 </r>
      </set>
      <set comment="kpoint 2">
       <r>  -16.7160    1.0000 </r>
       <r>   -9.3956    1.0000 </r>
       <r>   -9.1387    1.0072 </r>
       <r>   -8.8944    0.9927 </r>
       <r>   -0.3135    0.0000 </r>
       <r>    0.5778    0.0000 </r>
       <r>    0.6757    0.0000 </r>
       <r>    0.7288    0.0000 </r>
      </set>
      <set comment="kpoint 3">
       <r>  -16.7161    1.0000 </r>
       <r>   -9.3955    1.0000 </r>
       <r>   -9.1388    1.0072 </r>
       <r>   -8.8946    0.9929 </r>
       <r>   -0.3135    0.0000 </r>
       <r>    0.5816    0.0000 </r>
       <r>    0.6844    0.0000 </r>
       <r>    0.7194    0.0000 </r>
      </set>
      <set comment="kpoint 4">
       <r>  -16.7160    1.0000 </r>
       <r>   -9.3955    1.0000 </r>
       <r>   -9.1387    1.0072 </r>
       <r>   -8.8946    0.9930 </r>
       <r>   -0.3147    0.0000 </r>
       <r>    0.5809    0.0000 </r>
       <r>    0.6861    0.0000 </r>
       <r>    0.7294    0.0000 </r>
      </set>
     </set>
    </set>
   </array>
  </eigenvalues>
  <separator name="orbital magnetization" >
   <v name="MAGDIPOLOUT">      0.00000000      0.00000000      0.00000000</v>
  </separator>
  <dos>
   <i name="efermi">     -8.73231157 </i>
   <total>
    <array>
     <dimension dim="1">gridpoints</dimension>
     <dimension dim="2">spin</dimension>
     <field>energy</field>
     <field>total</field>
     <field>integrated</field>
     <set>
      <set comment="spin 1">
       <r>   -18.7161     0.0000     0.0000 </r>
       <r>   -18.6446     0.0000     0.0000 </r>
       <r>   -18.5731     0.0000     0.0000 </r>
       <r>   -18.5016     0.0000     0.0000 </r>
       <r>   -18.4301     0.0000     0.0000 </r>
       <r>   -18.3586    -0.0000    -0.0000 </r>
       <r>   -18.2871    -0.0000    -0.0000 </r>
       <r>   -18.2157    -0.0000    -0.0000 </r>
       <r>   -18.1442    -0.0000    -0.0000 </r>
       <r>   -18.0727    -0.0000    -0.0000 </r>
       <r>   -18.0012    -0.0000    -0.0000 </r>
       <r>   -17.9297    -0.0000    -0.0000 </r>
       <r>   -17.8582    -0.0000    -0.0000 </r>
       <r>   -17.7867    -0.0000    -0.0000 </r>
       <r>   -17.7153    -0.0000    -0.0000 </r>
       <r>   -17.6438    -0.0000    -0.0000 </r>
       <r>   -17.5723    -0.0000    -0.0000 </r>
       <r>   -17.5008    -0.0000    -0.0000 </r>
       <r>   -17.4293    -0.0001    -0.0000 </r>
       <r>   -17.3578    -0.0007    -0.0001 </r>
       <r>   -17.2864    -0.0051    -0.0004 </r>
       <r>   -17.2149    -0.0274    -0.0024 </r>
       <r>   -17.1434    -0.1070    -0.0100 </r>
       <r>   -17.0719    -0.2861    -0.0305 </r>
       <r>   -17.0004    -0.4394    -0.0619 </r>
       <r>   -16.9289     0.0100    -0.0612 </r>
       <r>   -16.8574     1.9105     0.0754 </r>
       <r>   -16.7860     5.1909     0.4465 </r>
       <r>   -16.7145     7.9286     1.0132 </r>
       <r>   -16.6430     7.8564     1.5749 </r>
       <r>   -16.5715     5.0392     1.9351 </r>
       <r>   -16.5000     1.7913     2.0631 </r>
       <r>   -16.4285    -0.0348     2.0606 </r>
       <r>   -16.3570    -0.4392     2.0293 </r>
       <r>   -16.2856    -0.2766     2.0095 </r>
       <r>   -16.2141    -0.1016     2.0022 </r>
       <r>   -16.1426    -0.0256     2.0004 </r>
       <r>   -16.0711    -0.0047     2.0001 </r>
       <r>   -15.9996    -0.0006     2.0000 </r>
       <r>   -15.9281    -0.0001     2.0000 </r>
       <r>   -15.8567    -0.0000     2.0000 </r>
       <r>   -15.7852    -0.0000     2.0000 </r>
       <r>   -15.7137    -0.0000     2.0000 </r>
       <r>   -15.6422    -0.0000     2.0000 </r>
       <r>   -15.5707    -0.0000     2.0000 </r>
       <r>   -15.4992    -0.0000     2.0000 </r>
       <r>   -15.4277    -0.0000     2.0000 </r>
       <r>   -15.3563     0.0000     2.0000 </r>
       <r>   -15.2848     0.0000     2.0000 </r>
       <r>   -15.2133     0.0000     2.0000 </r>
       <r>   -15.1418     0.0000     2.0000 </r>
       <r>   -15.0703     0.0000     2.0000 </r>
       <r>   -14.9988     0.0000     2.0000 </r>
       <r>   -14.9274     0.0000     2.0000 </r>
       <r>   -14.8559     0.0000     2.0000 </r>
       <r>   -14.7844     0.0000     2.0000 </r>
       <r>   -14.7129     0.0000     2.0000 </r>
       <r>   -14.6414     0.0000     2.0000 </r>
       <r>   -14.5699     0.0000     2.0000 </r>
       <r>   -14.4984     0.0000     2.0000 </r>
       <r>   -14.4270     0.0000     2.0000 </r>
       <r>   -14.3555     0.0000     2.0000 </r>
       <r>   -14.2840     0.0000     2.0000 </r>
       <r>   -14.2125     0.0000     2.0000 </r>
       <r>   -14.1410     0.0000     2.0000 </r>
       <r>   -14.0695     0.0000     2.0000 </r>
       <r>   -13.9980     0.0000     2.0000 </r>
       <r>   -13.9266     0.0000     2.0000 </r>
       <r>   -13.8551     0.0000     2.0000 </r>
       <r>   -13.7836     0.0000     2.0000 </r>
       <r>   -13.7121     0.0000     2.0000 </r>
       <r>   -13.6406     0.0000     2.0000 </r>
       <r>   -13.5691     0.0000     2.0000 </r>
       <r>   -13.4977     0.0000     2.0000 </r>
       <r>   -13.4262     0.0000     2.0000 </r>
       <r>   -13.3547     0.0000     2.0000 </r>
       <r>   -13.2832     0.0000     2.0000 </r>
       <r>   -13.2117     0.0000     2.0000 </r>
       <r>   -13.1402     0.0000     2.0000 </r>
       <r>   -13.0687     0.0000     2.0000 </r>
       <r>   -12.9973     0.0000     2.0000 </r>
       <r>   -12.9258     0.0000     2.0000 </r>
       <r>   -12.8543     0.0000     2.0000 </r>
       <r>   -12.7828     0.0000     2.0000 </r>
       <r>   -12.7113     0.0000     2.0000 </r>
       <r>   -12.6398     0.0000     2.0000 </r>
       <r>   -12.5683     0.0000     2.0000 </r>
       <r>   -12.4969     0.0000     2.0000 </r>
       <r>   -12.4254     0.0000     2.0000 </r>
       <r>   -12.3539     0.0000     2.0000 </r>
       <r>   -12.2824     0.0000     2.0000 </r>
       <r>   -12.2109     0.0000     2.0000 </r>
       <r>   -12.1394     0.0000     2.0000 </r>
       <r>   -12.0680     0.0000     2.0000 </r>
       <r>   -11.9965     0.0000     2.0000 </r>
       <r>   -11.9250     0.0000     2.0000 </r>
       <r>   -11.8535     0.0000     2.0000 </r>
       <r>   -11.7820     0.0000     2.0000 </r>
       <r>   -11.7105     0.0000     2.0000 </r>
       <r>   -11.6390     0.0000     2.0000 </r>
       <r>   -11.5676     0.0000     2.0000 </r>
       <r>   -11.4961     0.0000     2.0000 </r>
       <r>   -11.4246     0.0000     2.0000 </r>
       <r>   -11.3531     0.0000     2.0000 </r>
       <r>   -11.2816     0.0000     2.0000 </r>
       <r>   -11.2101     0.0000     2.0000 </r>
       <r>   -11.1387     0.0000     2.0000 </r>
       <r>   -11.0672     0.0000     2.0000 </r>
       <r>   -10.9957    -0.0000     2.0000 </r>
       <r>   -10.9242    -0.0000     2.0000 </r>
       <r>   -10.8527    -0.0000     2.0000 </r>
       <r>   -10.7812    -0.0000     2.0000 </r>
       <r>   -10.7097    -0.0000     2.0000 </r>
       <r>   -10.6383    -0.0000     2.0000 </r>
       <r>   -10.5668    -0.0000     2.0000 </r>
       <r>   -10.4953    -0.0000     2.0000 </r>
       <r>   -10.4238    -0.0000     2.0000 </r>
       <r>   -10.3523    -0.0000     2.0000 </r>
       <r>   -10.2808    -0.0000     2.0000 </r>
       <r>   -10.2093    -0.0000     2.0000 </r>
       <r>   -10.1379    -0.0000     2.0000 </r>
       <r>   -10.0664    -0.0003     2.0000 </r>
       <r>    -9.9949    -0.0023     1.9998 </r>
       <r>    -9.9234    -0.0143     1.9988 </r>
       <r>    -9.8519    -0.0642     1.9942 </r>
       <r>    -9.7804    -0.2028     1.9797 </r>
       <r>    -9.7090    -0.4098     1.9504 </r>
       <r>    -9.6375    -0.3306     1.9268 </r>
       <r>    -9.5660     0.8210     1.9855 </r>
       <r>    -9.4945     3.4880     2.2348 </r>
       <r>    -9.4230     6.6016     2.7067 </r>
       <r>    -9.3515     8.2396     3.2957 </r>
       <r>    -9.2800     8.1021     3.8749 </r>
       <r>    -9.2086     7.7952     4.4321 </r>
       <r>    -9.1371     8.1219     5.0127 </r>
       <r>    -9.0656     8.3718     5.6112 </r>
       <r>    -8.9941     8.4179     6.2129 </r>
       <r>    -8.9226     8.6589     6.8319 </r>
       <r>    -8.8511     8.2124     7.4190 </r>
       <r>    -8.7796     5.9674     7.8456 </r>
       <r>    -8.7082     2.7546     8.0425 </r>
       <r>    -8.6367     0.4124     8.0720 </r>
       <r>    -8.5652    -0.4157     8.0422 </r>
       <r>    -8.4937    -0.3694     8.0158 </r>
       <r>    -8.4222    -0.1626     8.0042 </r>
       <r>    -8.3507    -0.0474     8.0008 </r>
       <r>    -8.2793    -0.0098     8.0001 </r>
       <r>    -8.2078    -0.0015     8.0000 </r>
       <r>    -8.1363    -0.0002     8.0000 </r>
       <r>    -8.0648    -0.0000     8.0000 </r>
       <r>    -7.9933    -0.0000     8.0000 </r>
       <r>    -7.9218    -0.0000     8.0000 </r>
       <r>    -7.8503    -0.0000     8.0000 </r>
       <r>    -7.7789    -0.0000     8.0000 </r>
       <r>    -7.7074    -0.0000     8.0000 </r>
       <r>    -7.6359    -0.0000     8.0000 </r>
       <r>    -7.5644     0.0000     8.0000 </r>
       <r>    -7.4929     0.0000     8.0000 </r>
       <r>    -7.4214     0.0000     8.0000 </r>
       <r>    -7.3499     0.0000     8.0000 </r>
       <r>    -7.2785     0.0000     8.0000 </r>
       <r>    -7.2070     0.0000     8.0000 </r>
       <r>    -7.1355     0.0000     8.0000 </r>
       <r>    -7.0640     0.0000     8.0000 </r>
       <r>    -6.9925     0.0000     8.0000 </r>
       <r>    -6.9210     0.0000     8.0000 </r>
       <r>    -6.8496     0.0000     8.0000 </r>
       <r>    -6.7781     0.0000     8.0000 </r>
       <r>    -6.7066     0.0000     8.0000 </r>
       <r>    -6.6351     0.0000     8.0000 </r>
       <r>    -6.5636     0.0000     8.0000 </r>
       <r>    -6.4921     0.0000     8.0000 </r>
       <r>    -6.4206     0.0000     8.0000 </r>
       <r>    -6.3492     0.0000     8.0000 </r>
       <r>    -6.2777     0.0000     8.0000 </r>
       <r>    -6.2062     0.0000     8.0000 </r>
       <r>    -6.1347     0.0000     8.0000 </r>
       <r>    -6.0632     0.0000     8.0000 </r>
       <r>    -5.9917     0.0000     8.0000 </r>
       <r>    -5.9203     0.0000     8.0000 </r>
       <r>    -5.8488     0.0000     8.0000 </r>
       <r>    -5.7773     0.0000     8.0000 </r>
       <r>    -5.7058     0.0000     8.0000 </r>
       <r>    -5.6343     0.0000     8.0000 </r>
       <r>    -5.5628     0.0000     8.0000 </r>
       <r>    -5.4913     0.0000     8.0000 </r>
       <r>    -5.4199     0.0000     8.0000 </r>
       <r>    -5.3484     0.0000     8.0000 </r>
       <r>    -5.2769     0.0000     8.0000 </r>
       <r>    -5.2054     0.0000     8.0000 </r>
       <r>    -5.1339     0.0000     8.0000 </r>
       <r>    -5.0624     0.0000     8.0000 </r>
       <r>    -4.9909     0.0000     8.0000 </r>
       <r>    -4.9195     0.0000     8.0000 </r>
       <r>    -4.8480     0.0000     8.0000 </r>
       <r>    -4.7765     0.0000     8.0000 </r>
       <r>    -4.7050     0.0000     8.0000 </r>
       <r>    -4.6335     0.0000     8.0000 </r>
       <r>    -4.5620     0.0000     8.0000 </r>
       <r>    -4.4906     0.0000     8.0000 </r>
       <r>    -4.4191     0.0000     8.0000 </r>
       <r>    -4.3476     0.0000     8.0000 </r>
       <r>    -4.2761     0.0000     8.0000 </r>
       <r>    -4.2046     0.0000     8.0000 </r>
       <r>    -4.1331     0.0000     8.0000 </r>
       <r>    -4.0616     0.0000     8.0000 </r>
       <r>    -3.9902     0.0000     8.0000 </r>
       <r>    -3.9187     0.0000     8.0000 </r>
       <r>    -3.8472     0.0000     8.0000 </r>
       <r>    -3.7757     0.0000     8.0000 </r>
       <r>    -3.7042     0.0000     8.0000 </r>
       <r>    -3.6327     0.0000     8.0000 </r>
       <r>    -3.5612     0.0000     8.0000 </r>
       <r>    -3.4898     0.0000     8.0000 </r>
       <r>    -3.4183     0.0000     8.0000 </r>
       <r>    -3.3468     0.0000     8.0000 </r>
       <r>    -3.2753     0.0000     8.0000 </r>
       <r>    -3.2038     0.0000     8.0000 </r>
       <r>    -3.1323     0.0000     8.0000 </r>
       <r>    -3.0609     0.0000     8.0000 </r>
       <r>    -2.9894     0.0000     8.0000 </r>
       <r>    -2.9179     0.0000     8.0000 </r>
       <r>    -2.8464     0.0000     8.0000 </r>
       <r>    -2.7749     0.0000     8.0000 </r>
       <r>    -2.7034     0.0000     8.0000 </r>
       <r>    -2.6319     0.0000     8.0000 </r>
       <r>    -2.5605     0.0000     8.0000 </r>
       <r>    -2.4890     0.0000     8.0000 </r>
       <r>    -2.4175     0.0000     8.0000 </r>
       <r>    -2.3460     0.0000     8.0000 </r>
       <r>    -2.2745     0.0000     8.0000 </r>
       <r>    -2.2030     0.0000     8.0000 </r>
       <r>    -2.1316     0.0000     8.0000 </r>
       <r>    -2.0601     0.0000     8.0000 </r>
       <r>    -1.9886     0.0000     8.0000 </r>
       <r>    -1.9171    -0.0000     8.0000 </r>
       <r>    -1.8456    -0.0000     8.0000 </r>
       <r>    -1.7741    -0.0000     8.0000 </r>
       <r>    -1.7026    -0.0000     8.0000 </r>
       <r>    -1.6312    -0.0000     8.0000 </r>
       <r>    -1.5597    -0.0000     8.0000 </r>
       <r>    -1.4882    -0.0000     8.0000 </r>
       <r>    -1.4167    -0.0000     8.0000 </r>
       <r>    -1.3452    -0.0000     8.0000 </r>
       <r>    -1.2737    -0.0000     8.0000 </r>
       <r>    -1.2022    -0.0000     8.0000 </r>
       <r>    -1.1308    -0.0000     8.0000 </r>
       <r>    -1.0593    -0.0000     8.0000 </r>
       <r>    -0.9878    -0.0002     8.0000 </r>
       <r>    -0.9163    -0.0021     7.9998 </r>
       <r>    -0.8448    -0.0128     7.9989 </r>
       <r>    -0.7733    -0.0585     7.9947 </r>
       <r>    -0.7019    -0.1891     7.9812 </r>
       <r>    -0.6304    -0.3930     7.9531 </r>
       <r>    -0.5589    -0.3347     7.9292 </r>
       <r>    -0.4874     0.7913     7.9858 </r>
       <r>    -0.4159     3.5405     8.2389 </r>
       <r>    -0.3444     6.8634     8.7295 </r>
       <r>    -0.2729     8.3073     9.3233 </r>
       <r>    -0.2015     6.5974     9.7949 </r>
       <r>    -0.1300     3.2319    10.0260 </r>
       <r>    -0.0585     0.6194    10.0702 </r>
       <r>     0.0130    -0.3763    10.0433 </r>
       <r>     0.0845    -0.4098    10.0141 </r>
       <r>     0.1560    -0.3099     9.9919 </r>
       <r>     0.2275    -0.4564     9.9593 </r>
       <r>     0.2989    -0.7964     9.9023 </r>
       <r>     0.3704    -0.6636     9.8549 </r>
       <r>     0.4419     1.3935     9.9545 </r>
       <r>     0.5134     6.6961    10.4332 </r>
       <r>     0.5849    14.3961    11.4623 </r>
       <r>     0.6564    20.6261    12.9367 </r>
       <r>     0.7278    21.1012    14.4452 </r>
       <r>     0.7993    15.3085    15.5395 </r>
       <r>     0.8708     7.2477    16.0576 </r>
       <r>     0.9423     1.4418    16.1607 </r>
       <r>     1.0138    -0.7891    16.1042 </r>
       <r>     1.0853    -0.8638    16.0425 </r>
       <r>     1.1568    -0.4220    16.0123 </r>
       <r>     1.2282    -0.1354    16.0027 </r>
       <r>     1.2997    -0.0311    16.0004 </r>
       <r>     1.3712    -0.0053    16.0001 </r>
       <r>     1.4427    -0.0007    16.0000 </r>
       <r>     1.5142    -0.0001    16.0000 </r>
       <r>     1.5857    -0.0000    16.0000 </r>
       <r>     1.6571    -0.0000    16.0000 </r>
       <r>     1.7286    -0.0000    16.0000 </r>
       <r>     1.8001    -0.0000    16.0000 </r>
       <r>     1.8716    -0.0000    16.0000 </r>
       <r>     1.9431    -0.0000    16.0000 </r>
       <r>     2.0146    -0.0000    16.0000 </r>
       <r>     2.0861     0.0000    16.0000 </r>
       <r>     2.1575     0.0000    16.0000 </r>
       <r>     2.2290     0.0000    16.0000 </r>
       <r>     2.3005     0.0000    16.0000 </r>
       <r>     2.3720     0.0000    16.0000 </r>
       <r>     2.4435     0.0000    16.0000 </r>
       <r>     2.5150     0.0000    16.0000 </r>
       <r>     2.5865     0.0000    16.0000 </r>
       <r>     2.6579     0.0000    16.0000 </r>
       <r>     2.7294     0.0000    16.0000 </r>
      </set>
     </set>
    </array>
   </total>
  </dos>
 </calculation>
 <structure name="finalpos" >
  <crystal>
   <varray name="basis" >
    <v>       9.90976879       0.00000000       0.00000000 </v>
    <v>      -0.18364353      10.02220958       0.00000000 </v>
    <v>      -0.21894471      -0.21772789       9.85247595 </v>
   </varray>
   <i name="volume">    978.52603639 </i>
   <varray name="rec_basis" >
    <v>       0.10091053       0.00184905       0.00228333 </v>
    <v>      -0.00000000       0.09977840       0.00220498 </v>
    <v>       0.00000000      -0.00000000       0.10149733 </v>
   </varray>
  </crystal>
  <varray name="positions" >
   <v>       0.54283124       0.40576252       0.36035760 </v>
   <v>       0.39540192       0.48446155       0.43139000 </v>
   <v>       0.55189212       0.56428299       0.44261540 </v>
   <v>       0.52230267       0.41265572       0.54117956 </v>
   <v>       0.50305139       0.46837851       0.44599920 </v>
  </varray>
  <varray name="velocities" >
   <v>       0.00053860      -0.00202415      -0.00107457 </v>
   <v>       0.00051990       0.00263624       0.00075661 </v>
   <v>      -0.00155070       0.00233863      -0.00273470 </v>
   <v>      -0.00031205      -0.00323433       0.00153301 </v>
   <v>       0.00006696       0.00002361       0.00012652 </v>
  </varray>
 </structure>
</modeling>
