unknown system                          
           1
     9.909769    0.000000    0.000000
    -0.183644   10.022210    0.000000
    -0.218945   -0.217728    9.852476
   H    C 
   4   1
Direct configuration=     1
   0.53856385  0.40714928  0.36092180
   0.39377719  0.47991310  0.43869542
   0.55172512  0.56616685  0.44256442
   0.52858020  0.41634340  0.53892310
   0.50303321  0.46817787  0.44553611
Direct configuration=     2
   0.54027327  0.40741724  0.36277350
   0.39465909  0.48101902  0.43799168
   0.55227354  0.56889964  0.44049334
   0.52628625  0.41523719  0.54017192
   0.50296279  0.46792806  0.44550900
Direct configuration=     3
   0.54254789  0.40451053  0.36405324
   0.39346150  0.48061905  0.43625364
   0.55281366  0.57142771  0.44181686
   0.52528078  0.41529841  0.54245173
   0.50291187  0.46798779  0.44524715
Direct configuration=     4
   0.54359367  0.40131226  0.36583989
   0.39210571  0.47961656  0.43402833
   0.55224820  0.56925913  0.44712121
   0.52434108  0.41851864  0.53954589
   0.50306299  0.46824998  0.44508398
Direct configuration=     5
   0.54281843  0.39878720  0.36707885
   0.39182325  0.47882947  0.43215344
   0.55292358  0.56357566  0.45122827
   0.52326751  0.42209446  0.53960717
   0.50318420  0.46870121  0.44478988
Direct configuration=     6
   0.54279846  0.39821316  0.36687842
   0.39209898  0.47840126  0.42978639
   0.55683099  0.56301805  0.45370613
   0.52598678  0.42248433  0.54352338
   0.50261119  0.46879862  0.44447129
Direct configuration=     7
   0.54336010  0.40089816  0.36673204
   0.39246225  0.47810714  0.42823492
   0.56124732  0.56725384  0.45388925
   0.52712306  0.42156388  0.54440278
   0.50207189  0.46832354  0.44452419
Direct configuration=     8
   0.54301795  0.40434364  0.36490062
   0.39344555  0.47845093  0.42820922
   0.56189772  0.56783143  0.45275063
   0.52571054  0.42049863  0.54097119
   0.50208197  0.46804866  0.44505931
Direct configuration=     9
   0.54225565  0.40707096  0.36297630
   0.39374432  0.47973890  0.42989594
   0.55864277  0.56451195  0.44943207
   0.52412815  0.41814464  0.53911330
   0.50252330  0.46818671  0.44551007
Direct configuration=    10
   0.54229264  0.40778666  0.36143217
   0.39488203  0.48182531  0.43063339
   0.55344281  0.56194436  0.44535009
   0.52261471  0.41589006  0.53964655
   0.50298444  0.46835490  0.44587268
