   5   5   0****
  0.1981261E+03  0.9929811E-09  0.9822981E-09  0.1016133E-08  0.2000000E-14
   50.000000000000000     
  CAR 
 unknown system                          
      2.72208347    -18.90229667  301     -9.08617145      1.00000000
    -18.902  0.0000E+00  0.0000E+00
    -18.830  0.0000E+00  0.0000E+00
    -18.758  0.0000E+00  0.0000E+00
    -18.686  0.0000E+00  0.0000E+00
    -18.614  0.0000E+00  0.0000E+00
    -18.542 -0.4162E-27 -0.3000E-28
    -18.470 -0.1283E-24 -0.9279E-26
    -18.398 -0.3052E-22 -0.2209E-23
    -18.326 -0.5582E-20 -0.4046E-21
    -18.254 -0.7853E-18 -0.5701E-19
    -18.181 -0.8490E-16 -0.6177E-17
    -18.109 -0.7053E-14 -0.5145E-15
    -18.037 -0.4359E-12 -0.3194E-13
    -17.965 -0.2124E-10 -0.1563E-11
    -17.893 -0.7924E-09 -0.5868E-10
    -17.821 -0.2260E-07 -0.1688E-08
    -17.749 -0.4919E-06 -0.3715E-07
    -17.677 -0.8146E-05 -0.6243E-06
    -17.605 -0.1022E-03 -0.7994E-05
    -17.533 -0.9670E-03 -0.7770E-04
    -17.461 -0.6830E-02 -0.5700E-03
    -17.389 -0.3548E-01 -0.3127E-02
    -17.317 -0.1317E+00 -0.1262E-01
    -17.244 -0.3266E+00 -0.3616E-01
    -17.172 -0.4256E+00 -0.6684E-01
    -17.100  0.2600E+00 -0.4810E-01
    -17.028  0.2531E+01  0.1344E+00
    -16.956  0.5937E+01  0.5623E+00
    -16.884  0.8206E+01  0.1154E+01
    -16.812  0.7367E+01  0.1685E+01
    -16.740  0.4180E+01  0.1986E+01
    -16.668  0.1163E+01  0.2070E+01
    -16.596 -0.2454E+00  0.2052E+01
    -16.524 -0.4176E+00  0.2022E+01
    -16.452 -0.2184E+00  0.2006E+01
    -16.379 -0.7086E-01  0.2001E+01
    -16.307 -0.1602E-01  0.2000E+01
    -16.235 -0.2633E-02  0.2000E+01
    -16.163 -0.3211E-03  0.2000E+01
    -16.091 -0.2939E-04  0.2000E+01
    -16.019 -0.2034E-05  0.2000E+01
    -15.947 -0.1069E-06  0.2000E+01
    -15.875 -0.4281E-08  0.2000E+01
    -15.803 -0.1310E-09  0.2000E+01
    -15.731 -0.3067E-11  0.2000E+01
    -15.659 -0.5545E-13  0.2000E+01
    -15.587  0.0000E+00  0.2000E+01
    -15.514  0.0000E+00  0.2000E+01
    -15.442  0.0000E+00  0.2000E+01
    -15.370  0.0000E+00  0.2000E+01
    -15.298  0.0000E+00  0.2000E+01
    -15.226  0.0000E+00  0.2000E+01
    -15.154  0.0000E+00  0.2000E+01
    -15.082  0.0000E+00  0.2000E+01
    -15.010  0.0000E+00  0.2000E+01
    -14.938  0.0000E+00  0.2000E+01
    -14.866  0.0000E+00  0.2000E+01
    -14.794  0.0000E+00  0.2000E+01
    -14.722  0.0000E+00  0.2000E+01
    -14.650  0.0000E+00  0.2000E+01
    -14.577  0.0000E+00  0.2000E+01
    -14.505  0.0000E+00  0.2000E+01
    -14.433  0.0000E+00  0.2000E+01
    -14.361  0.0000E+00  0.2000E+01
    -14.289  0.0000E+00  0.2000E+01
    -14.217  0.0000E+00  0.2000E+01
    -14.145  0.0000E+00  0.2000E+01
    -14.073  0.0000E+00  0.2000E+01
    -14.001  0.0000E+00  0.2000E+01
    -13.929  0.0000E+00  0.2000E+01
    -13.857  0.0000E+00  0.2000E+01
    -13.785  0.0000E+00  0.2000E+01
    -13.712  0.0000E+00  0.2000E+01
    -13.640  0.0000E+00  0.2000E+01
    -13.568  0.0000E+00  0.2000E+01
    -13.496  0.0000E+00  0.2000E+01
    -13.424  0.0000E+00  0.2000E+01
    -13.352  0.0000E+00  0.2000E+01
    -13.280  0.0000E+00  0.2000E+01
    -13.208  0.0000E+00  0.2000E+01
    -13.136  0.0000E+00  0.2000E+01
    -13.064  0.0000E+00  0.2000E+01
    -12.992  0.0000E+00  0.2000E+01
    -12.920  0.0000E+00  0.2000E+01
    -12.847  0.0000E+00  0.2000E+01
    -12.775  0.0000E+00  0.2000E+01
    -12.703  0.0000E+00  0.2000E+01
    -12.631  0.0000E+00  0.2000E+01
    -12.559  0.0000E+00  0.2000E+01
    -12.487  0.0000E+00  0.2000E+01
    -12.415  0.0000E+00  0.2000E+01
    -12.343  0.0000E+00  0.2000E+01
    -12.271  0.0000E+00  0.2000E+01
    -12.199  0.0000E+00  0.2000E+01
    -12.127  0.0000E+00  0.2000E+01
    -12.055  0.0000E+00  0.2000E+01
    -11.982  0.0000E+00  0.2000E+01
    -11.910  0.0000E+00  0.2000E+01
    -11.838  0.0000E+00  0.2000E+01
    -11.766  0.0000E+00  0.2000E+01
    -11.694  0.0000E+00  0.2000E+01
    -11.622  0.0000E+00  0.2000E+01
    -11.550  0.0000E+00  0.2000E+01
    -11.478  0.0000E+00  0.2000E+01
    -11.406  0.0000E+00  0.2000E+01
    -11.334  0.0000E+00  0.2000E+01
    -11.262  0.0000E+00  0.2000E+01
    -11.190  0.0000E+00  0.2000E+01
    -11.118  0.0000E+00  0.2000E+01
    -11.045  0.0000E+00  0.2000E+01
    -10.973 -0.8838E-26  0.2000E+01
    -10.901 -0.2373E-23  0.2000E+01
    -10.829 -0.4915E-21  0.2000E+01
    -10.757 -0.7829E-19  0.2000E+01
    -10.685 -0.9589E-17  0.2000E+01
    -10.613 -0.9026E-15  0.2000E+01
    -10.541 -0.6372E-13  0.2000E+01
    -10.469 -0.3504E-11  0.2000E+01
    -10.397 -0.1485E-09  0.2000E+01
    -10.325 -0.4817E-08  0.2000E+01
    -10.253 -0.1195E-06  0.2000E+01
    -10.180 -0.2261E-05  0.2000E+01
    -10.108 -0.3259E-04  0.2000E+01
    -10.036 -0.3562E-03  0.2000E+01
     -9.964 -0.2941E-02  0.2000E+01
     -9.892 -0.1820E-01  0.1998E+01
     -9.820 -0.8343E-01  0.1992E+01
     -9.748 -0.2765E+00  0.1973E+01
     -9.676 -0.6246E+00  0.1927E+01
     -9.604 -0.7714E+00  0.1872E+01
     -9.532  0.3880E+00  0.1900E+01
     -9.460  0.4304E+01  0.2210E+01
     -9.388  0.1116E+02  0.3014E+01
     -9.315  0.1836E+02  0.4338E+01
     -9.243  0.2148E+02  0.5887E+01
     -9.171  0.1803E+02  0.7186E+01
     -9.099  0.1028E+02  0.7927E+01
     -9.027  0.3187E+01  0.8156E+01
     -8.955 -0.3507E+00  0.8131E+01
     -8.883 -0.9797E+00  0.8061E+01
     -8.811 -0.5744E+00  0.8019E+01
     -8.739 -0.2048E+00  0.8004E+01
     -8.667 -0.5073E-01  0.8001E+01
     -8.595 -0.9141E-02  0.8000E+01
     -8.523 -0.1224E-02  0.8000E+01
     -8.451 -0.1231E-03  0.8000E+01
     -8.378 -0.9384E-05  0.8000E+01
     -8.306 -0.5440E-06  0.8000E+01
     -8.234 -0.2407E-07  0.8000E+01
     -8.162 -0.8147E-09  0.8000E+01
     -8.090 -0.2113E-10  0.8000E+01
     -8.018 -0.4251E-12  0.8000E+01
     -7.946 -0.6161E-14  0.8000E+01
     -7.874  0.0000E+00  0.8000E+01
     -7.802  0.0000E+00  0.8000E+01
     -7.730  0.0000E+00  0.8000E+01
     -7.658  0.0000E+00  0.8000E+01
     -7.586  0.0000E+00  0.8000E+01
     -7.513  0.0000E+00  0.8000E+01
     -7.441  0.0000E+00  0.8000E+01
     -7.369  0.0000E+00  0.8000E+01
     -7.297  0.0000E+00  0.8000E+01
     -7.225  0.0000E+00  0.8000E+01
     -7.153  0.0000E+00  0.8000E+01
     -7.081  0.0000E+00  0.8000E+01
     -7.009  0.0000E+00  0.8000E+01
     -6.937  0.0000E+00  0.8000E+01
     -6.865  0.0000E+00  0.8000E+01
     -6.793  0.0000E+00  0.8000E+01
     -6.721  0.0000E+00  0.8000E+01
     -6.648  0.0000E+00  0.8000E+01
     -6.576  0.0000E+00  0.8000E+01
     -6.504  0.0000E+00  0.8000E+01
     -6.432  0.0000E+00  0.8000E+01
     -6.360  0.0000E+00  0.8000E+01
     -6.288  0.0000E+00  0.8000E+01
     -6.216  0.0000E+00  0.8000E+01
     -6.144  0.0000E+00  0.8000E+01
     -6.072  0.0000E+00  0.8000E+01
     -6.000  0.0000E+00  0.8000E+01
     -5.928  0.0000E+00  0.8000E+01
     -5.856  0.0000E+00  0.8000E+01
     -5.784  0.0000E+00  0.8000E+01
     -5.711  0.0000E+00  0.8000E+01
     -5.639  0.0000E+00  0.8000E+01
     -5.567  0.0000E+00  0.8000E+01
     -5.495  0.0000E+00  0.8000E+01
     -5.423  0.0000E+00  0.8000E+01
     -5.351  0.0000E+00  0.8000E+01
     -5.279  0.0000E+00  0.8000E+01
     -5.207  0.0000E+00  0.8000E+01
     -5.135  0.0000E+00  0.8000E+01
     -5.063  0.0000E+00  0.8000E+01
     -4.991  0.0000E+00  0.8000E+01
     -4.919  0.0000E+00  0.8000E+01
     -4.846  0.0000E+00  0.8000E+01
     -4.774  0.0000E+00  0.8000E+01
     -4.702  0.0000E+00  0.8000E+01
     -4.630  0.0000E+00  0.8000E+01
     -4.558  0.0000E+00  0.8000E+01
     -4.486  0.0000E+00  0.8000E+01
     -4.414  0.0000E+00  0.8000E+01
     -4.342  0.0000E+00  0.8000E+01
     -4.270  0.0000E+00  0.8000E+01
     -4.198  0.0000E+00  0.8000E+01
     -4.126  0.0000E+00  0.8000E+01
     -4.054  0.0000E+00  0.8000E+01
     -3.981  0.0000E+00  0.8000E+01
     -3.909  0.0000E+00  0.8000E+01
     -3.837  0.0000E+00  0.8000E+01
     -3.765  0.0000E+00  0.8000E+01
     -3.693  0.0000E+00  0.8000E+01
     -3.621  0.0000E+00  0.8000E+01
     -3.549  0.0000E+00  0.8000E+01
     -3.477  0.0000E+00  0.8000E+01
     -3.405  0.0000E+00  0.8000E+01
     -3.333  0.0000E+00  0.8000E+01
     -3.261  0.0000E+00  0.8000E+01
     -3.189  0.0000E+00  0.8000E+01
     -3.116  0.0000E+00  0.8000E+01
     -3.044  0.0000E+00  0.8000E+01
     -2.972  0.0000E+00  0.8000E+01
     -2.900  0.0000E+00  0.8000E+01
     -2.828  0.0000E+00  0.8000E+01
     -2.756  0.0000E+00  0.8000E+01
     -2.684  0.0000E+00  0.8000E+01
     -2.612  0.0000E+00  0.8000E+01
     -2.540  0.0000E+00  0.8000E+01
     -2.468  0.0000E+00  0.8000E+01
     -2.396  0.0000E+00  0.8000E+01
     -2.324  0.0000E+00  0.8000E+01
     -2.252  0.0000E+00  0.8000E+01
     -2.179  0.0000E+00  0.8000E+01
     -2.107  0.0000E+00  0.8000E+01
     -2.035  0.0000E+00  0.8000E+01
     -1.963 -0.1635E-27  0.8000E+01
     -1.891 -0.5250E-25  0.8000E+01
     -1.819 -0.1300E-22  0.8000E+01
     -1.747 -0.2478E-20  0.8000E+01
     -1.675 -0.3631E-18  0.8000E+01
     -1.603 -0.4091E-16  0.8000E+01
     -1.531 -0.3541E-14  0.8000E+01
     -1.459 -0.2285E-12  0.8000E+01
     -1.387 -0.1160E-10  0.8000E+01
     -1.314 -0.4514E-09  0.8000E+01
     -1.242 -0.1343E-07  0.8000E+01
     -1.170 -0.3052E-06  0.8000E+01
     -1.098 -0.5279E-05  0.8000E+01
     -1.026 -0.6927E-04  0.8000E+01
     -0.954 -0.6857E-03  0.8000E+01
     -0.882 -0.5079E-02  0.8000E+01
     -0.810 -0.2776E-01  0.7998E+01
     -0.738 -0.1091E+00  0.7990E+01
     -0.666 -0.2911E+00  0.7969E+01
     -0.594 -0.4380E+00  0.7937E+01
     -0.522  0.5558E-01  0.7941E+01
     -0.449  0.2047E+01  0.8089E+01
     -0.377  0.5384E+01  0.8477E+01
     -0.305  0.8020E+01  0.9055E+01
     -0.233  0.7719E+01  0.9611E+01
     -0.161  0.4755E+01  0.9954E+01
     -0.089  0.1559E+01  0.1007E+02
     -0.017 -0.1263E+00  0.1006E+02
      0.055 -0.4557E+00  0.1002E+02
      0.127 -0.3496E+00  0.9999E+01
      0.199 -0.4002E+00  0.9970E+01
      0.271 -0.6986E+00  0.9920E+01
      0.343 -0.7643E+00  0.9865E+01
      0.415  0.6635E+00  0.9913E+01
      0.488  0.5059E+01  0.1028E+02
      0.560  0.1230E+02  0.1116E+02
      0.632  0.1929E+02  0.1256E+02
      0.704  0.2149E+02  0.1410E+02
      0.776  0.1706E+02  0.1533E+02
      0.848  0.9056E+01  0.1599E+02
      0.920  0.2423E+01  0.1616E+02
      0.992 -0.5664E+00  0.1612E+02
      1.064 -0.9375E+00  0.1605E+02
      1.136 -0.5057E+00  0.1602E+02
      1.208 -0.1716E+00  0.1600E+02
      1.280 -0.4096E-01  0.1600E+02
      1.353 -0.7156E-02  0.1600E+02
      1.425 -0.9328E-03  0.1600E+02
      1.497 -0.9172E-04  0.1600E+02
      1.569 -0.6847E-05  0.1600E+02
      1.641 -0.3897E-06  0.1600E+02
      1.713 -0.1696E-07  0.1600E+02
      1.785 -0.5659E-09  0.1600E+02
      1.857 -0.1449E-10  0.1600E+02
      1.929 -0.2880E-12  0.1600E+02
      2.001 -0.4621E-14  0.1600E+02
      2.073  0.0000E+00  0.1600E+02
      2.145  0.0000E+00  0.1600E+02
      2.218  0.0000E+00  0.1600E+02
      2.290  0.0000E+00  0.1600E+02
      2.362  0.0000E+00  0.1600E+02
      2.434  0.0000E+00  0.1600E+02
      2.506  0.0000E+00  0.1600E+02
      2.578  0.0000E+00  0.1600E+02
      2.650  0.0000E+00  0.1600E+02
      2.722  0.0000E+00  0.1600E+02
      2.71848782    -18.87224613  301     -8.88867498      1.00000000
    -18.872  0.0000E+00  0.0000E+00
    -18.800  0.0000E+00  0.0000E+00
    -18.728  0.0000E+00  0.0000E+00
    -18.656  0.0000E+00  0.0000E+00
    -18.584  0.0000E+00  0.0000E+00
    -18.512 -0.3980E-27 -0.2864E-28
    -18.440 -0.1219E-24 -0.8802E-26
    -18.368 -0.2882E-22 -0.2083E-23
    -18.296 -0.5246E-20 -0.3796E-21
    -18.225 -0.7348E-18 -0.5327E-19
    -18.153 -0.7918E-16 -0.5752E-17
    -18.081 -0.6561E-14 -0.4779E-15
    -18.009 -0.4054E-12 -0.2965E-13
    -17.937 -0.1971E-10 -0.1448E-11
    -17.865 -0.7353E-09 -0.5437E-10
    -17.793 -0.2099E-07 -0.1565E-08
    -17.721 -0.4576E-06 -0.3450E-07
    -17.649 -0.7598E-05 -0.5813E-06
    -17.577 -0.9571E-04 -0.7470E-05
    -17.505 -0.9095E-03 -0.7292E-04
    -17.433 -0.6461E-02 -0.5379E-03
    -17.361 -0.3382E-01 -0.2972E-02
    -17.289 -0.1268E+00 -0.1210E-01
    -17.217 -0.3190E+00 -0.3506E-01
    -17.145 -0.4302E+00 -0.6602E-01
    -17.073  0.2077E+00 -0.5107E-01
    -17.001  0.2409E+01  0.1223E+00
    -16.929  0.5800E+01  0.5397E+00
    -16.857  0.8167E+01  0.1127E+01
    -16.785  0.7471E+01  0.1665E+01
    -16.713  0.4342E+01  0.1978E+01
    -16.641  0.1273E+01  0.2069E+01
    -16.569 -0.2128E+00  0.2054E+01
    -16.497 -0.4239E+00  0.2023E+01
    -16.425 -0.2290E+00  0.2007E+01
    -16.353 -0.7601E-01  0.2002E+01
    -16.281 -0.1754E-01  0.2000E+01
    -16.209 -0.2940E-02  0.2000E+01
    -16.137 -0.3658E-03  0.2000E+01
    -16.065 -0.3417E-04  0.2000E+01
    -15.993 -0.2414E-05  0.2000E+01
    -15.922 -0.1296E-06  0.2000E+01
    -15.850 -0.5308E-08  0.2000E+01
    -15.778 -0.1661E-09  0.2000E+01
    -15.706 -0.3985E-11  0.2000E+01
    -15.634 -0.7405E-13  0.2000E+01
    -15.562  0.0000E+00  0.2000E+01
    -15.490  0.0000E+00  0.2000E+01
    -15.418  0.0000E+00  0.2000E+01
    -15.346  0.0000E+00  0.2000E+01
    -15.274  0.0000E+00  0.2000E+01
    -15.202  0.0000E+00  0.2000E+01
    -15.130  0.0000E+00  0.2000E+01
    -15.058  0.0000E+00  0.2000E+01
    -14.986  0.0000E+00  0.2000E+01
    -14.914  0.0000E+00  0.2000E+01
    -14.842  0.0000E+00  0.2000E+01
    -14.770  0.0000E+00  0.2000E+01
    -14.698  0.0000E+00  0.2000E+01
    -14.626  0.0000E+00  0.2000E+01
    -14.554  0.0000E+00  0.2000E+01
    -14.482  0.0000E+00  0.2000E+01
    -14.410  0.0000E+00  0.2000E+01
    -14.338  0.0000E+00  0.2000E+01
    -14.266  0.0000E+00  0.2000E+01
    -14.194  0.0000E+00  0.2000E+01
    -14.122  0.0000E+00  0.2000E+01
    -14.050  0.0000E+00  0.2000E+01
    -13.978  0.0000E+00  0.2000E+01
    -13.906  0.0000E+00  0.2000E+01
    -13.834  0.0000E+00  0.2000E+01
    -13.762  0.0000E+00  0.2000E+01
    -13.690  0.0000E+00  0.2000E+01
    -13.619  0.0000E+00  0.2000E+01
    -13.547  0.0000E+00  0.2000E+01
    -13.475  0.0000E+00  0.2000E+01
    -13.403  0.0000E+00  0.2000E+01
    -13.331  0.0000E+00  0.2000E+01
    -13.259  0.0000E+00  0.2000E+01
    -13.187  0.0000E+00  0.2000E+01
    -13.115  0.0000E+00  0.2000E+01
    -13.043  0.0000E+00  0.2000E+01
    -12.971  0.0000E+00  0.2000E+01
    -12.899  0.0000E+00  0.2000E+01
    -12.827  0.0000E+00  0.2000E+01
    -12.755  0.0000E+00  0.2000E+01
    -12.683  0.0000E+00  0.2000E+01
    -12.611  0.0000E+00  0.2000E+01
    -12.539  0.0000E+00  0.2000E+01
    -12.467  0.0000E+00  0.2000E+01
    -12.395  0.0000E+00  0.2000E+01
    -12.323  0.0000E+00  0.2000E+01
    -12.251  0.0000E+00  0.2000E+01
    -12.179  0.0000E+00  0.2000E+01
    -12.107  0.0000E+00  0.2000E+01
    -12.035  0.0000E+00  0.2000E+01
    -11.963  0.0000E+00  0.2000E+01
    -11.891  0.0000E+00  0.2000E+01
    -11.819  0.0000E+00  0.2000E+01
    -11.747  0.0000E+00  0.2000E+01
    -11.675  0.0000E+00  0.2000E+01
    -11.603  0.0000E+00  0.2000E+01
    -11.531  0.0000E+00  0.2000E+01
    -11.459  0.0000E+00  0.2000E+01
    -11.387  0.0000E+00  0.2000E+01
    -11.315  0.0000E+00  0.2000E+01
    -11.244  0.0000E+00  0.2000E+01
    -11.172  0.0000E+00  0.2000E+01
    -11.100  0.0000E+00  0.2000E+01
    -11.028 -0.8838E-26  0.2000E+01
    -10.956 -0.2353E-23  0.2000E+01
    -10.884 -0.4838E-21  0.2000E+01
    -10.812 -0.7655E-19  0.2000E+01
    -10.740 -0.9321E-17  0.2000E+01
    -10.668 -0.8730E-15  0.2000E+01
    -10.596 -0.6132E-13  0.2000E+01
    -10.524 -0.3364E-11  0.2000E+01
    -10.452 -0.1423E-09  0.2000E+01
    -10.380 -0.4609E-08  0.2000E+01
    -10.308 -0.1143E-06  0.2000E+01
    -10.236 -0.2164E-05  0.2000E+01
    -10.164 -0.3123E-04  0.2000E+01
    -10.092 -0.3420E-03  0.2000E+01
    -10.020 -0.2828E-02  0.2000E+01
     -9.948 -0.1751E-01  0.1999E+01
     -9.876 -0.7992E-01  0.1993E+01
     -9.804 -0.2611E+00  0.1974E+01
     -9.732 -0.5655E+00  0.1933E+01
     -9.660 -0.5915E+00  0.1891E+01
     -9.588  0.7492E+00  0.1945E+01
     -9.516  0.4527E+01  0.2270E+01
     -9.444  0.1000E+02  0.2990E+01
     -9.372  0.1405E+02  0.4001E+01
     -9.300  0.1388E+02  0.5000E+01
     -9.228  0.1048E+02  0.5754E+01
     -9.156  0.7698E+01  0.6308E+01
     -9.084  0.7444E+01  0.6844E+01
     -9.012  0.7684E+01  0.7397E+01
     -8.941  0.5991E+01  0.7828E+01
     -8.869  0.2895E+01  0.8036E+01
     -8.797  0.4850E+00  0.8071E+01
     -8.725 -0.3996E+00  0.8043E+01
     -8.653 -0.3692E+00  0.8016E+01
     -8.581 -0.1630E+00  0.8004E+01
     -8.509 -0.4719E-01  0.8001E+01
     -8.437 -0.9695E-02  0.8000E+01
     -8.365 -0.1461E-02  0.8000E+01
     -8.293 -0.1641E-03  0.8000E+01
     -8.221 -0.1389E-04  0.8000E+01
     -8.149 -0.8905E-06  0.8000E+01
     -8.077 -0.4345E-07  0.8000E+01
     -8.005 -0.1619E-08  0.8000E+01
     -7.933 -0.4611E-10  0.8000E+01
     -7.861 -0.1006E-11  0.8000E+01
     -7.789 -0.1851E-13  0.8000E+01
     -7.717  0.0000E+00  0.8000E+01
     -7.645  0.0000E+00  0.8000E+01
     -7.573  0.0000E+00  0.8000E+01
     -7.501  0.0000E+00  0.8000E+01
     -7.429  0.0000E+00  0.8000E+01
     -7.357  0.0000E+00  0.8000E+01
     -7.285  0.0000E+00  0.8000E+01
     -7.213  0.0000E+00  0.8000E+01
     -7.141  0.0000E+00  0.8000E+01
     -7.069  0.0000E+00  0.8000E+01
     -6.997  0.0000E+00  0.8000E+01
     -6.925  0.0000E+00  0.8000E+01
     -6.853  0.0000E+00  0.8000E+01
     -6.781  0.0000E+00  0.8000E+01
     -6.709  0.0000E+00  0.8000E+01
     -6.637  0.0000E+00  0.8000E+01
     -6.566  0.0000E+00  0.8000E+01
     -6.494  0.0000E+00  0.8000E+01
     -6.422  0.0000E+00  0.8000E+01
     -6.350  0.0000E+00  0.8000E+01
     -6.278  0.0000E+00  0.8000E+01
     -6.206  0.0000E+00  0.8000E+01
     -6.134  0.0000E+00  0.8000E+01
     -6.062  0.0000E+00  0.8000E+01
     -5.990  0.0000E+00  0.8000E+01
     -5.918  0.0000E+00  0.8000E+01
     -5.846  0.0000E+00  0.8000E+01
     -5.774  0.0000E+00  0.8000E+01
     -5.702  0.0000E+00  0.8000E+01
     -5.630  0.0000E+00  0.8000E+01
     -5.558  0.0000E+00  0.8000E+01
     -5.486  0.0000E+00  0.8000E+01
     -5.414  0.0000E+00  0.8000E+01
     -5.342  0.0000E+00  0.8000E+01
     -5.270  0.0000E+00  0.8000E+01
     -5.198  0.0000E+00  0.8000E+01
     -5.126  0.0000E+00  0.8000E+01
     -5.054  0.0000E+00  0.8000E+01
     -4.982  0.0000E+00  0.8000E+01
     -4.910  0.0000E+00  0.8000E+01
     -4.838  0.0000E+00  0.8000E+01
     -4.766  0.0000E+00  0.8000E+01
     -4.694  0.0000E+00  0.8000E+01
     -4.622  0.0000E+00  0.8000E+01
     -4.550  0.0000E+00  0.8000E+01
     -4.478  0.0000E+00  0.8000E+01
     -4.406  0.0000E+00  0.8000E+01
     -4.334  0.0000E+00  0.8000E+01
     -4.263  0.0000E+00  0.8000E+01
     -4.191  0.0000E+00  0.8000E+01
     -4.119  0.0000E+00  0.8000E+01
     -4.047  0.0000E+00  0.8000E+01
     -3.975  0.0000E+00  0.8000E+01
     -3.903  0.0000E+00  0.8000E+01
     -3.831  0.0000E+00  0.8000E+01
     -3.759  0.0000E+00  0.8000E+01
     -3.687  0.0000E+00  0.8000E+01
     -3.615  0.0000E+00  0.8000E+01
     -3.543  0.0000E+00  0.8000E+01
     -3.471  0.0000E+00  0.8000E+01
     -3.399  0.0000E+00  0.8000E+01
     -3.327  0.0000E+00  0.8000E+01
     -3.255  0.0000E+00  0.8000E+01
     -3.183  0.0000E+00  0.8000E+01
     -3.111  0.0000E+00  0.8000E+01
     -3.039  0.0000E+00  0.8000E+01
     -2.967  0.0000E+00  0.8000E+01
     -2.895  0.0000E+00  0.8000E+01
     -2.823  0.0000E+00  0.8000E+01
     -2.751  0.0000E+00  0.8000E+01
     -2.679  0.0000E+00  0.8000E+01
     -2.607  0.0000E+00  0.8000E+01
     -2.535  0.0000E+00  0.8000E+01
     -2.463  0.0000E+00  0.8000E+01
     -2.391  0.0000E+00  0.8000E+01
     -2.319  0.0000E+00  0.8000E+01
     -2.247  0.0000E+00  0.8000E+01
     -2.175  0.0000E+00  0.8000E+01
     -2.103  0.0000E+00  0.8000E+01
     -2.031  0.0000E+00  0.8000E+01
     -1.960 -0.4975E-27  0.8000E+01
     -1.888 -0.1507E-24  0.8000E+01
     -1.816 -0.3523E-22  0.8000E+01
     -1.744 -0.6342E-20  0.8000E+01
     -1.672 -0.8787E-18  0.8000E+01
     -1.600 -0.9366E-16  0.8000E+01
     -1.528 -0.7677E-14  0.8000E+01
     -1.456 -0.4686E-12  0.8000E+01
     -1.384 -0.2258E-10  0.8000E+01
     -1.312 -0.8334E-09  0.8000E+01
     -1.240 -0.2354E-07  0.8000E+01
     -1.168 -0.5079E-06  0.8000E+01
     -1.096 -0.8346E-05  0.8000E+01
     -1.024 -0.1040E-03  0.8000E+01
     -0.952 -0.9782E-03  0.8000E+01
     -0.880 -0.6874E-02  0.7999E+01
     -0.808 -0.3557E-01  0.7997E+01
     -0.736 -0.1317E+00  0.7987E+01
     -0.664 -0.3261E+00  0.7964E+01
     -0.592 -0.4255E+00  0.7933E+01
     -0.520  0.2538E+00  0.7952E+01
     -0.448  0.2511E+01  0.8132E+01
     -0.376  0.5907E+01  0.8557E+01
     -0.304  0.8194E+01  0.9147E+01
     -0.232  0.7393E+01  0.9679E+01
     -0.160  0.4227E+01  0.9983E+01
     -0.088  0.1198E+01  0.1007E+02
     -0.016 -0.2379E+00  0.1005E+02
      0.056 -0.4449E+00  0.1002E+02
      0.128 -0.3312E+00  0.9997E+01
      0.200 -0.4100E+00  0.9967E+01
      0.272 -0.7148E+00  0.9916E+01
      0.344 -0.7089E+00  0.9865E+01
      0.415  0.8954E+00  0.9929E+01
      0.487  0.5478E+01  0.1032E+02
      0.559  0.1273E+02  0.1124E+02
      0.631  0.1945E+02  0.1264E+02
      0.703  0.2128E+02  0.1417E+02
      0.775  0.1666E+02  0.1537E+02
      0.847  0.8717E+01  0.1600E+02
      0.919  0.2262E+01  0.1616E+02
      0.991 -0.5944E+00  0.1612E+02
      1.063 -0.9209E+00  0.1605E+02
      1.135 -0.4908E+00  0.1602E+02
      1.207 -0.1656E+00  0.1600E+02
      1.279 -0.3939E-01  0.1600E+02
      1.351 -0.6869E-02  0.1600E+02
      1.423 -0.8949E-03  0.1600E+02
      1.495 -0.8804E-04  0.1600E+02
      1.567 -0.6583E-05  0.1600E+02
      1.639 -0.3757E-06  0.1600E+02
      1.711 -0.1641E-07  0.1600E+02
      1.783 -0.5499E-09  0.1600E+02
      1.855 -0.1415E-10  0.1600E+02
      1.927 -0.2808E-12  0.1600E+02
      1.999 -0.4628E-14  0.1600E+02
      2.071  0.0000E+00  0.1600E+02
      2.143  0.0000E+00  0.1600E+02
      2.215  0.0000E+00  0.1600E+02
      2.287  0.0000E+00  0.1600E+02
      2.359  0.0000E+00  0.1600E+02
      2.431  0.0000E+00  0.1600E+02
      2.503  0.0000E+00  0.1600E+02
      2.575  0.0000E+00  0.1600E+02
      2.647  0.0000E+00  0.1600E+02
      2.718  0.0000E+00  0.1600E+02
      2.71579541    -18.87139225  301     -8.83702684      1.00000000
    -18.871  0.0000E+00  0.0000E+00
    -18.799  0.0000E+00  0.0000E+00
    -18.727  0.0000E+00  0.0000E+00
    -18.656  0.0000E+00  0.0000E+00
    -18.584  0.0000E+00  0.0000E+00
    -18.512 -0.3962E-27 -0.2851E-28
    -18.440 -0.1213E-24 -0.8753E-26
    -18.368 -0.2865E-22 -0.2070E-23
    -18.296 -0.5212E-20 -0.3771E-21
    -18.224 -0.7298E-18 -0.5289E-19
    -18.152 -0.7861E-16 -0.5709E-17
    -18.080 -0.6511E-14 -0.4742E-15
    -18.008 -0.4021E-12 -0.2941E-13
    -17.936 -0.1956E-10 -0.1437E-11
    -17.864 -0.7295E-09 -0.5393E-10
    -17.792 -0.2083E-07 -0.1553E-08
    -17.720 -0.4542E-06 -0.3423E-07
    -17.648 -0.7543E-05 -0.5770E-06
    -17.576 -0.9505E-04 -0.7416E-05
    -17.504 -0.9036E-03 -0.7244E-04
    -17.432 -0.6424E-02 -0.5347E-03
    -17.360 -0.3365E-01 -0.2956E-02
    -17.288 -0.1263E+00 -0.1204E-01
    -17.216 -0.3182E+00 -0.3494E-01
    -17.144 -0.4306E+00 -0.6593E-01
    -17.072  0.2024E+00 -0.5137E-01
    -17.001  0.2397E+01  0.1211E+00
    -16.929  0.5785E+01  0.5374E+00
    -16.857  0.8163E+01  0.1125E+01
    -16.785  0.7482E+01  0.1663E+01
    -16.713  0.4359E+01  0.1977E+01
    -16.641  0.1285E+01  0.2069E+01
    -16.569 -0.2092E+00  0.2054E+01
    -16.497 -0.4245E+00  0.2024E+01
    -16.425 -0.2301E+00  0.2007E+01
    -16.353 -0.7657E-01  0.2002E+01
    -16.281 -0.1771E-01  0.2000E+01
    -16.209 -0.2974E-02  0.2000E+01
    -16.137 -0.3708E-03  0.2000E+01
    -16.065 -0.3471E-04  0.2000E+01
    -15.993 -0.2458E-05  0.2000E+01
    -15.921 -0.1323E-06  0.2000E+01
    -15.849 -0.5429E-08  0.2000E+01
    -15.777 -0.1703E-09  0.2000E+01
    -15.705 -0.4090E-11  0.2000E+01
    -15.633 -0.8023E-13  0.2000E+01
    -15.561  0.0000E+00  0.2000E+01
    -15.489  0.0000E+00  0.2000E+01
    -15.417  0.0000E+00  0.2000E+01
    -15.345  0.0000E+00  0.2000E+01
    -15.274  0.0000E+00  0.2000E+01
    -15.202  0.0000E+00  0.2000E+01
    -15.130  0.0000E+00  0.2000E+01
    -15.058  0.0000E+00  0.2000E+01
    -14.986  0.0000E+00  0.2000E+01
    -14.914  0.0000E+00  0.2000E+01
    -14.842  0.0000E+00  0.2000E+01
    -14.770  0.0000E+00  0.2000E+01
    -14.698  0.0000E+00  0.2000E+01
    -14.626  0.0000E+00  0.2000E+01
    -14.554  0.0000E+00  0.2000E+01
    -14.482  0.0000E+00  0.2000E+01
    -14.410  0.0000E+00  0.2000E+01
    -14.338  0.0000E+00  0.2000E+01
    -14.266  0.0000E+00  0.2000E+01
    -14.194  0.0000E+00  0.2000E+01
    -14.122  0.0000E+00  0.2000E+01
    -14.050  0.0000E+00  0.2000E+01
    -13.978  0.0000E+00  0.2000E+01
    -13.906  0.0000E+00  0.2000E+01
    -13.834  0.0000E+00  0.2000E+01
    -13.762  0.0000E+00  0.2000E+01
    -13.690  0.0000E+00  0.2000E+01
    -13.619  0.0000E+00  0.2000E+01
    -13.547  0.0000E+00  0.2000E+01
    -13.475  0.0000E+00  0.2000E+01
    -13.403  0.0000E+00  0.2000E+01
    -13.331  0.0000E+00  0.2000E+01
    -13.259  0.0000E+00  0.2000E+01
    -13.187  0.0000E+00  0.2000E+01
    -13.115  0.0000E+00  0.2000E+01
    -13.043  0.0000E+00  0.2000E+01
    -12.971  0.0000E+00  0.2000E+01
    -12.899  0.0000E+00  0.2000E+01
    -12.827  0.0000E+00  0.2000E+01
    -12.755  0.0000E+00  0.2000E+01
    -12.683  0.0000E+00  0.2000E+01
    -12.611  0.0000E+00  0.2000E+01
    -12.539  0.0000E+00  0.2000E+01
    -12.467  0.0000E+00  0.2000E+01
    -12.395  0.0000E+00  0.2000E+01
    -12.323  0.0000E+00  0.2000E+01
    -12.251  0.0000E+00  0.2000E+01
    -12.179  0.0000E+00  0.2000E+01
    -12.107  0.0000E+00  0.2000E+01
    -12.035  0.0000E+00  0.2000E+01
    -11.963  0.0000E+00  0.2000E+01
    -11.892  0.0000E+00  0.2000E+01
    -11.820  0.0000E+00  0.2000E+01
    -11.748  0.0000E+00  0.2000E+01
    -11.676  0.0000E+00  0.2000E+01
    -11.604  0.0000E+00  0.2000E+01
    -11.532  0.0000E+00  0.2000E+01
    -11.460  0.0000E+00  0.2000E+01
    -11.388  0.0000E+00  0.2000E+01
    -11.316  0.0000E+00  0.2000E+01
    -11.244  0.0000E+00  0.2000E+01
    -11.172  0.0000E+00  0.2000E+01
    -11.100  0.0000E+00  0.2000E+01
    -11.028 -0.4242E-26  0.2000E+01
    -10.956 -0.1170E-23  0.2000E+01
    -10.884 -0.2493E-21  0.2000E+01
    -10.812 -0.4091E-19  0.2000E+01
    -10.740 -0.5172E-17  0.2000E+01
    -10.668 -0.5033E-15  0.2000E+01
    -10.596 -0.3616E-13  0.2000E+01
    -10.524 -0.2104E-11  0.2000E+01
    -10.452 -0.9279E-10  0.2000E+01
    -10.380 -0.3142E-08  0.2000E+01
    -10.308 -0.8160E-07  0.2000E+01
    -10.237 -0.1622E-05  0.2000E+01
    -10.165 -0.2462E-04  0.2000E+01
    -10.093 -0.2844E-03  0.2000E+01
    -10.021 -0.2486E-02  0.2000E+01
     -9.949 -0.1631E-01  0.1999E+01
     -9.877 -0.7907E-01  0.1993E+01
     -9.805 -0.2750E+00  0.1973E+01
     -9.733 -0.6377E+00  0.1927E+01
     -9.661 -0.7462E+00  0.1874E+01
     -9.589  0.7016E+00  0.1924E+01
     -9.517  0.5088E+01  0.2290E+01
     -9.445  0.1145E+02  0.3114E+01
     -9.373  0.1562E+02  0.4238E+01
     -9.301  0.1406E+02  0.5250E+01
     -9.229  0.8470E+01  0.5859E+01
     -9.157  0.4237E+01  0.6164E+01
     -9.085  0.4412E+01  0.6481E+01
     -9.013  0.6874E+01  0.6976E+01
     -8.941  0.7600E+01  0.7523E+01
     -8.869  0.5329E+01  0.7906E+01
     -8.797  0.2101E+01  0.8058E+01
     -8.725  0.8729E-01  0.8064E+01
     -8.653 -0.4382E+00  0.8032E+01
     -8.581 -0.2996E+00  0.8011E+01
     -8.510 -0.1143E+00  0.8003E+01
     -8.438 -0.2954E-01  0.8000E+01
     -8.366 -0.5489E-02  0.8000E+01
     -8.294 -0.7527E-03  0.8000E+01
     -8.222 -0.7726E-04  0.8000E+01
     -8.150 -0.5986E-05  0.8000E+01
     -8.078 -0.3520E-06  0.8000E+01
     -8.006 -0.1577E-07  0.8000E+01
     -7.934 -0.5398E-09  0.8000E+01
     -7.862 -0.1414E-10  0.8000E+01
     -7.790 -0.2839E-12  0.8000E+01
     -7.718 -0.6172E-14  0.8000E+01
     -7.646  0.0000E+00  0.8000E+01
     -7.574  0.0000E+00  0.8000E+01
     -7.502  0.0000E+00  0.8000E+01
     -7.430  0.0000E+00  0.8000E+01
     -7.358  0.0000E+00  0.8000E+01
     -7.286  0.0000E+00  0.8000E+01
     -7.214  0.0000E+00  0.8000E+01
     -7.142  0.0000E+00  0.8000E+01
     -7.070  0.0000E+00  0.8000E+01
     -6.998  0.0000E+00  0.8000E+01
     -6.926  0.0000E+00  0.8000E+01
     -6.855  0.0000E+00  0.8000E+01
     -6.783  0.0000E+00  0.8000E+01
     -6.711  0.0000E+00  0.8000E+01
     -6.639  0.0000E+00  0.8000E+01
     -6.567  0.0000E+00  0.8000E+01
     -6.495  0.0000E+00  0.8000E+01
     -6.423  0.0000E+00  0.8000E+01
     -6.351  0.0000E+00  0.8000E+01
     -6.279  0.0000E+00  0.8000E+01
     -6.207  0.0000E+00  0.8000E+01
     -6.135  0.0000E+00  0.8000E+01
     -6.063  0.0000E+00  0.8000E+01
     -5.991  0.0000E+00  0.8000E+01
     -5.919  0.0000E+00  0.8000E+01
     -5.847  0.0000E+00  0.8000E+01
     -5.775  0.0000E+00  0.8000E+01
     -5.703  0.0000E+00  0.8000E+01
     -5.631  0.0000E+00  0.8000E+01
     -5.559  0.0000E+00  0.8000E+01
     -5.487  0.0000E+00  0.8000E+01
     -5.415  0.0000E+00  0.8000E+01
     -5.343  0.0000E+00  0.8000E+01
     -5.271  0.0000E+00  0.8000E+01
     -5.200  0.0000E+00  0.8000E+01
     -5.128  0.0000E+00  0.8000E+01
     -5.056  0.0000E+00  0.8000E+01
     -4.984  0.0000E+00  0.8000E+01
     -4.912  0.0000E+00  0.8000E+01
     -4.840  0.0000E+00  0.8000E+01
     -4.768  0.0000E+00  0.8000E+01
     -4.696  0.0000E+00  0.8000E+01
     -4.624  0.0000E+00  0.8000E+01
     -4.552  0.0000E+00  0.8000E+01
     -4.480  0.0000E+00  0.8000E+01
     -4.408  0.0000E+00  0.8000E+01
     -4.336  0.0000E+00  0.8000E+01
     -4.264  0.0000E+00  0.8000E+01
     -4.192  0.0000E+00  0.8000E+01
     -4.120  0.0000E+00  0.8000E+01
     -4.048  0.0000E+00  0.8000E+01
     -3.976  0.0000E+00  0.8000E+01
     -3.904  0.0000E+00  0.8000E+01
     -3.832  0.0000E+00  0.8000E+01
     -3.760  0.0000E+00  0.8000E+01
     -3.688  0.0000E+00  0.8000E+01
     -3.616  0.0000E+00  0.8000E+01
     -3.544  0.0000E+00  0.8000E+01
     -3.473  0.0000E+00  0.8000E+01
     -3.401  0.0000E+00  0.8000E+01
     -3.329  0.0000E+00  0.8000E+01
     -3.257  0.0000E+00  0.8000E+01
     -3.185  0.0000E+00  0.8000E+01
     -3.113  0.0000E+00  0.8000E+01