    5    5    1    1
  0.1981261E+03  0.9929811E-09  0.9822981E-09  0.1016133E-08  0.2000000E-14
   50.000000000000000     
  CAR 
 unknown system                          
      8      4      8

  0.2500000E+00  0.2500000E+00  0.2500000E+00  0.2500000E+00
    1      -16.830628   1.000000
    2       -9.448745   1.000004
    3       -9.273114   1.000672
    4       -8.917289   0.999389
    5       -0.328294   0.000000
    6        0.577871   0.000000
    7        0.676423   0.000000
    8        0.705297   0.000000

 -0.2500000E+00  0.2500000E+00  0.2500000E+00  0.2500000E+00
    1      -16.830533   1.000000
    2       -9.449235   1.000004
    3       -9.272961   1.000674
    4       -8.917199   0.999289
    5       -0.328437   0.000000
    6        0.572876   0.000000
    7        0.672339   0.000000
    8        0.707399   0.000000

  0.2500000E+00 -0.2500000E+00  0.2500000E+00  0.2500000E+00
    1      -16.830652   1.000000
    2       -9.449025   1.000004
    3       -9.273099   1.000672
    4       -8.917241   0.999336
    5       -0.326421   0.000000
    6        0.560401   0.000000
    7        0.682432   0.000000
    8        0.699183   0.000000

 -0.2500000E+00 -0.2500000E+00  0.2500000E+00  0.2500000E+00
    1      -16.830546   1.000000
    2       -9.449095   1.000004
    3       -9.273128   1.000672
    4       -8.917190   0.999280
    5       -0.320747   0.000000
    6        0.557323   0.000000
    7        0.659514   0.000000
    8        0.689786   0.000000
