       N       E                     dE             d eps       ncg     rms          rms(c)
DAV:   1     0.145621451332E+02    0.14562E+02   -0.19672E+03    96   0.411E+02
DAV:   2    -0.228147919868E+02   -0.37377E+02   -0.37377E+02    64   0.114E+02
DAV:   3    -0.273692256062E+02   -0.45544E+01   -0.45659E+01    64   0.464E+01
DAV:   4    -0.275551721408E+02   -0.18595E+00   -0.18591E+00   128   0.104E+01
DAV:   5    -0.275552312177E+02   -0.59077E-04   -0.59077E-04    96   0.206E-01    0.876E+00
RMM:   6    -0.246316168877E+02    0.29236E+01   -0.54350E+00    64   0.143E+01    0.426E+00
RMM:   7    -0.241354771954E+02    0.49614E+00   -0.12313E+00    64   0.642E+00    0.225E+00
RMM:   8    -0.239894359508E+02    0.14604E+00   -0.14981E-01    64   0.275E+00    0.246E-01
RMM:   9    -0.239830951084E+02    0.63408E-02   -0.10956E-02    64   0.756E-01    0.234E-01
RMM:  10    -0.239821625903E+02    0.93252E-03   -0.67010E-03    64   0.435E-01    0.262E-01
RMM:  11    -0.239760575690E+02    0.61050E-02   -0.58730E-03    64   0.458E-01    0.171E-01
RMM:  12    -0.239781772329E+02   -0.21197E-02   -0.31980E-03    64   0.359E-01    0.681E-02
RMM:  13    -0.239861496240E+02   -0.79724E-02   -0.19649E-03    64   0.262E-01    0.815E-02
RMM:  14    -0.239871883536E+02   -0.10387E-02   -0.49954E-04    64   0.127E-01    0.262E-02
RMM:  15    -0.239895834900E+02   -0.23951E-02   -0.64099E-04    64   0.158E-01    0.303E-02
RMM:  16    -0.239898637729E+02   -0.28028E-03   -0.45025E-05    64   0.334E-02    0.106E-02
RMM:  17    -0.239900731939E+02   -0.20942E-03   -0.49158E-05    64   0.429E-02    0.585E-03
RMM:  18    -0.239901173840E+02   -0.44190E-04   -0.63305E-06    64   0.154E-02    0.902E-04
RMM:  19    -0.239901314925E+02   -0.14109E-04   -0.62892E-07    48   0.461E-03    0.986E-04
RMM:  20    -0.239901344988E+02   -0.30063E-05   -0.15065E-07    44   0.263E-03    0.279E-04
RMM:  21    -0.239901358391E+02   -0.13403E-05   -0.97266E-08    48   0.218E-03    0.375E-04
RMM:  22    -0.239901361590E+02   -0.31990E-06    0.00000E+00    32   0.963E-04
    1 T=    80. E= -.23948825E+02 F= -.23990136E+02 E0= -.24002293E+02  EK= 0.41283E-01 SP= 0.00E+00 SK= 0.29E-04
       N       E                     dE             d eps       ncg     rms          rms(c)
DAV:   1    -0.240054890211E+02   -0.15353E-01   -0.23291E+00    64   0.148E+01    0.662E-01
RMM:   2    -0.240169474907E+02   -0.11458E-01   -0.10749E-01    64   0.268E+00    0.864E-01
RMM:   3    -0.240048122238E+02    0.12135E-01   -0.21108E-02    64   0.102E+00    0.431E-01
RMM:   4    -0.240045381694E+02    0.27405E-03   -0.23246E-02    64   0.103E+00    0.168E-01
RMM:   5    -0.240040529981E+02    0.48517E-03   -0.11343E-03    64   0.239E-01    0.936E-02
RMM:   6    -0.240042118444E+02   -0.15885E-03   -0.13740E-03    64   0.220E-01    0.541E-02
RMM:   7    -0.240041875336E+02    0.24311E-04   -0.10658E-04    64   0.669E-02    0.370E-02
RMM:   8    -0.240042710967E+02   -0.83563E-04   -0.24885E-04    64   0.996E-02    0.996E-03
RMM:   9    -0.240042983030E+02   -0.27206E-04   -0.72734E-05    64   0.524E-02    0.116E-02
RMM:  10    -0.240043136562E+02   -0.15353E-04   -0.93570E-06    64   0.203E-02    0.442E-03
RMM:  11    -0.240043277247E+02   -0.14069E-04   -0.13220E-05    64   0.216E-02    0.409E-03
RMM:  12    -0.240043389476E+02   -0.11223E-04   -0.50218E-06    63   0.128E-02    0.141E-03
RMM:  13    -0.240043419510E+02   -0.30035E-05   -0.33434E-07    48   0.407E-03    0.482E-04
RMM:  14    -0.240043445398E+02   -0.25888E-05   -0.21728E-07    44   0.254E-03    0.550E-04
RMM:  15    -0.240043451177E+02   -0.57784E-06    0.00000E+00    32   0.151E-03
    2 T=    86. E= -.23959242E+02 F= -.24004345E+02 E0= -.24009244E+02  EK= 0.44430E-01 SP= 0.38E-03 SK= 0.29E-03
       N       E                     dE             d eps       ncg     rms          rms(c)
DAV:   1    -0.239766871796E+02    0.27657E-01   -0.10324E+00    64   0.103E+01    0.305E-01
RMM:   2    -0.239772909645E+02   -0.60378E-03   -0.19321E-02    64   0.120E+00    0.295E-01
RMM:   3    -0.239765323730E+02    0.75859E-03   -0.42647E-03    64   0.468E-01    0.101E-01
RMM:   4    -0.239768688289E+02   -0.33646E-03   -0.11001E-03    64   0.213E-01    0.828E-02
RMM:   5    -0.239770294987E+02   -0.16067E-03   -0.67214E-04    64   0.167E-01    0.514E-02
RMM:   6    -0.239770320277E+02   -0.25290E-05   -0.49858E-04    64   0.133E-01    0.196E-02
RMM:   7    -0.239770459904E+02   -0.13963E-04   -0.27329E-05    64   0.399E-02    0.161E-02
RMM:   8    -0.239770733383E+02   -0.27348E-04   -0.65726E-05    64   0.454E-02    0.415E-03
RMM:   9    -0.239770786945E+02   -0.53562E-05   -0.14416E-06    48   0.990E-03    0.152E-03
RMM:  10    -0.239770861804E+02   -0.74860E-05   -0.55365E-06    60   0.132E-02    0.330E-03
RMM:  11    -0.239770878899E+02   -0.17095E-05   -0.32154E-06    60   0.105E-02    0.113E-03
RMM:  12    -0.239770892530E+02   -0.13631E-05   -0.14477E-07    48   0.324E-03    0.881E-04
RMM:  13    -0.239770902284E+02   -0.97540E-06   -0.24830E-07    48   0.305E-03
    3 T=    52. E= -.23948374E+02 F= -.23977090E+02 E0= -.23981178E+02  EK= 0.26931E-01 SP= 0.12E-02 SK= 0.57E-03
       N       E                     dE             d eps       ncg     rms          rms(c)
DAV:   1    -0.240152512974E+02   -0.38162E-01   -0.10673E+00    64   0.996E+00    0.535E-01
RMM:   2    -0.240749820052E+02   -0.59731E-01   -0.46081E-01    64   0.393E+00    0.140E+00
RMM:   3    -0.240118148332E+02    0.63167E-01   -0.16805E-01    64   0.232E+00    0.330E-01
RMM:   4    -0.240116410048E+02    0.17383E-03   -0.21005E-02    64   0.945E-01    0.561E-02
RMM:   5    -0.240122254798E+02   -0.58448E-03   -0.62019E-04    64   0.207E-01    0.682E-02
RMM:   6    -0.240122611866E+02   -0.35707E-04   -0.97347E-04    64   0.197E-01    0.119E-02
RMM:   7    -0.240122981492E+02   -0.36963E-04   -0.24705E-05    64   0.369E-02    0.828E-03
RMM:   8    -0.240123104933E+02   -0.12344E-04   -0.10323E-05    64   0.194E-02    0.138E-03
RMM:   9    -0.240123262839E+02   -0.15791E-04   -0.87599E-07    48   0.608E-03    0.115E-03
RMM:  10    -0.240123314001E+02   -0.51162E-05   -0.86616E-07    48   0.576E-03    0.185E-03
RMM:  11    -0.240123330141E+02   -0.16140E-05   -0.47706E-07    48   0.430E-03    0.295E-04
RMM:  12    -0.240123332663E+02   -0.25220E-06   -0.14892E-07    48   0.310E-03
    4 T=   118. E= -.23948073E+02 F= -.24012333E+02 E0= -.24016369E+02  EK= 0.60844E-01 SP= 0.21E-02 SK= 0.13E-02
       N       E                     dE             d eps       ncg     rms          rms(c)
DAV:   1    -0.239428781302E+02    0.69455E-01   -0.43844E-01    64   0.682E+00    0.255E-01
RMM:   2    -0.239529974084E+02   -0.10119E-01   -0.57210E-02    64   0.167E+00    0.640E-01
RMM:   3    -0.239443264527E+02    0.86710E-02   -0.74630E-02    64   0.165E+00    0.183E-01
RMM:   4    -0.239437445431E+02    0.58191E-03   -0.90529E-03    64   0.565E-01    0.826E-02
RMM:   5    -0.239437239577E+02    0.20585E-04   -0.79499E-04    64   0.179E-01    0.249E-02
RMM:   6    -0.239438338726E+02   -0.10991E-03   -0.41351E-04    64   0.122E-01    0.160E-02
RMM:   7    -0.239438878986E+02   -0.54026E-04   -0.90084E-05    64   0.565E-02    0.978E-03
RMM:   8    -0.239439035072E+02   -0.15609E-04   -0.35224E-06    60   0.143E-02    0.652E-03
RMM:   9    -0.239439210648E+02   -0.17558E-04   -0.16569E-05    64   0.233E-02    0.295E-03
RMM:  10    -0.239439236233E+02   -0.25585E-05   -0.67862E-07    48   0.553E-03    0.123E-03
RMM:  11    -0.239439266441E+02   -0.30208E-05   -0.74193E-07    48   0.565E-03    0.340E-04
RMM:  12    -0.239439272675E+02   -0.62345E-06   -0.13760E-07    44   0.317E-03
    5 T=    63. E= -.23905057E+02 F= -.23943927E+02 E0= -.23947882E+02  EK= 0.32498E-01 SP= 0.38E-02 SK= 0.26E-02
       N       E                     dE             d eps       ncg     rms          rms(c)
DAV:   1    -0.240208255495E+02   -0.76899E-01   -0.15083E+00    64   0.124E+01    0.593E-01
RMM:   2    -0.241054239743E+02   -0.84598E-01   -0.51216E-01    64   0.443E+00    0.171E+00
RMM:   3    -0.240467845521E+02    0.58639E-01   -0.59513E-02    64   0.150E+00    0.112E+00
RMM:   4    -0.240168173031E+02    0.29967E-01   -0.16314E-01    64   0.242E+00    0.336E-01
RMM:   5    -0.240260486354E+02   -0.92313E-02   -0.58905E-02    64   0.146E+00    0.573E-01
RMM:   6    -0.240196387293E+02    0.64099E-02   -0.10564E-02    64   0.629E-01    0.240E-01
RMM:   7    -0.240220951867E+02   -0.24565E-02   -0.25127E-02    64   0.944E-01    0.367E-01
RMM:   8    -0.240203117730E+02    0.17834E-02   -0.14334E-03    64   0.259E-01    0.138E-01
RMM:   9    -0.240205415064E+02   -0.22973E-03   -0.91821E-03    64   0.555E-01    0.114E-01
RMM:  10    -0.240205064311E+02    0.35075E-04   -0.30752E-04    64   0.123E-01    0.502E-02
RMM:  11    -0.240206200868E+02   -0.11366E-03   -0.51435E-04    64   0.136E-01    0.712E-02
RMM:  12    -0.240205966520E+02    0.23435E-04   -0.59457E-05    64   0.502E-02    0.179E-02
RMM:  13    -0.240206368325E+02   -0.40181E-04   -0.38123E-05    64   0.364E-02    0.758E-03
RMM:  14    -0.240206567623E+02   -0.19930E-04   -0.45137E-06    60   0.145E-02    0.532E-03
RMM:  15    -0.240206600372E+02   -0.32749E-05   -0.10313E-06    48   0.679E-03    0.443E-03
RMM:  16    -0.240206639450E+02   -0.39077E-05   -0.75888E-07    48   0.569E-03    0.233E-03
RMM:  17    -0.240206678690E+02   -0.39240E-05   -0.68374E-07    48   0.549E-03    0.173E-03
RMM:  18    -0.240206690986E+02   -0.12296E-05   -0.46396E-07    48   0.488E-03    0.920E-04
RMM:  19    -0.240206698299E+02   -0.73134E-06   -0.15255E-07    48   0.321E-03
    6 T=   139. E= -.23938428E+02 F= -.24020670E+02 E0= -.24033082E+02  EK= 0.71729E-01 SP= 0.57E-02 SK= 0.48E-02
       N       E                     dE             d eps       ncg     rms          rms(c)
DAV:   1    -0.239753696623E+02    0.45299E-01   -0.12051E+00    64   0.981E+00    0.813E-01
RMM:   2    -0.239861452734E+02   -0.10776E-01   -0.13763E-01    64   0.237E+00    0.906E-01
RMM:   3    -0.239583444217E+02    0.27801E-01   -0.84224E-02    64   0.169E+00    0.378E-01
RMM:   4    -0.239583666643E+02   -0.22243E-04   -0.74109E-03    64   0.583E-01    0.355E-01
RMM:   5    -0.239589129816E+02   -0.54632E-03   -0.79690E-04    64   0.203E-01    0.334E-01
RMM:   6    -0.239569398974E+02    0.19731E-02   -0.16961E-03    64   0.249E-01    0.191E-01
RMM:   7    -0.239566521360E+02    0.28776E-03   -0.82855E-04    64   0.189E-01    0.923E-02
RMM:   8    -0.239566868320E+02   -0.34696E-04   -0.19112E-04    64   0.906E-02    0.635E-02
RMM:   9    -0.239567126960E+02   -0.25864E-04   -0.92254E-05    64   0.636E-02    0.198E-02
RMM:  10    -0.239567908376E+02   -0.78142E-04   -0.47594E-05    64   0.431E-02    0.155E-02
RMM:  11    -0.239568215859E+02   -0.30748E-04   -0.13830E-05    64   0.252E-02    0.664E-03
RMM:  12    -0.239568414025E+02   -0.19817E-04   -0.81578E-06    64   0.169E-02    0.573E-03
RMM:  13    -0.239568470271E+02   -0.56246E-05   -0.32212E-06    60   0.105E-02    0.197E-03
RMM:  14    -0.239568487218E+02   -0.16948E-05   -0.19797E-07    48   0.361E-03    0.139E-03
RMM:  15    -0.239568494736E+02   -0.75172E-06   -0.26952E-07    48   0.318E-03
    7 T=    91. E= -.23892310E+02 F= -.23956849E+02 E0= -.23965249E+02  EK= 0.47300E-01 SP= 0.87E-02 SK= 0.85E-02
       N       E                     dE             d eps       ncg     rms          rms(c)
DAV:   1    -0.240408591958E+02   -0.84010E-01   -0.19132E+00    64   0.140E+01    0.128E+00
RMM:   2    -0.240114736090E+02    0.29386E-01   -0.41726E-01    64   0.435E+00    0.798E-01
RMM:   3    -0.239964572998E+02    0.15016E-01   -0.83812E-02    64   0.181E+00    0.417E-01
RMM:   4    -0.239967955228E+02   -0.33822E-03   -0.31911E-02    64   0.116E+00    0.321E-01
RMM:   5    -0.239957472221E+02    0.10483E-02   -0.38425E-03    64   0.412E-01    0.178E-01
RMM:   6    -0.239955060477E+02    0.24117E-03   -0.66545E-03    64   0.481E-01    0.852E-02
RMM:   7    -0.239953517340E+02    0.15431E-03   -0.19514E-04    64   0.108E-01    0.462E-02
RMM:   8    -0.239954626308E+02   -0.11090E-03   -0.41002E-04    64   0.119E-01    0.207E-02
RMM:   9    -0.239955725560E+02   -0.10993E-03   -0.10777E-04    64   0.615E-02    0.107E-02
RMM:  10    -0.239956080159E+02   -0.35460E-04   -0.45859E-06    60   0.165E-02    0.810E-03
RMM:  11    -0.239956417500E+02   -0.33734E-04   -0.14856E-05    64   0.218E-02    0.308E-03
RMM:  12    -0.239956501755E+02   -0.84255E-05   -0.82323E-07    48   0.669E-03    0.264E-03
RMM:  13    -0.239956534468E+02   -0.32713E-05   -0.14680E-06    48   0.751E-03    0.993E-04
RMM:  14    -0.239956552505E+02   -0.18037E-05   -0.21173E-07    48   0.377E-03    0.775E-04
RMM:  15    -0.239956558067E+02   -0.55618E-06   -0.15988E-07    48   0.243E-03
    8 T=   154. E= -.23889565E+02 F= -.23995656E+02 E0= -.24005214E+02  EK= 0.79583E-01 SP= 0.12E-01 SK= 0.14E-01
       N       E                     dE             d eps       ncg     rms          rms(c)
DAV:   1    -0.239843749146E+02    0.11280E-01   -0.15175E+00    64   0.124E+01    0.748E-01
RMM:   2    -0.240205551042E+02   -0.36180E-01   -0.13637E-01    64   0.238E+00    0.120E+00
RMM:   3    -0.239941011109E+02    0.26454E-01   -0.91193E-02    64   0.180E+00    0.671E-01
RMM:   4    -0.239906343881E+02    0.34667E-02   -0.23015E-02    64   0.908E-01    0.575E-01
RMM:   5    -0.239838176899E+02    0.68167E-02   -0.24224E-02    64   0.926E-01    0.435E-01
RMM:   6    -0.239815876871E+02    0.22300E-02   -0.80232E-03    64   0.567E-01    0.269E-01
RMM:   7    -0.239804406520E+02    0.11470E-02   -0.15980E-03    64   0.258E-01    0.183E-01
RMM:   8    -0.239803596553E+02    0.80997E-04   -0.64008E-05    64   0.632E-02    0.177E-01
RMM:   9    -0.239802416822E+02    0.11797E-03   -0.83924E-04    64   0.187E-01    0.160E-01
RMM:  10    -0.239806876030E+02   -0.44592E-03   -0.92738E-04    64   0.193E-01    0.962E-02
RMM:  11    -0.239808383490E+02   -0.15075E-03   -0.31955E-04    64   0.118E-01    0.542E-02
RMM:  12    -0.239808775845E+02   -0.39235E-04   -0.38535E-05    64   0.415E-02    0.509E-02
RMM:  13    -0.239809685579E+02   -0.90973E-04   -0.13380E-04    64   0.685E-02    0.474E-02
RMM:  14    -0.239810373138E+02   -0.68756E-04   -0.11323E-04    64   0.679E-02    0.242E-02
RMM:  15    -0.239810693752E+02   -0.32061E-04   -0.10075E-04    64   0.628E-02    0.213E-02
RMM:  16    -0.239810641418E+02    0.52335E-05   -0.10946E-04    64   0.618E-02    0.164E-02
RMM:  17    -0.239810798244E+02   -0.15683E-04   -0.55734E-05    64   0.448E-02    0.118E-02
RMM:  18    -0.239810839082E+02   -0.40838E-05   -0.19214E-05    64   0.269E-02    0.579E-03
RMM:  19    -0.239810868867E+02   -0.29786E-05   -0.81533E-06    64   0.175E-02    0.543E-03
RMM:  20    -0.239810886877E+02   -0.18010E-05   -0.74997E-06    64   0.165E-02    0.455E-03
RMM:  21    -0.239810880335E+02    0.65423E-06   -0.47625E-06    60   0.133E-02
    9 T=   158. E= -.23857192E+02 F= -.23981088E+02 E0= -.23991564E+02  EK= 0.81815E-01 SP= 0.17E-01 SK= 0.25E-01
       N       E                     dE             d eps       ncg     rms          rms(c)
DAV:   1    -0.239773402274E+02    0.37485E-02   -0.59461E-01    64   0.611E+00    0.809E-01
RMM:   2    -0.240055737185E+02   -0.28233E-01   -0.13871E-01    64   0.245E+00    0.108E+00
RMM:   3    -0.239816457375E+02    0.23928E-01   -0.47440E-02    64   0.141E+00    0.824E-01
RMM:   4    -0.239635169343E+02    0.18129E-01   -0.91913E-02    64   0.176E+00    0.358E-01
RMM:   5    -0.239641208995E+02   -0.60397E-03   -0.21398E-02    64   0.929E-01    0.262E-01
RMM:   6    -0.239633622897E+02    0.75861E-03   -0.20283E-03    64   0.294E-01    0.103E-01
RMM:   7    -0.239640117610E+02   -0.64947E-03   -0.43777E-03    64   0.386E-01    0.125E-01
RMM:   8    -0.239637257850E+02    0.28598E-03   -0.75028E-04    64   0.157E-01    0.439E-02
RMM:   9    -0.239637750141E+02   -0.49229E-04   -0.25957E-04    66   0.100E-01    0.158E-02
RMM:  10    -0.239638136717E+02   -0.38658E-04   -0.24855E-05    64   0.354E-02    0.126E-02
RMM:  11    -0.239638265566E+02   -0.12885E-04   -0.13169E-05    64   0.224E-02    0.663E-03
RMM:  12    -0.239638372756E+02   -0.10719E-04   -0.11824E-05    64   0.206E-02    0.692E-03
RMM:  13    -0.239638395585E+02   -0.22829E-05   -0.33702E-06    56   0.117E-02    0.129E-03
RMM:  14    -0.239638422363E+02   -0.26778E-05   -0.58962E-07    48   0.521E-03    0.224E-03
RMM:  15    -0.239638434616E+02   -0.12253E-05   -0.43840E-07    48   0.449E-03    0.100E-03
RMM:  16    -0.239638438986E+02   -0.43703E-06   -0.83998E-08    48   0.231E-03
   10 T=   112. E= -.23847304E+02 F= -.23963844E+02 E0= -.23971647E+02  EK= 0.57816E-01 SP= 0.23E-01 SK= 0.35E-01
