 vasp.5.4.4.18Apr17-6-g9f103f2a35 (build Jul 12 2018 13:43:46) complex           
 executed on             LinuxGNU date 2019.06.22  02:17:35
 running on    1 total cores
 distrk:  each k-point on    1 cores,    1 groups
 distr:  one band on NCORES_PER_BAND=   1 cores,    1 groups


--------------------------------------------------------------------------------------------------------


 INCAR:
 POTCAR:    PAW_PBE H 15Jun2001                   
 POTCAR:    PAW_PBE C 08Apr2002                   
 POTCAR:    PAW_PBE H 15Jun2001                   
   VRHFIN =H: ultrasoft test                                                    
   LEXCH  = PE                                                                  
   EATOM  =    12.4884 eV,    0.9179 Ry                                         
                                                                                
   TITEL  = PAW_PBE H 15Jun2001                                                 
   LULTRA =        F    use ultrasoft PP ?                                      
   IUNSCR =        0    unscreen: 0-lin 1-nonlin 2-no                           
   RPACOR =    0.000    partial core radius                                     
   POMASS =    1.000; ZVAL   =    1.000    mass and valenz                      
   RCORE  =    1.100    outmost cutoff radius                                   
   RWIGS  =    0.700; RWIGS  =    0.370    wigner-seitz radius (au A)           
   ENMAX  =  250.000; ENMIN  =  200.000 eV                                      
   RCLOC  =    0.701    cutoff for local pot                                    
   LCOR   =        T    correct aug charges                                     
   LPAW   =        T    paw PP                                                  
   EAUG   =  400.000                                                            
   RMAX   =    1.123    core radius for proj-oper                               
   RAUG   =    1.200    factor for augmentation sphere                          
   RDEP   =    1.112    radius for radial grids                                 
   RDEPT  =    0.926    core radius for aug-charge                              
                                                                                
   Atomic configuration                                                         
    2 entries                                                                   
     n  l   j            E        occ.                                          
     1  0  0.50        -6.4927   1.0000                                         
     2  1  0.50        -3.4015   0.0000                                         
   Description                                                                  
     l       E           TYP  RCUT    TYP  RCUT                                 
     0     -6.4927494     23  1.100                                             
     0      6.8029130     23  1.100                                             
     1     -4.0817478     23  1.100                                             
  local pseudopotential read in
  atomic valenz-charges read in
  non local Contribution for L=           0  read in
    real space projection operators read in
  non local Contribution for L=           0  read in
    real space projection operators read in
  non local Contribution for L=           1  read in
    real space projection operators read in
    PAW grid and wavefunctions read in

   number of l-projection  operators is LMAX  =           3
   number of lm-projection operators is LMMAX =           5

 POTCAR:    PAW_PBE C 08Apr2002                   
   VRHFIN =C: s2p2                                                              
   LEXCH  = PE                                                                  
   EATOM  =   147.1560 eV,   10.8157 Ry                                         
                                                                                
   TITEL  = PAW_PBE C 08Apr2002                                                 
   LULTRA =        F    use ultrasoft PP ?                                      
   IUNSCR =        1    unscreen: 0-lin 1-nonlin 2-no                           
   RPACOR =    1.200    partial core radius                                     
   POMASS =   12.011; ZVAL   =    4.000    mass and valenz                      
   RCORE  =    1.500    outmost cutoff radius                                   
   RWIGS  =    1.630; RWIGS  =    0.863    wigner-seitz radius (au A)           
   ENMAX  =  400.000; ENMIN  =  300.000 eV                                      
   ICORE  =        2    local potential                                         
   LCOR   =        T    correct aug charges                                     
   LPAW   =        T    paw PP                                                  
   EAUG   =  644.873                                                            
   DEXC   =    0.000                                                            
   RMAX   =    1.529    core radius for proj-oper                               
   RAUG   =    1.300    factor for augmentation sphere                          
   RDEP   =    1.501    radius for radial grids                                 
   RDEPT  =    1.300    core radius for aug-charge                              
                                                                                
   Atomic configuration                                                         
    4 entries                                                                   
     n  l   j            E        occ.                                          
     1  0  0.50      -273.3789   2.0000                                         
     2  0  0.50       -13.7508   2.0000                                         
     2  1  0.50        -5.2854   2.0000                                         
     3  2  1.50        -5.4423   0.0000                                         
   Description                                                                  
     l       E           TYP  RCUT    TYP  RCUT                                 
     0    -13.7508458     23  1.200                                             
     0     -8.2022199     23  1.200                                             
     1     -5.2854383     23  1.500                                             
     1     34.0145650     23  1.500                                             
     2     -5.4423304      7  1.500                                             
  local pseudopotential read in
  partial core-charges read in
  partial kinetic energy density read in
  atomic valenz-charges read in
  non local Contribution for L=           0  read in
    real space projection operators read in
  non local Contribution for L=           0  read in
    real space projection operators read in
  non local Contribution for L=           1  read in
    real space projection operators read in
  non local Contribution for L=           1  read in
    real space projection operators read in
    PAW grid and wavefunctions read in

   number of l-projection  operators is LMAX  =           4
   number of lm-projection operators is LMMAX =           8


 ----------------------------------------------------------------------------- 
|                                                                             |
|  ADVICE TO THIS USER RUNNING 'VASP/VAMP'   (HEAR YOUR MASTER'S VOICE ...):  |
|                                                                             |
|      You have a (more or less) 'small supercell' and for smaller cells      |
|      it is recommended  to use the reciprocal-space projection scheme!      |
|      The real space optimization is not  efficient for small cells and it   |
|      is also less accurate ...                                              |
|      Therefore set LREAL=.FALSE. in the  INCAR file                         |
|                                                                             |
 ----------------------------------------------------------------------------- 


 ----------------------------------------------------------------------------- 
|                                                                             |
|           W    W    AA    RRRRR   N    N  II  N    N   GGGG   !!!           |
|           W    W   A  A   R    R  NN   N  II  NN   N  G    G  !!!           |
|           W    W  A    A  R    R  N N  N  II  N N  N  G       !!!           |
|           W WW W  AAAAAA  RRRRR   N  N N  II  N  N N  G  GGG   !            |
|           WW  WW  A    A  R   R   N   NN  II  N   NN  G    G                |
|           W    W  A    A  R    R  N    N  II  N    N   GGGG   !!!           |
|                                                                             |
|     The real-space-projection scheme for the treatment of the nonlocal      |
|     pseudopotentials has been switched on -- but on file POTCAR I have      |
|     not found any entries signalling me that you have ever performed a      |
|     real-space optimization of all nonlocal projectors! BE WARNED that      |
|     a calculation using the real-space-projection scheme together with      |
|     nonlocal projectors which were not real-space-optimized (according      |
|     to the plane-wave-cutoff used in this calculation) might give more      |
|     or less inaccurate results                                              |
|     I hope you know what you are doing                                      |
|                                                                             |
 ----------------------------------------------------------------------------- 

  PAW_PBE H 15Jun2001                   :
 energy of atom  1       EATOM=  -12.4884
 kinetic energy error for atom=    0.0098 (will be added to EATOM!!)
  PAW_PBE C 08Apr2002                   :
 energy of atom  2       EATOM= -147.1560
 kinetic energy error for atom=    0.0288 (will be added to EATOM!!)


 POSCAR:  H  C                                   
  positions in cartesian coordinates
  No initial velocities read in
 exchange correlation table for  LEXCH =        8
   RHO(1)=    0.500       N(1)  =     2000
   RHO(2)=  100.500       N(2)  =     4000



--------------------------------------------------------------------------------------------------------


 ion  position               nearest neighbor table
   1  0.538  0.407  0.361-   5 1.11
   2  0.394  0.481  0.438-   5 1.10
   3  0.552  0.565  0.443-   5 1.08
   4  0.528  0.416  0.539-   5 1.09
   5  0.503  0.467  0.446-   3 1.08   4 1.09   2 1.10   1 1.11


IMPORTANT INFORMATION: All symmetrisations will be switched off!
NOSYMM: (Re-)initialisation of all symmetry stuff for point group C_1.




Automatic generation of k-mesh.
 generate k-points for:    2    2    2
Space group operators:
 irot       det(A)        alpha          n_x          n_y          n_z        tau_x        tau_y        tau_z
    1     1.000000     0.000001     1.000000     0.000000     0.000000     0.000000     0.000000     0.000000
 
 Subroutine IBZKPT returns following result:
 ===========================================
 
 Found      4 irreducible k-points:
 
 Following reciprocal coordinates:
            Coordinates               Weight
  0.250000  0.250000  0.250000      2.000000
 -0.250000  0.250000  0.250000      2.000000
  0.250000 -0.250000  0.250000      2.000000
 -0.250000 -0.250000  0.250000      2.000000
 
 Following cartesian coordinates:
            Coordinates               Weight
  0.025177  0.025813  0.023594      2.000000
 -0.025177  0.025094  0.024422      2.000000
  0.025177 -0.025094  0.024804      2.000000
 -0.025177 -0.025813  0.025632      2.000000
 


--------------------------------------------------------------------------------------------------------




 Dimension of arrays:
   k-points           NKPTS =      4   k-points in BZ     NKDIM =      4   number of bands    NBANDS=      8
   number of dos      NEDOS =    301   number of ions     NIONS =      5
   non local maximal  LDIM  =      4   non local SUM 2l+1 LMDIM =      8
   total plane-waves  NPLWV = 313600
   max r-space proj   IRMAX =    752   max aug-charges    IRDMAX=   3935
   dimension x,y,z NGX =    70 NGY =   64 NGZ =   70
   dimension x,y,z NGXF=   140 NGYF=  128 NGZF=  140
   support grid    NGXF=   140 NGYF=  128 NGZF=  140
   ions per type =               4   1
   NGX,Y,Z   is equivalent  to a cutoff of  11.72, 10.83, 11.45 a.u.
   NGXF,Y,Z  is equivalent  to a cutoff of  23.44, 21.66, 22.90 a.u.

 SYSTEM =  unknown system                          
 POSCAR =   H  C                                   

 Startparameter for this run:
   NWRITE =      2    write-flag & timer
   PREC   = a         normal or accurate (medium, high low for compatibility)
   ISTART =      0    job   : 0-new  1-cont  2-samecut
   ICHARG =      2    charge: 1-file 2-atom 10-const
   ISPIN  =      1    spin polarized calculation?
   LNONCOLLINEAR =      F non collinear calculations
   LSORBIT =      F    spin-orbit coupling
   INIWAV =      1    electr: 0-lowe 1-rand  2-diag
   LASPH  =      F    aspherical Exc in radial PAW
   METAGGA=      F    non-selfconsistent MetaGGA calc.

 Electronic Relaxation 1
   ENCUT  =  400.0 eV  29.40 Ry    5.42 a.u.  16.19 16.02 16.57*2*pi/ulx,y,z
   ENINI  =  400.0     initial cutoff
   ENAUG  =  644.9 eV  augmentation charge cutoff
   NELM   =     60;   NELMIN=  2; NELMDL= -5     # of ELM steps 
   EDIFF  = 0.1E-05   stopping-criterion for ELM
   LREAL  =      T    real-space projection
   NLSPLINE    = F    spline interpolate recip. space projectors
   LCOMPAT=      F    compatible to vasp.4.4
   GGA_COMPAT  = T    GGA compatible to vasp.4.4-vasp.4.6
   LMAXPAW     = -100 max onsite density
   LMAXMIX     =    2 max onsite mixed and CHGCAR
   VOSKOWN=      0    Vosko Wilk Nusair interpolation
   ROPT   =    0.00000   0.00000
 Ionic relaxation
   EDIFFG = 0.1E-04   stopping-criterion for IOM
   NSW    =     10    number of steps for IOM
   NBLOCK =      1;   KBLOCK =      1    inner block; outer block 
   IBRION =      0    ionic relax: 0-MD 1-quasi-New 2-CG
   NFREE  =      0    steps in history (QN), initial steepest desc. (CG)
   ISIF   =      2    stress and relaxation
   IWAVPR =     12    prediction:  0-non 1-charg 2-wave 3-comb
   ISYM   =      0    0-nonsym 1-usesym 2-fastsym
   LCORR  =      T    Harris-Foulkes like correction to forces

   POTIM  = 2.0000    time-step for ionic-motion
   TEIN   =   50.0    initial temperature
   TEBEG  =   50.0;   TEEND  =  50.0 temperature during run
   SMASS  =   0.00    Nose mass-parameter (am)
   estimated Nose-frequenzy (Omega)   =  0.79E+14 period in steps = 40.00 mass=   0.123E-29a.u.
   SCALEE = 1.0000    scale energy and forces
   NPACO  =    256;   APACO  = 16.0  distance and # of slots for P.C.
   PSTRESS=    0.0 pullay stress

  Mass of Ions in am
   POMASS =   1.00 12.01
  Ionic Valenz
   ZVAL   =   1.00  4.00
  Atomic Wigner-Seitz radii
   RWIGS  =  -1.00 -1.00
  virtual crystal weights 
   VCA    =   1.00  1.00
   NELECT =       8.0000    total number of electrons
   NUPDOWN=      -1.0000    fix difference up-down

 DOS related values:
   EMIN   =  10.00;   EMAX   =-10.00  energy-range for DOS
   EFERMI =   0.00
   ISMEAR =     1;   SIGMA  =   0.20  broadening in eV -4-tet -1-fermi 0-gaus

 Electronic relaxation 2 (details)
   IALGO  =     68    algorithm
   LDIAG  =      T    sub-space diagonalisation (order eigenvalues)
   LSUBROT=      F    optimize rotation matrix (better conditioning)
   TURBO    =      0    0=normal 1=particle mesh
   IRESTART =      0    0=no restart 2=restart with 2 vectors
   NREBOOT  =      0    no. of reboots
   NMIN     =      0    reboot dimension
   EREF     =   0.00    reference energy to select bands
   IMIX   =      4    mixing-type and parameters
     AMIX     =   0.40;   BMIX     =  1.00
     AMIX_MAG =   1.60;   BMIX_MAG =  1.00
     AMIN     =   0.10
     WC   =   100.;   INIMIX=   1;  MIXPRE=   1;  MAXMIX=  50

 Intra band minimization:
   WEIMIN = 0.0010     energy-eigenvalue tresh-hold
   EBREAK =  0.31E-07  absolut break condition
   DEPER  =   0.30     relativ break condition  

   TIME   =   0.40     timestep for ELM

  volume/ion in A,a.u.               =     198.13      1337.02
  Fermi-wavevector in a.u.,A,eV,Ry     =   0.328449  0.620678  1.467777  0.107879
  Thomas-Fermi vector in A             =   1.222046

 Write flags
   LWAVE        =      F    write WAVECAR
   LDOWNSAMPLE  =      F    k-point downsampling of WAVECAR
   LCHARG       =      F    write CHGCAR
   LVTOT        =      F    write LOCPOT, total local potential
   LVHAR        =      F    write LOCPOT, Hartree potential only
   LELF         =      F    write electronic localiz. function (ELF)
   LORBIT       =      0    0 simple, 1 ext, 2 COOP (PROOUT), +10 PAW based schemes


 Dipole corrections
   LMONO  =      F    monopole corrections only (constant potential shift)
   LDIPOL =      F    correct potential (dipole corrections)
   IDIPOL =      0    1-x, 2-y, 3-z, 4-all directions 
   EPSILON=  1.0000000 bulk dielectric constant

 Exchange correlation treatment:
   GGA     =    --    GGA type
   LEXCH   =     8    internal setting for exchange type
   VOSKOWN=      0    Vosko Wilk Nusair interpolation
   LHFCALC =     F    Hartree Fock is set to
   LHFONE  =     F    Hartree Fock one center treatment
   AEXX    =    0.0000 exact exchange contribution

 Linear response parameters
   LEPSILON=     F    determine dielectric tensor
   LRPA    =     F    only Hartree local field effects (RPA)
   LNABLA  =     F    use nabla operator in PAW spheres
   LVEL    =     F    velocity operator in full k-point grid
   LINTERFAST=   F  fast interpolation
   KINTER  =     0    interpolate to denser k-point grid
   CSHIFT  =0.1000    complex shift for real part using Kramers Kronig
   OMEGAMAX=  -1.0    maximum frequency
   DEG_THRESHOLD= 0.2000000E-02 threshold for treating states as degnerate
   RTIME   =   -0.100 relaxation time in fs
  (WPLASMAI=    0.000 imaginary part of plasma frequency in eV, 0.658/RTIME)
   DFIELD  = 0.0000000 0.0000000 0.0000000 field for delta impulse in time

 Orbital magnetization related:
   ORBITALMAG=     F  switch on orbital magnetization
   LCHIMAG   =     F  perturbation theory with respect to B field
   DQ        =  0.001000  dq finite difference perturbation B field
   LLRAUG    =     F  two centre corrections for induced B field



--------------------------------------------------------------------------------------------------------


 molecular dynamics for ions
   using nose mass (canonical ensemble)
 charge density and potential will be updated during run
 non-spin polarized calculation
 RMM-DIIS sequential band-by-band and
  variant of blocked Davidson during initial phase
 perform sub-space diagonalisation
    before iterative eigenvector-optimisation
 modified Broyden-mixing scheme, WC =      100.0
 initial mixing is a Kerker type mixing with AMIX =  0.4000 and BMIX =      1.0000
 Hartree-type preconditioning will be used
 using additional bands            4
 real space projection scheme for non local part
 use partial core corrections
 calculate Harris-corrections to forces   (improved forces if not selfconsistent)
 use gradient corrections 
 use of overlap-Matrix (Vanderbilt PP)
 Methfessel and Paxton  Order N= 1 SIGMA  =   0.20


--------------------------------------------------------------------------------------------------------


  energy-cutoff  :      400.00
  volume of cell :      990.63
      direct lattice vectors                 reciprocal lattice vectors
     9.929811297  0.000000000  0.000000000     0.100706848  0.001438215 -0.001656307
    -0.140269693  9.821978950  0.000000000     0.000000000  0.101812476 -0.002420667
     0.163603915  0.241493717 10.157146547     0.000000000 -0.000000000  0.098452847

  length of vectors
     9.929811297  9.822980510 10.161334137     0.100730736  0.101841249  0.098452847



 k-points in units of 2pi/SCALE and weight: read from INCAR                         
   0.02517671  0.02581267  0.02359397       0.250
  -0.02517671  0.02509357  0.02442212       0.250
   0.02517671 -0.02509357  0.02480430       0.250
  -0.02517671 -0.02581267  0.02563246       0.250

 k-points in reciprocal lattice and weights: read from INCAR                         
   0.25000000  0.25000000  0.25000000       0.250
  -0.25000000  0.25000000  0.25000000       0.250
   0.25000000 -0.25000000  0.25000000       0.250
  -0.25000000 -0.25000000  0.25000000       0.250

 position of ions in fractional coordinates (direct lattice) 
   0.53845157  0.40655550  0.36088223
   0.39404241  0.48108560  0.43828634
   0.55206671  0.56547638  0.44285607
   0.52812255  0.41649496  0.53916108
   0.50313041  0.46685049  0.44575547

 position of ions in cartesian coordinates  (Angst):
   5.34873677  4.08033035  3.66553371
   3.91699038  4.83105603  4.45173863
   5.47505208  5.66104406  4.49815404
   5.27394453  4.22100876  5.47633814
   5.00343238  4.69304283  4.52760361



--------------------------------------------------------------------------------------------------------


 k-point  1 :   0.2500 0.2500 0.2500  plane waves:   17979
 k-point  2 :  -0.2500 0.2500 0.2500  plane waves:   17995
 k-point  3 :   0.2500-0.2500 0.2500  plane waves:   18009
 k-point  4 :  -0.2500-0.2500 0.2500  plane waves:   17988

 maximum and minimum number of plane-waves per node :     18009    17979

 maximum number of plane-waves:     18009
 maximum index in each direction: 
   IXMAX=   16   IYMAX=   16   IZMAX=   16
   IXMIN=  -16   IYMIN=  -16   IZMIN=  -16


 serial   3D FFT for wavefunctions
 parallel 3D FFT for charge:
    minimum data exchange during FFTs selected (reduces bandwidth)


 total amount of memory used by VASP MPI-rank0   280529. kBytes
=======================================================================

   base      :      30000. kBytes
   nonlr-proj:        154. kBytes
   fftplans  :      86584. kBytes
   grid      :     154542. kBytes
   one-center:         15. kBytes
   wavefun   :       9234. kBytes

     INWAV:  cpu time    0.0000: real time    0.0000
 Broyden mixing: mesh for mixing (old mesh)
   NGX = 33   NGY = 33   NGZ = 33
  (NGX  =140   NGY  =128   NGZ  =140)
  gives a total of  35937 points

 initial charge density was supplied:
 charge density of overlapping atoms calculated
 number of electron       8.0000000 magnetization 
 keeping initial charge density in first step


--------------------------------------------------------------------------------------------------------


 Maximum index for non-local projection operator          679
 Maximum index for augmentation-charges         3619 (set IRDMAX)


--------------------------------------------------------------------------------------------------------


 First call to EWALD:  gamma=   0.178
 Maximum number of real-space cells 3x 3x 3
 Maximum number of reciprocal cells 3x 3x 3

    FEWALD:  cpu time    0.0008: real time    0.0008


--------------------------------------- Iteration      1(   1)  ---------------------------------------


    POTLOK:  cpu time    1.6870: real time    1.6912
    SETDIJ:  cpu time    0.0067: real time    0.0067
     EDDAV:  cpu time    3.0365: real time    3.0437
       DOS:  cpu time    0.0003: real time    0.0003
    --------------------------------------------
      LOOP:  cpu time    4.7305: real time    4.7419

 eigenvalue-minimisations  :    96
 total energy-change (2. order) : 0.1456215E+02  (-0.1967212E+03)
 number of electron       8.0000000 magnetization 
 augmentation part        8.0000000 magnetization 

 Free energy of the ion-electron system (eV)
  ---------------------------------------------------
  alpha Z        PSCENC =         0.24454202
  Ewald energy   TEWEN  =       128.74321082
  -Hartree energ DENC   =      -243.82393887
  -exchange      EXHF   =         0.00000000
  -V(xc)+E(xc)   XCENC  =        22.01906305
  PAW double counting   =       117.05815612     -117.66307307
  entropy T*S    EENTRO =         0.00305853
  eigenvalues    EBANDS =       -89.06062800
  atomic energy  EATOM  =       197.04175453
  Solvation  Ediel_sol  =         0.00000000
  ---------------------------------------------------
  free energy    TOTEN  =        14.56214513 eV

  energy without entropy =       14.55908660  energy(sigma->0) =       14.56112562


--------------------------------------------------------------------------------------------------------




--------------------------------------- Iteration      1(   2)  ---------------------------------------


     EDDAV:  cpu time    2.1804: real time    2.1857
       DOS:  cpu time    0.0002: real time    0.0002
    --------------------------------------------
      LOOP:  cpu time    2.1807: real time    2.1859

 eigenvalue-minimisations  :    64
 total energy-change (2. order) :-0.3737694E+02  (-0.3737740E+02)
 number of electron       8.0000000 magnetization 
 augmentation part        8.0000000 magnetization 

 Free energy of the ion-electron system (eV)
  ---------------------------------------------------
  alpha Z        PSCENC =         0.24454202
  Ewald energy   TEWEN  =       128.74321082
  -Hartree energ DENC   =      -243.82393887
  -exchange      EXHF   =         0.00000000
  -V(xc)+E(xc)   XCENC  =        22.01906305
  PAW double counting   =       117.05815612     -117.66307307
  entropy T*S    EENTRO =         0.00519284
  eigenvalues    EBANDS =      -126.43969944
  atomic energy  EATOM  =       197.04175453
  Solvation  Ediel_sol  =         0.00000000
  ---------------------------------------------------
  free energy    TOTEN  =       -22.81479199 eV

  energy without entropy =      -22.81998483  energy(sigma->0) =      -22.81652293


--------------------------------------------------------------------------------------------------------




--------------------------------------- Iteration      1(   3)  ---------------------------------------


     EDDAV:  cpu time    2.1783: real time    2.1834
       DOS:  cpu time    0.0002: real time    0.0002
    --------------------------------------------
      LOOP:  cpu time    2.1785: real time    2.1836

 eigenvalue-minimisations  :    64
 total energy-change (2. order) :-0.4554434E+01  (-0.4565856E+01)
 number of electron       8.0000000 magnetization 
 augmentation part        8.0000000 magnetization 

 Free energy of the ion-electron system (eV)
  ---------------------------------------------------
  alpha Z        PSCENC =         0.24454202
  Ewald energy   TEWEN  =       128.74321082
  -Hartree energ DENC   =      -243.82393887
  -exchange      EXHF   =         0.00000000
  -V(xc)+E(xc)   XCENC  =        22.01906305
  PAW double counting   =       117.05815612     -117.66307307
  entropy T*S    EENTRO =         0.02945154
  eigenvalues    EBANDS =      -131.01839176
  atomic energy  EATOM  =       197.04175453
  Solvation  Ediel_sol  =         0.00000000
  ---------------------------------------------------
  free energy    TOTEN  =       -27.36922561 eV

  energy without entropy =      -27.39867715  energy(sigma->0) =      -27.37904279


--------------------------------------------------------------------------------------------------------




--------------------------------------- Iteration      1(   4)  ---------------------------------------


     EDDAV:  cpu time    3.8692: real time    3.8783
       DOS:  cpu time    0.0002: real time    0.0002
    --------------------------------------------
      LOOP:  cpu time    3.8694: real time    3.8786

 eigenvalue-minimisations  :   128
 total energy-change (2. order) :-0.1859465E+00  (-0.1859085E+00)
 number of electron       8.0000000 magnetization 
 augmentation part        8.0000000 magnetization 

 Free energy of the ion-electron system (eV)
  ---------------------------------------------------
  alpha Z        PSCENC =         0.24454202
  Ewald energy   TEWEN  =       128.74321082
  -Hartree energ DENC   =      -243.82393887
  -exchange      EXHF   =         0.00000000
  -V(xc)+E(xc)   XCENC  =        22.01906305
  PAW double counting   =       117.05815612     -117.66307307
  entropy T*S    EENTRO =         0.02885524
  eigenvalues    EBANDS =      -131.20374199
  atomic energy  EATOM  =       197.04175453
  Solvation  Ediel_sol  =         0.00000000
  ---------------------------------------------------
  free energy    TOTEN  =       -27.55517214 eV

  energy without entropy =      -27.58402738  energy(sigma->0) =      -27.56479056


--------------------------------------------------------------------------------------------------------




--------------------------------------- Iteration      1(   5)  ---------------------------------------


     EDDAV:  cpu time    2.9267: real time    2.9336
       DOS:  cpu time    0.0002: real time    0.0002
    CHARGE:  cpu time    0.2092: real time    0.2097
    MIXING:  cpu time    0.0398: real time    0.0399
    --------------------------------------------
      LOOP:  cpu time    3.1759: real time    3.1834

 eigenvalue-minimisations  :    96
 total energy-change (2. order) :-0.5907697E-04  (-0.5907723E-04)
 number of electron       8.0000002 magnetization 
 augmentation part        0.2250021 magnetization 

 Broyden mixing:
  rms(total) = 0.87599E+00    rms(broyden)= 0.87580E+00
  rms(prec ) = 0.12393E+01
  weight for this iteration     100.00

 Free energy of the ion-electron system (eV)
  ---------------------------------------------------
  alpha Z        PSCENC =         0.24454202
  Ewald energy   TEWEN  =       128.74321082
  -Hartree energ DENC   =      -243.82393887
  -exchange      EXHF   =         0.00000000
  -V(xc)+E(xc)   XCENC  =        22.01906305
  PAW double counting   =       117.05815612     -117.66307307
  entropy T*S    EENTRO =         0.02885499
  eigenvalues    EBANDS =      -131.20380081
  atomic energy  EATOM  =       197.04175453
  Solvation  Ediel_sol  =         0.00000000
  ---------------------------------------------------
  free energy    TOTEN  =       -27.55523122 eV

  energy without entropy =      -27.58408620  energy(sigma->0) =      -27.56484955


--------------------------------------------------------------------------------------------------------




--------------------------------------- Iteration      1(   6)  ---------------------------------------


    POTLOK:  cpu time    1.7100: real time    1.7140
    SETDIJ:  cpu time    0.0066: real time    0.0066
    EDDIAG:  cpu time    0.4543: real time    0.4554
  RMM-DIIS:  cpu time    1.5830: real time    1.5867
    ORTHCH:  cpu time    0.0115: real time    0.0115
       DOS:  cpu time    0.0002: real time    0.0002
    CHARGE:  cpu time    0.1992: real time    0.1997
    MIXING:  cpu time    0.0397: real time    0.0398
    --------------------------------------------
      LOOP:  cpu time    4.0045: real time    4.0139

 eigenvalue-minimisations  :    64
 total energy-change (2. order) : 0.2923614E+01  (-0.5435005E+00)
 number of electron       8.0000002 magnetization 
 augmentation part        0.1981370 magnetization 

 Broyden mixing:
  rms(total) = 0.42585E+00    rms(broyden)= 0.42576E+00
  rms(prec ) = 0.55487E+00
  weight for this iteration     100.00

 eigenvalues of (default mixing * dielectric matrix)
  average eigenvalue GAMMA=   1.3038
  1.3038

 Free energy of the ion-electron system (eV)
  ---------------------------------------------------
  alpha Z        PSCENC =         0.24454202
  Ewald energy   TEWEN  =       128.74321082
  -Hartree energ DENC   =      -263.63391271
  -exchange      EXHF   =         0.00000000
  -V(xc)+E(xc)   XCENC  =        23.22125634
  PAW double counting   =       233.77576163     -234.55640069
  entropy T*S    EENTRO =         0.03436967
  eigenvalues    EBANDS =      -109.50219850
  atomic energy  EATOM  =       197.04175453
  Solvation  Ediel_sol  =         0.00000000
  ---------------------------------------------------
  free energy    TOTEN  =       -24.63161689 eV

  energy without entropy =      -24.66598655  energy(sigma->0) =      -24.64307344


--------------------------------------------------------------------------------------------------------




--------------------------------------- Iteration      1(   7)  ---------------------------------------


    POTLOK:  cpu time    1.6878: real time    1.6918
    SETDIJ:  cpu time    0.0065: real time    0.0066
    EDDIAG:  cpu time    0.4916: real time    0.4927
  RMM-DIIS:  cpu time    1.5557: real time    1.5594
    ORTHCH:  cpu time    0.0116: real time    0.0116
       DOS:  cpu time    0.0002: real time    0.0002
    CHARGE:  cpu time    0.1843: real time    0.1847
    MIXING:  cpu time    0.0403: real time    0.0404
    --------------------------------------------
      LOOP:  cpu time    3.9779: real time    3.9873

 eigenvalue-minimisations  :    64
 total energy-change (2. order) : 0.4961397E+00  (-0.1231338E+00)
 number of electron       8.0000002 magnetization 
 augmentation part        0.1876292 magnetization 

 Broyden mixing:
  rms(total) = 0.22483E+00    rms(broyden)= 0.22478E+00
  rms(prec ) = 0.27319E+00
  weight for this iteration     100.00

 eigenvalues of (default mixing * dielectric matrix)
  average eigenvalue GAMMA=   1.8022
  1.4516  2.1527

 Free energy of the ion-electron system (eV)
  ---------------------------------------------------
  alpha Z        PSCENC =         0.24454202
  Ewald energy   TEWEN  =       128.74321082
  -Hartree energ DENC   =      -275.33553013
  -exchange      EXHF   =         0.00000000
  -V(xc)+E(xc)   XCENC  =        24.08047027
  PAW double counting   =       353.57600405     -354.39608249
  entropy T*S    EENTRO =         0.03493435
  eigenvalues    EBANDS =       -98.12478061
  atomic energy  EATOM  =       197.04175453
  Solvation  Ediel_sol  =         0.00000000
  ---------------------------------------------------
  free energy    TOTEN  =       -24.13547720 eV

  energy without entropy =      -24.17041154  energy(sigma->0) =      -24.14712198


--------------------------------------------------------------------------------------------------------




--------------------------------------- Iteration      1(   8)  ---------------------------------------


    POTLOK:  cpu time    1.6995: real time    1.7035
    SETDIJ:  cpu time    0.0067: real time    0.0068
    EDDIAG:  cpu time    0.5113: real time    0.5125
  RMM-DIIS:  cpu time    1.5464: real time    1.5500
    ORTHCH:  cpu time    0.0118: real time    0.0119
       DOS:  cpu time    0.0002: real time    0.0002
    CHARGE:  cpu time    0.1929: real time    0.1933
    MIXING:  cpu time    0.0410: real time    0.0411
    --------------------------------------------
      LOOP:  cpu time    4.0099: real time    4.0193

 eigenvalue-minimisations  :    64
 total energy-change (2. order) : 0.1460412E+00  (-0.1498070E-01)
 number of electron       8.0000002 magnetization 
 augmentation part        0.1861738 magnetization 

 Broyden mixing:
  rms(total) = 0.24619E-01    rms(broyden)= 0.24595E-01
  rms(prec ) = 0.55321E-01
  weight for this iteration     100.00

 eigenvalues of (default mixing * dielectric matrix)
  average eigenvalue GAMMA=   1.5184
  2.2500  1.4277  0.8776

 Free energy of the ion-electron system (eV)
  ---------------------------------------------------
  alpha Z        PSCENC =         0.24454202
  Ewald energy   TEWEN  =       128.74321082
  -Hartree energ DENC   =      -280.60316658
  -exchange      EXHF   =         0.00000000
  -V(xc)+E(xc)   XCENC  =        24.60014969
  PAW double counting   =       451.75251691     -452.54218731
  entropy T*S    EENTRO =         0.03614630
  eigenvalues    EBANDS =       -93.26240232
  atomic energy  EATOM  =       197.04175453
  Solvation  Ediel_sol  =         0.00000000
  ---------------------------------------------------
  free energy    TOTEN  =       -23.98943595 eV

  energy without entropy =      -24.02558225  energy(sigma->0) =      -24.00148472


--------------------------------------------------------------------------------------------------------




--------------------------------------- Iteration      1(   9)  ---------------------------------------


    POTLOK:  cpu time    1.7157: real time    1.7199
    SETDIJ:  cpu time    0.0066: real time    0.0066
    EDDIAG:  cpu time    0.4977: real time    0.4989
  RMM-DIIS:  cpu time    1.5485: real time    1.5522
    ORTHCH:  cpu time    0.0114: real time    0.0114
       DOS:  cpu time    0.0002: real time    0.0002
    CHARGE:  cpu time    0.1880: real time    0.1885
    MIXING:  cpu time    0.0417: real time    0.0418
    --------------------------------------------
      LOOP:  cpu time    4.0099: real time    4.0195

 eigenvalue-minimisations  :    64
 total energy-change (2. order) : 0.6340842E-02  (-0.1095634E-02)
 number of electron       8.0000002 magnetization 
 augmentation part        0.1857712 magnetization 

 Broyden mixing:
  rms(total) = 0.23353E-01    rms(broyden)= 0.23342E-01
  rms(prec ) = 0.45155E-01
  weight for this iteration     100.00

 eigenvalues of (default mixing * dielectric matrix)
  average eigenvalue GAMMA=   1.3328
  2.1850  1.4070  1.1330  0.6063

 Free energy of the ion-electron system (eV)
  ---------------------------------------------------
  alpha Z        PSCENC =         0.24454202
  Ewald energy   TEWEN  =       128.74321082
  -Hartree energ DENC   =      -281.78661179
  -exchange      EXHF   =         0.00000000
  -V(xc)+E(xc)   XCENC  =        24.67629960
  PAW double counting   =       458.63439783     -459.42425320
  entropy T*S    EENTRO =         0.03652015
  eigenvalues    EBANDS =       -92.14895506
  atomic energy  EATOM  =       197.04175453
  Solvation  Ediel_sol  =         0.00000000
  ---------------------------------------------------
  free energy    TOTEN  =       -23.98309511 eV

  energy without entropy =      -24.01961525  energy(sigma->0) =      -23.99526849


--------------------------------------------------------------------------------------------------------




--------------------------------------- Iteration      1(  10)  ---------------------------------------


    POTLOK:  cpu time    1.7190: real time    1.7231
    SETDIJ:  cpu time    0.0066: real time    0.0066
    EDDIAG:  cpu time    0.5113: real time    0.5125
  RMM-DIIS:  cpu time    1.5239: real time    1.5276
    ORTHCH:  cpu time    0.0113: real time    0.0113
       DOS:  cpu time    0.0002: real time    0.0002
    CHARGE:  cpu time    0.1850: real time    0.1855
    MIXING:  cpu time    0.0433: real time    0.0434
    --------------------------------------------
      LOOP:  cpu time    4.0006: real time    4.0101

 eigenvalue-minimisations  :    64
 total energy-change (2. order) : 0.9325181E-03  (-0.6700995E-03)
 number of electron       8.0000002 magnetization 
 augmentation part        0.1850324 magnetization 

 Broyden mixing:
  rms(total) = 0.26191E-01    rms(broyden)= 0.26170E-01
  rms(prec ) = 0.41954E-01
  weight for this iteration     100.00

 eigenvalues of (default mixing * dielectric matrix)
  average eigenvalue GAMMA=   1.7271
  2.9176  2.9176  1.3473  1.0055  0.4477

 Free energy of the ion-electron system (eV)
  ---------------------------------------------------
  alpha Z        PSCENC =         0.24454202
  Ewald energy   TEWEN  =       128.74321082
  -Hartree energ DENC   =      -282.86059842
  -exchange      EXHF   =         0.00000000
  -V(xc)+E(xc)   XCENC  =        24.71766764
  PAW double counting   =       454.84703603     -455.63933146
  entropy T*S    EENTRO =         0.03641037
  eigenvalues    EBANDS =       -91.11285412
  atomic energy  EATOM  =       197.04175453
  Solvation  Ediel_sol  =         0.00000000
  ---------------------------------------------------
  free energy    TOTEN  =       -23.98216259 eV

  energy without entropy =      -24.01857296  energy(sigma->0) =      -23.99429938


--------------------------------------------------------------------------------------------------------




--------------------------------------- Iteration      1(  11)  ---------------------------------------


    POTLOK:  cpu time    1.6190: real time    1.6228
    SETDIJ:  cpu time    0.0066: real time    0.0066
    EDDIAG:  cpu time    0.5109: real time    0.5121
  RMM-DIIS:  cpu time    1.5645: real time    1.5682
    ORTHCH:  cpu time    0.0118: real time    0.0119
       DOS:  cpu time    0.0002: real time    0.0002
    CHARGE:  cpu time    0.1795: real time    0.1800
    MIXING:  cpu time    0.0423: real time    0.0424
    --------------------------------------------
      LOOP:  cpu time    3.9349: real time    3.9442

 eigenvalue-minimisations  :    64
 total energy-change (2. order) : 0.6105021E-02  (-0.5872955E-03)
 number of electron       8.0000002 magnetization 
 augmentation part        0.1847710 magnetization 

 Broyden mixing:
  rms(total) = 0.17114E-01    rms(broyden)= 0.17105E-01
  rms(prec ) = 0.23181E-01
  weight for this iteration     100.00

 eigenvalues of (default mixing * dielectric matrix)
  average eigenvalue GAMMA=   1.5561
  3.0702  2.4326  0.4454  1.2180  1.2180  0.9525

 Free energy of the ion-electron system (eV)
  ---------------------------------------------------
  alpha Z        PSCENC =         0.24454202
  Ewald energy   TEWEN  =       128.74321082
  -Hartree energ DENC   =      -284.11151319
  -exchange      EXHF   =         0.00000000
  -V(xc)+E(xc)   XCENC  =        24.75736523
  PAW double counting   =       445.71240145     -446.50390177
  entropy T*S    EENTRO =         0.03649253
  eigenvalues    EBANDS =       -89.89640919
  atomic energy  EATOM  =       197.04175453
  Solvation  Ediel_sol  =         0.00000000
  ---------------------------------------------------
  free energy    TOTEN  =       -23.97605757 eV

  energy without entropy =      -24.01255010  energy(sigma->0) =      -23.98822175


--------------------------------------------------------------------------------------------------------




--------------------------------------- Iteration      1(  12)  ---------------------------------------


    POTLOK:  cpu time    1.6303: real time    1.6341
    SETDIJ:  cpu time    0.0066: real time    0.0066
    EDDIAG:  cpu time    0.5110: real time    0.5122
  RMM-DIIS:  cpu time    1.5615: real time    1.5652
    ORTHCH:  cpu time    0.0117: real time    0.0118
       DOS:  cpu time    0.0002: real time    0.0002
    CHARGE:  cpu time    0.1936: real time    0.1940
    MIXING:  cpu time    0.0459: real time    0.0460
    --------------------------------------------
      LOOP:  cpu time    3.9607: real time    3.9701

 eigenvalue-minimisations  :    64
 total energy-change (2. order) :-0.2119664E-02  (-0.3198049E-03)
 number of electron       8.0000002 magnetization 
 augmentation part        0.1849628 magnetization 

 Broyden mixing:
  rms(total) = 0.68147E-02    rms(broyden)= 0.68112E-02
  rms(prec ) = 0.12365E-01
  weight for this iteration     100.00

 eigenvalues of (default mixing * dielectric matrix)
  average eigenvalue GAMMA=   1.9110
  4.3404  2.6786  2.6786  0.4478  1.2954  0.9680  0.9680

 Free energy of the ion-electron system (eV)
  ---------------------------------------------------
  alpha Z        PSCENC =         0.24454202
  Ewald energy   TEWEN  =       128.74321082
  -Hartree energ DENC   =      -284.16884112
  -exchange      EXHF   =         0.00000000
  -V(xc)+E(xc)   XCENC  =        24.77183787
  PAW double counting   =       451.63537479     -452.42256083
  entropy T*S    EENTRO =         0.03653691
  eigenvalues    EBANDS =       -89.86003222
  atomic energy  EATOM  =       197.04175453
  Solvation  Ediel_sol  =         0.00000000
  ---------------------------------------------------
  free energy    TOTEN  =       -23.97817723 eV

  energy without entropy =      -24.01471415  energy(sigma->0) =      -23.99035620


--------------------------------------------------------------------------------------------------------




--------------------------------------- Iteration      1(  13)  ---------------------------------------


    POTLOK:  cpu time    1.5123: real time    1.5159
    SETDIJ:  cpu time    0.0066: real time    0.0066
    EDDIAG:  cpu time    0.5035: real time    0.5047
  RMM-DIIS:  cpu time    1.6035: real time    1.6072
    ORTHCH:  cpu time    0.0119: real time    0.0119
       DOS:  cpu time    0.0002: real time    0.0002
    CHARGE:  cpu time    0.1998: real time    0.2003
    MIXING:  cpu time    0.0465: real time    0.0466
    --------------------------------------------
      LOOP:  cpu time    3.8843: real time    3.8935

 eigenvalue-minimisations  :    64
 total energy-change (2. order) :-0.7972391E-02  (-0.1964944E-03)
 number of electron       8.0000002 magnetization 
 augmentation part        0.1850060 magnetization 

 Broyden mixing:
  rms(total) = 0.81473E-02    rms(broyden)= 0.81468E-02
  rms(prec ) = 0.10581E-01
  weight for this iteration     100.00

 eigenvalues of (default mixing * dielectric matrix)
  average eigenvalue GAMMA=   1.8254
  4.7761  2.8136  2.4370  0.4478  1.1535  1.1535  0.9109  0.9109

 Free energy of the ion-electron system (eV)
  ---------------------------------------------------
  alpha Z        PSCENC =         0.24454202
  Ewald energy   TEWEN  =       128.74321082
  -Hartree energ DENC   =      -284.48749651
  -exchange      EXHF   =         0.00000000
  -V(xc)+E(xc)   XCENC  =        24.77311455
  PAW double counting   =       450.00753093     -450.79449598
  entropy T*S    EENTRO =         0.03645827
  eigenvalues    EBANDS =       -89.55076826
  atomic energy  EATOM  =       197.04175453
  Solvation  Ediel_sol  =         0.00000000
  ---------------------------------------------------
  free energy    TOTEN  =       -23.98614962 eV

  energy without entropy =      -24.02260789  energy(sigma->0) =      -23.99830238


--------------------------------------------------------------------------------------------------------




--------------------------------------- Iteration      1(  14)  ---------------------------------------


    POTLOK:  cpu time    1.5067: real time    1.5103
    SETDIJ:  cpu time    0.0065: real time    0.0065
    EDDIAG:  cpu time    0.4813: real time    0.4825
  RMM-DIIS:  cpu time    1.6221: real time    1.6260
    ORTHCH:  cpu time    0.0131: real time    0.0132
       DOS:  cpu time    0.0002: real time    0.0002
    CHARGE:  cpu time    0.2069: real time    0.2074
    MIXING:  cpu time    0.0470: real time    0.0471
    --------------------------------------------
      LOOP:  cpu time    3.8838: real time    3.8930

 eigenvalue-minimisations  :    64
 total energy-change (2. order) :-0.1038730E-02  (-0.4995416E-04)
 number of electron       8.0000002 magnetization 
 augmentation part        0.1848643 magnetization 

 Broyden mixing:
  rms(total) = 0.26246E-02    rms(broyden)= 0.26244E-02
  rms(prec ) = 0.42559E-02
  weight for this iteration     100.00

 eigenvalues of (default mixing * dielectric matrix)
  average eigenvalue GAMMA=   2.0034
  5.5271  3.2886  2.1934  2.1934  1.2385  1.2385  0.4477  0.9519  0.9519

 Free energy of the ion-electron system (eV)
  ---------------------------------------------------
  alpha Z        PSCENC =         0.24454202
  Ewald energy   TEWEN  =       128.74321082
  -Hartree energ DENC   =      -284.53397694
  -exchange      EXHF   =         0.00000000
  -V(xc)+E(xc)   XCENC  =        24.76981713
  PAW double counting   =       449.00433512     -449.79280752
  entropy T*S    EENTRO =         0.03645722
  eigenvalues    EBANDS =       -89.50052073
  atomic energy  EATOM  =       197.04175453
  Solvation  Ediel_sol  =         0.00000000
  ---------------------------------------------------
  free energy    TOTEN  =       -23.98718835 eV

  energy without entropy =      -24.02364557  energy(sigma->0) =      -23.99934076


--------------------------------------------------------------------------------------------------------




--------------------------------------- Iteration      1(  15)  ---------------------------------------


    POTLOK:  cpu time    1.4806: real time    1.4841
    SETDIJ:  cpu time    0.0067: real time    0.0067
    EDDIAG:  cpu time    0.4759: real time    0.4770
  RMM-DIIS:  cpu time    1.6549: real time    1.6588
    ORTHCH:  cpu time    0.0124: real time    0.0124
       DOS:  cpu time    0.0002: real time    0.0002
    CHARGE:  cpu time    0.2077: real time    0.2082
    MIXING:  cpu time    0.0475: real time    0.0476
    --------------------------------------------
      LOOP:  cpu time    3.8859: real time    3.8951

 eigenvalue-minimisations  :    64
 total energy-change (2. order) :-0.2395136E-02  (-0.6409920E-04)
 number of electron       8.0000002 magnetization 
 augmentation part        0.1848122 magnetization 

 Broyden mixing:
  rms(total) = 0.30307E-02    rms(broyden)= 0.30296E-02
  rms(prec ) = 0.38009E-02
  weight for this iteration     100.00

 eigenvalues of (default mixing * dielectric matrix)
  average eigenvalue GAMMA=   2.1278
  6.4247  4.0701  2.5250  2.3105  0.4477  1.2171  1.2171  0.9315  1.0670  1.0670

 Free energy of the ion-electron system (eV)
  ---------------------------------------------------
  alpha Z        PSCENC =         0.24454202
  Ewald energy   TEWEN  =       128.74321082
  -Hartree energ DENC   =      -284.46293674
  -exchange      EXHF   =         0.00000000
  -V(xc)+E(xc)   XCENC  =        24.75746329
  PAW double counting   =       448.05791382     -448.84696329
  entropy T*S    EENTRO =         0.03648893
  eigenvalues    EBANDS =       -89.56105688
  atomic energy  EATOM  =       197.04175453
  Solvation  Ediel_sol  =         0.00000000
  ---------------------------------------------------
  free energy    TOTEN  =       -23.98958349 eV

  energy without entropy =      -24.02607242  energy(sigma->0) =      -24.00174647


--------------------------------------------------------------------------------------------------------




--------------------------------------- Iteration      1(  16)  ---------------------------------------


    POTLOK:  cpu time    1.4592: real time    1.4627
    SETDIJ:  cpu time    0.0065: real time    0.0065
    EDDIAG:  cpu time    0.4800: real time    0.4812
  RMM-DIIS:  cpu time    1.6571: real time    1.6610
    ORTHCH:  cpu time    0.0122: real time    0.0122
       DOS:  cpu time    0.0002: real time    0.0002
    CHARGE:  cpu time    0.2051: real time    0.2056
    MIXING:  cpu time    0.0516: real time    0.0517
    --------------------------------------------
      LOOP:  cpu time    3.8719: real time    3.8811

 eigenvalue-minimisations  :    64
 total energy-change (2. order) :-0.2802829E-03  (-0.4502504E-05)
 number of electron       8.0000002 magnetization 
 augmentation part        0.1847823 magnetization 

 Broyden mixing:
  rms(total) = 0.10584E-02    rms(broyden)= 0.10582E-02
  rms(prec ) = 0.14788E-02
  weight for this iteration     100.00

 eigenvalues of (default mixing * dielectric matrix)
  average eigenvalue GAMMA=   2.2390
  7.2070  4.5488  2.5033  2.5033  1.8648  0.4477  1.2664  1.2664  0.9282  1.0323
  1.0605

 Free energy of the ion-electron system (eV)
  ---------------------------------------------------
  alpha Z        PSCENC =         0.24454202
  Ewald energy   TEWEN  =       128.74321082
  -Hartree energ DENC   =      -284.49497258
  -exchange      EXHF   =         0.00000000
  -V(xc)+E(xc)   XCENC  =        24.76078795
  PAW double counting   =       448.89169737     -449.68033913
  entropy T*S    EENTRO =         0.03647299
  eigenvalues    EBANDS =       -89.53301775
  atomic energy  EATOM  =       197.04175453
  Solvation  Ediel_sol  =         0.00000000
  ---------------------------------------------------
  free energy    TOTEN  =       -23.98986377 eV

  energy without entropy =      -24.02633676  energy(sigma->0) =      -24.00202144


--------------------------------------------------------------------------------------------------------




--------------------------------------- Iteration      1(  17)  ---------------------------------------


    POTLOK:  cpu time    1.4820: real time    1.4857
    SETDIJ:  cpu time    0.0065: real time    0.0066
    EDDIAG:  cpu time    0.4774: real time    0.4786
  RMM-DIIS:  cpu time    1.6424: real time    1.6463
    ORTHCH:  cpu time    0.0125: real time    0.0126
       DOS:  cpu time    0.0003: real time    0.0003
    CHARGE:  cpu time    0.2126: real time    0.2131
    MIXING:  cpu time    0.0517: real time    0.0518
    --------------------------------------------
      LOOP:  cpu time    3.8855: real time    3.8948

 eigenvalue-minimisations  :    64
 total energy-change (2. order) :-0.2094210E-03  (-0.4915781E-05)
 number of electron       8.0000002 magnetization 
 augmentation part        0.1848089 magnetization 

 Broyden mixing:
  rms(total) = 0.58464E-03    rms(broyden)= 0.58405E-03
  rms(prec ) = 0.80157E-03
  weight for this iteration     100.00

 eigenvalues of (default mixing * dielectric matrix)
  average eigenvalue GAMMA=   2.3025
  7.7823  4.8356  3.2813  2.4997  2.0966  0.4477  1.3384  1.3384  1.0621  1.0621
  0.9431  0.9431

 Free energy of the ion-electron system (eV)
  ---------------------------------------------------
  alpha Z        PSCENC =         0.24454202
  Ewald energy   TEWEN  =       128.74321082
  -Hartree energ DENC   =      -284.47426333
  -exchange      EXHF   =         0.00000000
  -V(xc)+E(xc)   XCENC  =        24.76024714
  PAW double counting   =       448.85697653     -449.64524645
  entropy T*S    EENTRO =         0.03646544
  eigenvalues    EBANDS =       -89.55375990
  atomic energy  EATOM  =       197.04175453
  Solvation  Ediel_sol  =         0.00000000
  ---------------------------------------------------
  free energy    TOTEN  =       -23.99007319 eV

  energy without entropy =      -24.02653863  energy(sigma->0) =      -24.00222834


--------------------------------------------------------------------------------------------------------




--------------------------------------- Iteration      1(  18)  ---------------------------------------


    POTLOK:  cpu time    1.5218: real time    1.5254
    SETDIJ:  cpu time    0.0065: real time    0.0065
    EDDIAG:  cpu time    0.4747: real time    0.4759
  RMM-DIIS:  cpu time    1.6364: real time    1.6402
    ORTHCH:  cpu time    0.0121: real time    0.0121
       DOS:  cpu time    0.0002: real time    0.0002
    CHARGE:  cpu time    0.2099: real time    0.2104
    MIXING:  cpu time    0.0549: real time    0.0550
    --------------------------------------------
      LOOP:  cpu time    3.9165: real time    3.9257

 eigenvalue-minimisations  :    64
 total energy-change (2. order) :-0.4419012E-04  (-0.6330531E-06)
 number of electron       8.0000002 magnetization 
 augmentation part        0.1847993 magnetization 

 Broyden mixing:
  rms(total) = 0.90152E-04    rms(broyden)= 0.90070E-04
  rms(prec ) = 0.15001E-03
  weight for this iteration     100.00

 eigenvalues of (default mixing * dielectric matrix)
  average eigenvalue GAMMA=   2.3821
  8.2660  5.1533  3.7947  2.5042  2.5042  0.4477  1.4841  1.4841  1.3116  1.1137
  0.9404  0.9815  0.9815

 Free energy of the ion-electron system (eV)
  ---------------------------------------------------
  alpha Z        PSCENC =         0.24454202
  Ewald energy   TEWEN  =       128.74321082
  -Hartree energ DENC   =      -284.49804983
  -exchange      EXHF   =         0.00000000
  -V(xc)+E(xc)   XCENC  =        24.76126400
  PAW double counting   =       448.76722668     -449.55566432
  entropy T*S    EENTRO =         0.03647194
  eigenvalues    EBANDS =       -89.53087323
  atomic energy  EATOM  =       197.04175453
  Solvation  Ediel_sol  =         0.00000000
  ---------------------------------------------------
  free energy    TOTEN  =       -23.99011738 eV

  energy without entropy =      -24.02658933  energy(sigma->0) =      -24.00227470


--------------------------------------------------------------------------------------------------------




--------------------------------------- Iteration      1(  19)  ---------------------------------------


    POTLOK:  cpu time    1.5396: real time    1.5432
    SETDIJ:  cpu time    0.0065: real time    0.0066
    EDDIAG:  cpu time    0.4992: real time    0.5004
  RMM-DIIS:  cpu time    1.2706: real time    1.2736
    ORTHCH:  cpu time    0.0117: real time    0.0118
       DOS:  cpu time    0.0002: real time    0.0002
    CHARGE:  cpu time    0.1988: real time    0.1993
    MIXING:  cpu time    0.0531: real time    0.0532
    --------------------------------------------
      LOOP:  cpu time    3.5798: real time    3.5882

 eigenvalue-minimisations  :    48
 total energy-change (2. order) :-0.1410856E-04  (-0.6289241E-07)
 number of electron       8.0000002 magnetization 
 augmentation part        0.1847966 magnetization 

 Broyden mixing:
  rms(total) = 0.98615E-04    rms(broyden)= 0.98609E-04
  rms(prec ) = 0.13004E-03
  weight for this iteration     100.00

 eigenvalues of (default mixing * dielectric matrix)
  average eigenvalue GAMMA=   2.3484
  8.3975  5.3385  3.7614  2.7196  2.4458  1.9959  0.4477  1.3674  1.3674  1.0744
  1.0744  0.9509  0.9682  0.9682

 Free energy of the ion-electron system (eV)
  ---------------------------------------------------
  alpha Z        PSCENC =         0.24454202
  Ewald energy   TEWEN  =       128.74321082
  -Hartree energ DENC   =      -284.49858786
  -exchange      EXHF   =         0.00000000
  -V(xc)+E(xc)   XCENC  =        24.76130094
  PAW double counting   =       448.79603423     -449.58448000
  entropy T*S    EENTRO =         0.03647106
  eigenvalues    EBANDS =       -89.53037723
  atomic energy  EATOM  =       197.04175453
  Solvation  Ediel_sol  =         0.00000000
  ---------------------------------------------------
  free energy    TOTEN  =       -23.99013149 eV

  energy without entropy =      -24.02660256  energy(sigma->0) =      -24.00228851


--------------------------------------------------------------------------------------------------------




--------------------------------------- Iteration      1(  20)  ---------------------------------------


    POTLOK:  cpu time    1.5960: real time    1.5998
    SETDIJ:  cpu time    0.0066: real time    0.0066
    EDDIAG:  cpu time    0.4840: real time    0.4852
  RMM-DIIS:  cpu time    1.1947: real time    1.1976
    ORTHCH:  cpu time    0.0119: real time    0.0119
       DOS:  cpu time    0.0002: real time    0.0002
    CHARGE:  cpu time    0.1946: real time    0.1950
    MIXING:  cpu time    0.0545: real time    0.0546
    --------------------------------------------
      LOOP:  cpu time    3.5425: real time    3.5509

 eigenvalue-minimisations  :    44
 total energy-change (2. order) :-0.3006279E-05  (-0.1506543E-07)
 number of electron       8.0000002 magnetization 
 augmentation part        0.1847977 magnetization 

 Broyden mixing:
  rms(total) = 0.27920E-04    rms(broyden)= 0.27849E-04
  rms(prec ) = 0.46509E-04
  weight for this iteration     100.00

 eigenvalues of (default mixing * dielectric matrix)
  average eigenvalue GAMMA=   2.4111
  8.4815  5.5186  3.9803  3.2851  2.5735  2.4214  0.4477  1.6597  1.3942  1.3942
  1.0691  0.9523  0.9523  1.0184  1.0184

 Free energy of the ion-electron system (eV)
  ---------------------------------------------------
  alpha Z        PSCENC =         0.24454202
  Ewald energy   TEWEN  =       128.74321082
  -Hartree energ DENC   =      -284.49400596
  -exchange      EXHF   =         0.00000000
  -V(xc)+E(xc)   XCENC  =        24.76092379
  PAW double counting   =       448.76902116     -449.55745844
  entropy T*S    EENTRO =         0.03647144
  eigenvalues    EBANDS =       -89.53459387
  atomic energy  EATOM  =       197.04175453
  Solvation  Ediel_sol  =         0.00000000
  ---------------------------------------------------
  free energy    TOTEN  =       -23.99013450 eV

  energy without entropy =      -24.02660594  energy(sigma->0) =      -24.00229165


--------------------------------------------------------------------------------------------------------




--------------------------------------- Iteration      1(  21)  ---------------------------------------


    POTLOK:  cpu time    1.6189: real time    1.6227
    SETDIJ:  cpu time    0.0066: real time    0.0066
    EDDIAG:  cpu time    0.4731: real time    0.4742
  RMM-DIIS:  cpu time    1.1932: real time    1.1960
    ORTHCH:  cpu time    0.0113: real time    0.0114
       DOS:  cpu time    0.0002: real time    0.0002
    CHARGE:  cpu time    0.1773: real time    0.1777
    MIXING:  cpu time    0.0610: real time    0.0612
    --------------------------------------------
      LOOP:  cpu time    3.5417: real time    3.5500

 eigenvalue-minimisations  :    48
 total energy-change (2. order) :-0.1340303E-05  (-0.9726603E-08)
 number of electron       8.0000002 magnetization 
 augmentation part        0.1847970 magnetization 

 Broyden mixing:
  rms(total) = 0.37547E-04    rms(broyden)= 0.37541E-04
  rms(prec ) = 0.46739E-04
  weight for this iteration     100.00

 eigenvalues of (default mixing * dielectric matrix)
  average eigenvalue GAMMA=   2.3689
  8.4957  5.5304  4.1733  3.4847  2.5065  2.5065  1.9206  0.4477  1.3681  1.3681
  1.0654  0.9529  0.9917  0.9917  1.0493  1.0493

 Free energy of the ion-electron system (eV)
  ---------------------------------------------------
  alpha Z        PSCENC =         0.24454202
  Ewald energy   TEWEN  =       128.74321082
  -Hartree energ DENC   =      -284.49459360
  -exchange      EXHF   =         0.00000000
  -V(xc)+E(xc)   XCENC  =        24.76092418
  PAW double counting   =       448.76807687     -449.55652305
  entropy T*S    EENTRO =         0.03647104
  eigenvalues    EBANDS =       -89.53399864
  atomic energy  EATOM  =       197.04175453
  Solvation  Ediel_sol  =         0.00000000
  ---------------------------------------------------
  free energy    TOTEN  =       -23.99013584 eV

  energy without entropy =      -24.02660688  energy(sigma->0) =      -24.00229285


--------------------------------------------------------------------------------------------------------




--------------------------------------- Iteration      1(  22)  ---------------------------------------


    POTLOK:  cpu time    1.6450: real time    1.6489
    SETDIJ:  cpu time    0.0065: real time    0.0065
    EDDIAG:  cpu time    0.4819: real time    0.4831
  RMM-DIIS:  cpu time    0.9799: real time    0.9822
    ORTHCH:  cpu time    0.0114: real time    0.0115
       DOS:  cpu time    0.0002: real time    0.0002
    --------------------------------------------
      LOOP:  cpu time    3.1249: real time    3.1323

 eigenvalue-minimisations  :    32
 total energy-change (2. order) :-0.3198982E-06  ( 0.0000000E+00)
 number of electron       8.0000002 magnetization 
 augmentation part        0.1847970 magnetization 

 Free energy of the ion-electron system (eV)
  ---------------------------------------------------
  alpha Z        PSCENC =         0.24454202
  Ewald energy   TEWEN  =       128.74321082
  -Hartree energ DENC   =      -284.49529820
  -exchange      EXHF   =         0.00000000
  -V(xc)+E(xc)   XCENC  =        24.76099627
  PAW double counting   =       448.77289598     -449.56133937
  entropy T*S    EENTRO =         0.03647071
  eigenvalues    EBANDS =       -89.53336893
  atomic energy  EATOM  =       197.04175453
  Solvation  Ediel_sol  =         0.00000000
  ---------------------------------------------------
  free energy    TOTEN  =       -23.99013616 eV

  energy without entropy =      -24.02660687  energy(sigma->0) =      -24.00229306


--------------------------------------------------------------------------------------------------------




 average (electrostatic) potential at core
  the test charge radii are     0.5201  0.6991
  (the norm of the test charge is              1.0000)
       1 -41.4376       2 -41.5233       3 -41.6234       4 -41.4282       5 -57.9486



 E-fermi :  -9.0862     XC(G=0):  -0.7039     alpha+bet : -0.2127


 k-point     1 :       0.2500    0.2500    0.2500
  band No.  band energies     occupation 
      1     -16.9023      2.00000
      2      -9.3717      2.06142
      3      -9.2594      2.01012
      4      -9.2286      1.92814
      5      -0.3144      0.00000
      6       0.5794      0.00000
      7       0.6814      0.00000
      8       0.7118      0.00000

 k-point     2 :      -0.2500    0.2500    0.2500
  band No.  band energies     occupation 
      1     -16.9023      2.00000
      2      -9.3717      2.06143
      3      -9.2594      2.01022
      4      -9.2288      1.92861
      5      -0.3136      0.00000
      6       0.5661      0.00000
      7       0.6737      0.00000
      8       0.7221      0.00000

 k-point     3 :       0.2500   -0.2500    0.2500
  band No.  band energies     occupation 
      1     -16.9023      2.00000
      2      -9.3718      2.06141
      3      -9.2595      2.01039
      4      -9.2287      1.92848
      5      -0.3125      0.00000
      6       0.5673      0.00000
      7       0.6745      0.00000
      8       0.7132      0.00000

 k-point     4 :      -0.2500   -0.2500    0.2500
  band No.  band energies     occupation 
      1     -16.9023      2.00000
      2      -9.3718      2.06142
      3      -9.2594      2.01014
      4      -9.2286      1.92824
      5      -0.3068      0.00000
      6       0.5611      0.00000
      7       0.6658      0.00000
      8       0.6908      0.00000


--------------------------------------------------------------------------------------------------------


 soft charge-density along one line, spin component           1
         0         1         2         3         4         5         6         7         8         9
 total charge-density along one line

 pseudopotential strength for first ion, spin component:           1
 -2.341  -4.034  -0.001  -0.001   0.001
 -4.034  -6.865  -0.003  -0.004   0.002
 -0.001  -0.003  -0.337   0.002  -0.001
 -0.001  -0.004   0.002  -0.336  -0.001
  0.001   0.002  -0.001  -0.001  -0.338
 total augmentation occupancy for first ion, spin component:           1
  3.957  -0.813   0.216   0.344  -0.144
 -0.813   0.179  -0.046  -0.072   0.030
  0.216  -0.046   0.017   0.015  -0.007
  0.344  -0.072   0.015   0.034  -0.011
 -0.144   0.030  -0.007  -0.011   0.012


------------------------ aborting loop because EDIFF is reached ----------------------------------------


    CHARGE:  cpu time    0.1837: real time    0.1842
    FORLOC:  cpu time    0.1118: real time    0.1121
    FORNL :  cpu time    0.6728: real time    0.6744
    STRESS:  cpu time    2.0342: real time    2.0390
    FORCOR:  cpu time    1.6723: real time    1.6763
    FORHAR:  cpu time    0.5546: real time    0.5559
    MIXING:  cpu time    0.0585: real time    0.0587
    OFIELD:  cpu time    0.0000: real time    0.0000

  FORCE on cell =-STRESS in cart. coord.  units (eV):
  Direction    XX          YY          ZZ          XY          YZ          ZX
  --------------------------------------------------------------------------------------
  Alpha Z     0.24454     0.24454     0.24454
  Ewald      43.15093    44.08052    41.51174    -0.21687     1.05628     2.20604
  Hartree    95.14890    96.32124    93.02467    -0.44609     0.73796     1.03597
  E(xc)     -27.23353   -27.23947   -27.22127    -0.00460     0.00742     0.01051
  Local    -196.91509  -199.19696  -193.35929     0.85286    -1.86786    -3.37659
  n-local   -15.67222   -16.42939   -15.95801    -0.18140    -0.30184    -0.48695
  augment     0.11250     0.11263     0.11296    -0.00256     0.00272     0.00207
  Kinetic   101.06836   101.92380   100.83986     0.24285    -0.10835     0.66364
  Fock        0.00000     0.00000     0.00000     0.00000     0.00000     0.00000
  -------------------------------------------------------------------------------------
  Total      -0.09560    -0.18309    -0.80480     0.24419    -0.47367     0.05469
  in kB      -0.15462    -0.29612    -1.30162     0.39494    -0.76608     0.08844
  external pressure =       -0.58 kB  Pullay stress =        0.00 kB

  kinetic pressure (ideal gas correction) =      0.03 kB
  total pressure  =     -0.56 kB
  Total+kin.    -0.112      -0.294      -1.263       0.386      -0.759       0.074

 VOLUME and BASIS-vectors are now :
 -----------------------------------------------------------------------------
  energy-cutoff  :      400.00
  volume of cell :      990.63
      direct lattice vectors                 reciprocal lattice vectors
     9.929811297  0.000000000  0.000000000     0.100706848  0.001438215 -0.001656307
    -0.140269693  9.821978950  0.000000000     0.000000000  0.101812476 -0.002420667
     0.163603915  0.241493717 10.157146547     0.000000000 -0.000000000  0.098452847

  length of vectors
     9.929811297  9.822980510 10.161334137     0.100730736  0.101841249  0.098452847


 FORCES acting on ions
    electron-ion (+dipol)            ewald-force                    non-local-force                 convergence-correction
 -----------------------------------------------------------------------------------------------
   -.163E+02 0.287E+02 0.404E+02   0.177E+02 -.315E+02 -.440E+02   -.161E+01 0.287E+01 0.388E+01   -.179E-04 0.389E-04 0.491E-04
   0.523E+02 -.652E+01 0.339E+01   -.577E+02 0.712E+01 -.394E+01   0.585E+01 -.797E+00 0.548E+00   0.734E-04 -.276E-05 0.783E-05
   -.236E+02 -.482E+02 0.167E+01   0.264E+02 0.541E+02 -.176E+01   -.278E+01 -.472E+01 0.142E+00   -.358E-04 -.664E-04 0.379E-05
   -.129E+02 0.231E+02 -.460E+02   0.144E+02 -.256E+02 0.508E+02   -.141E+01 0.224E+01 -.473E+01   -.158E-04 0.304E-04 -.507E-04
   0.773E+00 0.355E+01 0.109E+01   -.808E+00 -.419E+01 -.106E+01   -.135E+01 0.620E+00 -.864E+00   0.494E-04 0.461E-04 0.754E-04
 -----------------------------------------------------------------------------------------------
   0.156E+00 0.568E+00 0.467E+00   0.355E-14 0.000E+00 0.000E+00   -.130E+01 0.220E+00 -.102E+01   0.533E-04 0.463E-04 0.854E-04


 POSITION                                       TOTAL-FORCE (eV/Angst)
 -----------------------------------------------------------------------------------
      5.34874      4.08033      3.66553        -0.269203      0.086264      0.209787
      3.91699      4.83106      4.45174         0.425483     -0.196090     -0.008664
      5.47505      5.66104      4.49815         0.021867      1.152118      0.049764
      5.27394      4.22101      5.47634         0.068432     -0.238531      0.028231
      5.00343      4.69304      4.52760        -1.386794     -0.015683     -0.836362
 -----------------------------------------------------------------------------------
    total drift:                               -1.140215      0.788078     -0.557243


--------------------------------------------------------------------------------------------------------



  FREE ENERGIE OF THE ION-ELECTRON SYSTEM (eV)
  ---------------------------------------------------
  free  energy   TOTEN  =       -23.99013616 eV

  energy  without entropy=      -24.02660687  energy(sigma->0) =      -24.00229306



--------------------------------------------------------------------------------------------------------


    POTLOK:  cpu time    1.6436: real time    1.6475


--------------------------------------------------------------------------------------------------------


           RANDOM_SEED =         578496015                0                0
           RANDOM_SEED =         578496015               30                0
   IONSTEP:  cpu time    0.0017: real time    0.0018

  ENERGY OF THE ELECTRON-ION-THERMOSTAT SYSTEM (eV)
  ---------------------------------------------------
% ion-electron   TOTEN  =       -23.990136  see above
  kinetic energy EKIN   =         0.041283
  kin. lattice  EKIN_LAT=         0.000000  (temperature   79.84 K)
  nose potential ES     =         0.000000
  nose kinetic   EPS    =         0.000029
  ---------------------------------------------------
  total energy   ETOTAL =       -23.948825 eV

  maximum distance moved by ions :      0.57E-02


 mean value of Nose-termostat <S>:     1.007 mean value of <T> :    79.844
 mean temperature <T/S>/<1/S>  :    79.844

    WAVPRE:  cpu time    0.4443: real time    0.4498
    FEWALD:  cpu time    0.0004: real time    0.0004
    ORTHCH:  cpu time    0.2342: real time    0.2347
     LOOP+:  cpu time   88.7726: real time   88.9890


--------------------------------------- Iteration      2(   1)  ---------------------------------------


    POTLOK:  cpu time    1.6215: real time    1.6255
    SETDIJ:  cpu time    0.0065: real time    0.0065
     EDDAV:  cpu time    2.1337: real time    2.1387
       DOS:  cpu time    0.0002: real time    0.0002
    CHARGE:  cpu time    0.1841: real time    0.1845
    MIXING:  cpu time    0.0413: real time    0.0414
    --------------------------------------------
      LOOP:  cpu time    3.9873: real time    3.9969

 eigenvalue-minimisations  :    64
 total energy-change (2. order) :-0.1535318E-01  (-0.2329104E+00)
 number of electron       8.0000000 magnetization 
 augmentation part        0.1839734 magnetization 

 Broyden mixing:
  rms(total) = 0.66187E-01    rms(broyden)= 0.66121E-01
  rms(prec ) = 0.76904E-01
  weight for this iteration     100.00

 Free energy of the ion-electron system (eV)
  ---------------------------------------------------
  alpha Z        PSCENC =         0.24454202
  Ewald energy   TEWEN  =       127.51917972
  -Hartree energ DENC   =      -283.74950811
  -exchange      EXHF   =         0.00000000
  -V(xc)+E(xc)   XCENC  =        24.72321689
  PAW double counting   =       448.77795186     -449.56638587
  entropy T*S    EENTRO =         0.01235061
  eigenvalues    EBANDS =       -89.00859066
  atomic energy  EATOM  =       197.04175453
  Solvation  Ediel_sol  =         0.00000000
  ---------------------------------------------------
  free energy    TOTEN  =       -24.00548902 eV

  energy without entropy =      -24.01783963  energy(sigma->0) =      -24.00960589


--------------------------------------------------------------------------------------------------------




--------------------------------------- Iteration      2(   2)  ---------------------------------------


    POTLOK:  cpu time    1.4293: real time    1.4327
    SETDIJ:  cpu time    0.0066: real time    0.0066
    EDDIAG:  cpu time    0.4701: real time    0.4712
  RMM-DIIS:  cpu time    1.6419: real time    1.6458
    ORTHCH:  cpu time    0.0116: real time    0.0116
       DOS:  cpu time    0.0003: real time    0.0003
    CHARGE:  cpu time    0.1962: real time    0.1967
    MIXING:  cpu time    0.0578: real time    0.0579
    --------------------------------------------
      LOOP:  cpu time    3.8138: real time    3.8228

 eigenvalue-minimisations  :    64
 total energy-change (2. order) :-0.1145847E-01  (-0.1074949E-01)
 number of electron       8.0000000 magnetization 
 augmentation part        0.1832825 magnetization 

 Broyden mixing:
  rms(total) = 0.86363E-01    rms(broyden)= 0.86352E-01
  rms(prec ) = 0.10420E+00
  weight for this iteration     100.00

 eigenvalues of (default mixing * dielectric matrix)
  average eigenvalue GAMMA=   2.3711
  8.5097  5.5541  4.6545  3.3605  3.1783  2.4008  2.3062  0.4477  1.8091  1.6436
  1.3577  1.3577  1.1260  1.0453  1.0453  0.9389  0.9723  0.9723

 Free energy of the ion-electron system (eV)
  ---------------------------------------------------
  alpha Z        PSCENC =         0.24454202
  Ewald energy   TEWEN  =       127.51917972
  -Hartree energ DENC   =      -283.23803439
  -exchange      EXHF   =         0.00000000
  -V(xc)+E(xc)   XCENC  =        24.64087899
  PAW double counting   =       425.34780290     -426.14999373
  entropy T*S    EENTRO =         0.01241555
  eigenvalues    EBANDS =       -89.43549309
  atomic energy  EATOM  =       197.04175453
  Solvation  Ediel_sol  =         0.00000000
  ---------------------------------------------------
  free energy    TOTEN  =       -24.01694749 eV

  energy without entropy =      -24.02936304  energy(sigma->0) =      -24.02108601


--------------------------------------------------------------------------------------------------------




--------------------------------------- Iteration      2(   3)  ---------------------------------------


    POTLOK:  cpu time    1.4375: real time    1.4409
    SETDIJ:  cpu time    0.0065: real time    0.0065
    EDDIAG:  cpu time    0.4903: real time    0.4915
  RMM-DIIS:  cpu time    1.5893: real time    1.5931
    ORTHCH:  cpu time    0.0116: real time    0.0116
       DOS:  cpu time    0.0002: real time    0.0002
    CHARGE:  cpu time    0.2058: real time    0.2063
    MIXING:  cpu time    0.0614: real time    0.0616
    --------------------------------------------
      LOOP:  cpu time    3.8026: real time    3.8115

 eigenvalue-minimisations  :    64
 total energy-change (2. order) : 0.1213527E-01  (-0.2110761E-02)
 number of electron       8.0000000 magnetization 
 augmentation part        0.1840536 magnetization 

 Broyden mixing:
  rms(total) = 0.43074E-01    rms(broyden)= 0.43072E-01
  rms(prec ) = 0.51035E-01
  weight for this iteration     100.00

 eigenvalues of (default mixing * dielectric matrix)
  average eigenvalue GAMMA=   2.3276
  8.5102  5.5522  4.6585  3.3570  3.1749  2.4122  2.4122  2.2179  0.4477  1.6105
  1.3667  1.3667  1.1393  1.0434  1.0434  0.9380  0.9717  0.9717  1.0298

 Free energy of the ion-electron system (eV)
  ---------------------------------------------------
  alpha Z        PSCENC =         0.24454202
  Ewald energy   TEWEN  =       127.51917972
  -Hartree energ DENC   =      -282.98994836
  -exchange      EXHF   =         0.00000000
  -V(xc)+E(xc)   XCENC  =        24.65147792
  PAW double counting   =       430.39709448     -431.18584758
  entropy T*S    EENTRO =         0.01273817
  eigenvalues    EBANDS =       -89.69580312
  atomic energy  EATOM  =       197.04175453
  Solvation  Ediel_sol  =         0.00000000
  ---------------------------------------------------
  free energy    TOTEN  =       -24.00481222 eV

  energy without entropy =      -24.01755039  energy(sigma->0) =      -24.00905828


--------------------------------------------------------------------------------------------------------




--------------------------------------- Iteration      2(   4)  ---------------------------------------


    POTLOK:  cpu time    1.4691: real time    1.4725
    SETDIJ:  cpu time    0.0065: real time    0.0066
    EDDIAG:  cpu time    0.4761: real time    0.4772
  RMM-DIIS:  cpu time    1.6321: real time    1.6360
    ORTHCH:  cpu time    0.0119: real time    0.0119
       DOS:  cpu time    0.0002: real time    0.0002
    CHARGE:  cpu time    0.1903: real time    0.1908
    MIXING:  cpu time    0.0705: real time    0.0707
    --------------------------------------------
      LOOP:  cpu time    3.8566: real time    3.8657

 eigenvalue-minimisations  :    64
 total energy-change (2. order) : 0.2740544E-03  (-0.2324599E-02)
 number of electron       8.0000000 magnetization 
 augmentation part        0.1847833 magnetization 

 Broyden mixing:
  rms(total) = 0.16830E-01    rms(broyden)= 0.16818E-01
  rms(prec ) = 0.21702E-01
  weight for this iteration     100.00

 eigenvalues of (default mixing * dielectric matrix)
  average eigenvalue GAMMA=   2.2998
  8.5122  5.5510  4.6706  3.3795  3.1045  2.3809  2.3809  2.0673  2.0673  1.6584
  0.4477  1.3610  1.3610  1.0956  1.0394  1.0394  0.9379  0.9729  0.9729  0.9946

 Free energy of the ion-electron system (eV)
  ---------------------------------------------------
  alpha Z        PSCENC =         0.24454202
[...]
  rms(prec ) = 0.91149E-03
  weight for this iteration     100.00

 eigenvalues of (default mixing * dielectric matrix)
  average eigenvalue GAMMA=   2.4013
  8.0357  5.2261  4.3911  0.4451  1.3977  1.3977  0.7315  0.7315  0.8448  0.9326
  0.9326  0.9677  0.9677  1.3134  1.3134  2.2175  2.2175  3.7189  3.6631  3.4551
  3.4551  1.7040  1.7040  3.3178  1.9192  1.9192  3.0621  3.0621  2.4474  2.4474
  2.1855  2.1855  2.7654  2.7654  2.1799  2.7712  2.6456  2.6456  2.7185  2.7185
  2.2874  2.4060  2.4060  2.5220  2.5220  2.5983  2.5983

 Free energy of the ion-electron system (eV)
  ---------------------------------------------------
  alpha Z        PSCENC =         0.24454202
  Ewald energy   TEWEN  =       125.44829124
  -Hartree energ DENC   =      -281.54988118
  -exchange      EXHF   =         0.00000000
  -V(xc)+E(xc)   XCENC  =        24.60431589
  PAW double counting   =       414.43011658     -415.20750940
  entropy T*S    EENTRO =         0.02342407
  eigenvalues    EBANDS =       -88.99889102
  atomic energy  EATOM  =       197.04175453
  Solvation  Ediel_sol  =         0.00000000
  ---------------------------------------------------
  free energy    TOTEN  =       -23.96383728 eV

  energy without entropy =      -23.98726134  energy(sigma->0) =      -23.97164530


--------------------------------------------------------------------------------------------------------




--------------------------------------- Iteration     10(  13)  ---------------------------------------


    POTLOK:  cpu time    1.6210: real time    1.6258
    SETDIJ:  cpu time    0.0115: real time    0.0115
    EDDIAG:  cpu time    0.4959: real time    0.4971
  RMM-DIIS:  cpu time    1.2574: real time    1.2604
    ORTHCH:  cpu time    0.0110: real time    0.0111
       DOS:  cpu time    0.0002: real time    0.0002
    CHARGE:  cpu time    0.1592: real time    0.1596
    MIXING:  cpu time    0.1578: real time    0.1582
    --------------------------------------------
      LOOP:  cpu time    3.7141: real time    3.7238

 eigenvalue-minimisations  :    56
 total energy-change (2. order) :-0.2282865E-05  (-0.3370174E-06)
 number of electron       8.0000001 magnetization 
 augmentation part        0.1804723 magnetization 

 Broyden mixing:
  rms(total) = 0.12908E-03    rms(broyden)= 0.12860E-03
  rms(prec ) = 0.17268E-03
  weight for this iteration     100.00

 eigenvalues of (default mixing * dielectric matrix)
  average eigenvalue GAMMA=   2.4133
  7.1602  6.4504  5.2287  0.4849  0.6306  0.6306  1.3796  1.3796  3.8133  0.8500
  0.9491  0.9491  0.9661  0.9661  2.2737  2.2737  3.6463  1.1457  1.3770  1.3770
  3.2672  3.2672  3.3080  3.3080  1.6925  1.8649  1.8649  3.1319  2.0569  2.0569
  2.7794  2.7794  2.3430  2.3430  2.1847  2.8291  2.8291  2.6940  2.6940  2.2985
  2.4077  2.4077  2.5913  2.5913  2.6127  2.6127  2.5451  2.5451

 Free energy of the ion-electron system (eV)
  ---------------------------------------------------
  alpha Z        PSCENC =         0.24454202
  Ewald energy   TEWEN  =       125.44829124
  -Hartree energ DENC   =      -281.54752792
  -exchange      EXHF   =         0.00000000
  -V(xc)+E(xc)   XCENC  =        24.60417667
  PAW double counting   =       414.40798612     -415.18535328
  entropy T*S    EENTRO =         0.02341135
  eigenvalues    EBANDS =       -89.00112029
  atomic energy  EATOM  =       197.04175453
  Solvation  Ediel_sol  =         0.00000000
  ---------------------------------------------------
  free energy    TOTEN  =       -23.96383956 eV

  energy without entropy =      -23.98725091  energy(sigma->0) =      -23.97164334


--------------------------------------------------------------------------------------------------------




--------------------------------------- Iteration     10(  14)  ---------------------------------------


    POTLOK:  cpu time    1.6525: real time    1.6564
    SETDIJ:  cpu time    0.0062: real time    0.0062
    EDDIAG:  cpu time    0.4110: real time    0.4120
  RMM-DIIS:  cpu time    1.1017: real time    1.1043
    ORTHCH:  cpu time    0.0112: real time    0.0112
       DOS:  cpu time    0.0002: real time    0.0002
    CHARGE:  cpu time    0.1889: real time    0.1893
    MIXING:  cpu time    0.1504: real time    0.1508
    --------------------------------------------
      LOOP:  cpu time    3.5221: real time    3.5305

 eigenvalue-minimisations  :    48
 total energy-change (2. order) :-0.2677823E-05  (-0.5896193E-07)
 number of electron       8.0000001 magnetization 
 augmentation part        0.1804713 magnetization 

 Broyden mixing:
  rms(total) = 0.22441E-03    rms(broyden)= 0.22440E-03
  rms(prec ) = 0.29213E-03
  weight for this iteration     100.00

 eigenvalues of (default mixing * dielectric matrix)
  average eigenvalue GAMMA=   2.3970
  7.1871  6.4714  5.2441  0.4970  0.6067  0.6067  1.4242  1.4242  3.7031  3.6360
  0.8084  0.8084  0.9298  1.0456  1.0456  1.0483  2.1807  2.1807  3.3495  3.3495
  1.3747  1.3747  1.5324  1.5324  3.3230  3.1292  3.1292  3.1235  1.8993  1.9719
  1.9719  2.7623  2.7623  2.3867  2.3867  2.2668  2.2668  2.2216  2.6685  2.6685
  2.7317  2.7317  2.4404  2.4404  2.5066  2.5066  2.6210  2.6210  2.5547

 Free energy of the ion-electron system (eV)
  ---------------------------------------------------
  alpha Z        PSCENC =         0.24454202
  Ewald energy   TEWEN  =       125.44829124
  -Hartree energ DENC   =      -281.54993437
  -exchange      EXHF   =         0.00000000
  -V(xc)+E(xc)   XCENC  =        24.60425725
  PAW double counting   =       414.40077865     -415.17818530
  entropy T*S    EENTRO =         0.02341222
  eigenvalues    EBANDS =       -88.99875847
  atomic energy  EATOM  =       197.04175453
  Solvation  Ediel_sol  =         0.00000000
  ---------------------------------------------------
  free energy    TOTEN  =       -23.96384224 eV

  energy without entropy =      -23.98725446  energy(sigma->0) =      -23.97164631


--------------------------------------------------------------------------------------------------------




--------------------------------------- Iteration     10(  15)  ---------------------------------------


    POTLOK:  cpu time    1.7113: real time    1.7153
    SETDIJ:  cpu time    0.0064: real time    0.0064
    EDDIAG:  cpu time    0.4307: real time    0.4317
  RMM-DIIS:  cpu time    1.1006: real time    1.1032
    ORTHCH:  cpu time    0.0108: real time    0.0109
       DOS:  cpu time    0.0002: real time    0.0002
    CHARGE:  cpu time    0.1513: real time    0.1517
    MIXING:  cpu time    0.1373: real time    0.1376
    --------------------------------------------
      LOOP:  cpu time    3.5486: real time    3.5570

 eigenvalue-minimisations  :    48
 total energy-change (2. order) :-0.1225290E-05  (-0.4384007E-07)
 number of electron       8.0000001 magnetization 
 augmentation part        0.1804696 magnetization 

 Broyden mixing:
  rms(total) = 0.10040E-03    rms(broyden)= 0.10037E-03
  rms(prec ) = 0.13127E-03
  weight for this iteration     100.00

 eigenvalues of (default mixing * dielectric matrix)
  average eigenvalue GAMMA=   2.4123
  6.2905  6.2905  5.1904  0.4184  1.2255  1.2255  0.6997  0.6997  0.7755  0.9311
  1.0696  1.0696  1.5062  1.5062  3.6146  1.3977  3.3484  3.3484  1.6139  2.1019
  2.1019  3.3097  3.2695  2.9697  2.9697  2.3684  2.3684  1.9097  1.9914  2.1301
  2.6552  2.6552  2.8850  2.7584  2.7584  2.8109  2.2787  2.4196  2.4196  2.4117
  2.4117  2.4559  2.5796  2.6716  2.6716

 Free energy of the ion-electron system (eV)
  ---------------------------------------------------
  alpha Z        PSCENC =         0.24454202
  Ewald energy   TEWEN  =       125.44829124
  -Hartree energ DENC   =      -281.55134856
  -exchange      EXHF   =         0.00000000
  -V(xc)+E(xc)   XCENC  =        24.60431569
  PAW double counting   =       414.39787828     -415.17530851
  entropy T*S    EENTRO =         0.02341037
  eigenvalues    EBANDS =       -88.99737852
  atomic energy  EATOM  =       197.04175453
  Solvation  Ediel_sol  =         0.00000000
  ---------------------------------------------------
  free energy    TOTEN  =       -23.96384346 eV

  energy without entropy =      -23.98725383  energy(sigma->0) =      -23.97164692


--------------------------------------------------------------------------------------------------------




--------------------------------------- Iteration     10(  16)  ---------------------------------------


    POTLOK:  cpu time    1.6148: real time    1.6600
    SETDIJ:  cpu time    0.0065: real time    0.0065
    EDDIAG:  cpu time    0.4271: real time    0.4281
  RMM-DIIS:  cpu time    1.2080: real time    1.2109
    ORTHCH:  cpu time    0.0109: real time    0.0109
       DOS:  cpu time    0.0002: real time    0.0002
    --------------------------------------------
      LOOP:  cpu time    3.2674: real time    3.3165

 eigenvalue-minimisations  :    48
 total energy-change (2. order) :-0.4370275E-06  (-0.8399811E-08)
 number of electron       8.0000001 magnetization 
 augmentation part        0.1804696 magnetization 

 Free energy of the ion-electron system (eV)
  ---------------------------------------------------
  alpha Z        PSCENC =         0.24454202
  Ewald energy   TEWEN  =       125.44829124
  -Hartree energ DENC   =      -281.55082600
  -exchange      EXHF   =         0.00000000
  -V(xc)+E(xc)   XCENC  =        24.60430876
  PAW double counting   =       414.39925838     -415.17668052
  entropy T*S    EENTRO =         0.02340887
  eigenvalues    EBANDS =       -88.99790118
  atomic energy  EATOM  =       197.04175453
  Solvation  Ediel_sol  =         0.00000000
  ---------------------------------------------------
  free energy    TOTEN  =       -23.96384390 eV

  energy without entropy =      -23.98725277  energy(sigma->0) =      -23.97164686


--------------------------------------------------------------------------------------------------------




 average (electrostatic) potential at core
  the test charge radii are     0.5201  0.6991
  (the norm of the test charge is              1.0000)
       1 -41.1493       2 -41.7584       3 -41.2877       4 -41.5135       5 -58.0376



 E-fermi :  -8.8863     XC(G=0):  -0.7111     alpha+bet : -0.2127


 k-point     1 :       0.2500    0.2500    0.2500
  band No.  band energies     occupation 
      1     -16.8056      2.00000
      2      -9.5819      2.00001
      3      -9.0655      2.02146
      4      -9.0457      1.97855
      5      -0.3375      0.00000
      6       0.5678      0.00000
      7       0.6775      0.00000
      8       0.6994      0.00000

 k-point     2 :      -0.2500    0.2500    0.2500
  band No.  band energies     occupation 
      1     -16.8056      2.00000
      2      -9.5821      2.00001
      3      -9.0655      2.02147
      4      -9.0456      1.97844
      5      -0.3370      0.00000
      6       0.5591      0.00000
      7       0.6662      0.00000
      8       0.7070      0.00000

 k-point     3 :       0.2500   -0.2500    0.2500
  band No.  band energies     occupation 
      1     -16.8056      2.00000
      2      -9.5821      2.00001
      3      -9.0655      2.02156
      4      -9.0457      1.97866
      5      -0.3364      0.00000
      6       0.5584      0.00000
      7       0.6724      0.00000
      8       0.6997      0.00000

 k-point     4 :      -0.2500   -0.2500    0.2500
  band No.  band energies     occupation 
      1     -16.8056      2.00000
      2      -9.5820      2.00001
      3      -9.0655      2.02143
      4      -9.0456      1.97839
      5      -0.3302      0.00000
      6       0.5518      0.00000
      7       0.6582      0.00000
      8       0.6808      0.00000


--------------------------------------------------------------------------------------------------------


 soft charge-density along one line, spin component           1
         0         1         2         3         4         5         6         7         8         9
 total charge-density along one line

 pseudopotential strength for first ion, spin component:           1
 -2.338  -4.027  -0.001  -0.001   0.001
 -4.027  -6.853  -0.003  -0.004   0.002
 -0.001  -0.003  -0.338   0.002  -0.001
 -0.001  -0.004   0.002  -0.337  -0.001
  0.001   0.002  -0.001  -0.001  -0.339
 total augmentation occupancy for first ion, spin component:           1
  3.835  -0.779   0.262   0.326  -0.168
 -0.779   0.169  -0.053  -0.068   0.035
  0.262  -0.053   0.024   0.020  -0.010
  0.326  -0.068   0.020   0.031  -0.012
 -0.168   0.035  -0.010  -0.012   0.012


------------------------ aborting loop because EDIFF is reached ----------------------------------------


    CHARGE:  cpu time    0.1469: real time    0.1472
    FORLOC:  cpu time    0.1051: real time    0.1053
    FORNL :  cpu time    0.7198: real time    0.7216
    STRESS:  cpu time    2.1183: real time    2.1234
    FORCOR:  cpu time    1.6845: real time    1.7442
    FORHAR:  cpu time    0.5564: real time    0.5577
    MIXING:  cpu time    0.1408: real time    0.1411
    OFIELD:  cpu time    0.0000: real time    0.0000

  FORCE on cell =-STRESS in cart. coord.  units (eV):
  Direction    XX          YY          ZZ          XY          YZ          ZX
  --------------------------------------------------------------------------------------
  Alpha Z     0.24454     0.24454     0.24454
  Ewald      48.28524    40.71796    36.44507    -2.18925     1.04761     2.17904
  Hartree    95.17867    95.45397    90.91486    -0.75663     0.96154     0.41978
  E(xc)     -27.04496   -27.06845   -27.07290    -0.01054     0.01091     0.00445
  Local    -200.76795  -195.99593  -186.99229     2.63084    -2.32486    -1.99209
  n-local   -15.22742   -16.69741   -15.82997    -0.13474    -0.43173    -0.18744
  augment     0.10780     0.12713     0.12629     0.00182     0.00306    -0.00475
  Kinetic    99.29537   100.65618   100.91970     0.42250    -0.17009    -0.17678
  Fock        0.00000     0.00000     0.00000     0.00000     0.00000     0.00000
  -------------------------------------------------------------------------------------
  Total       0.07129    -2.56201    -1.24468    -0.03600    -0.90356     0.24220
  in kB       0.11530    -4.14362    -2.01306    -0.05822    -1.46135     0.39172
  external pressure =       -2.01 kB  Pullay stress =        0.00 kB

  kinetic pressure (ideal gas correction) =      0.11 kB
  total pressure  =     -1.90 kB
  Total+kin.     0.187      -3.915      -1.972      -0.043      -1.474       0.431

 VOLUME and BASIS-vectors are now :
 -----------------------------------------------------------------------------
  energy-cutoff  :      400.00
  volume of cell :      990.63
      direct lattice vectors                 reciprocal lattice vectors
     9.929811297  0.000000000  0.000000000     0.100706848  0.001438215 -0.001656307
    -0.140269693  9.821978950  0.000000000     0.000000000  0.101812476 -0.002420667
     0.163603915  0.241493717 10.157146547     0.000000000 -0.000000000  0.098452847

  length of vectors
     9.929811297  9.822980510 10.161334137     0.100730736  0.101841249  0.098452847


 FORCES acting on ions
    electron-ion (+dipol)            ewald-force                    non-local-force                 convergence-correction
 -----------------------------------------------------------------------------------------------
   -.209E+02 0.264E+02 0.383E+02   0.223E+02 -.284E+02 -.412E+02   -.204E+01 0.302E+01 0.377E+01   -.243E-03 0.130E-03 0.259E-03
   0.533E+02 -.820E+00 0.286E+01   -.598E+02 0.833E+00 -.321E+01   0.543E+01 -.301E+00 0.791E+00   0.364E-03 -.169E-04 -.644E-04
   -.182E+02 -.480E+02 0.167E+01   0.197E+02 0.520E+02 -.184E+01   -.248E+01 -.585E+01 0.927E-01   -.179E-03 -.326E-03 0.642E-04
   -.177E+02 0.209E+02 -.447E+02   0.194E+02 -.230E+02 0.493E+02   -.174E+01 0.196E+01 -.438E+01   -.983E-04 0.175E-03 -.328E-03
   0.220E+01 0.125E+01 0.247E+01   -.163E+01 -.141E+01 -.309E+01   0.106E+01 0.162E+01 -.906E+00   -.780E-03 0.511E-04 -.421E-03
 -----------------------------------------------------------------------------------------------
   -.135E+01 -.242E+00 0.547E+00   0.000E+00 0.711E-14 0.711E-14   0.234E+00 0.447E+00 -.626E+00   -.936E-03 0.129E-04 -.490E-03


 POSITION                                       TOTAL-FORCE (eV/Angst)
 -----------------------------------------------------------------------------------
      5.46528      4.10452      3.67672        -0.629677      1.077806      0.861083
      3.91773      4.71052      4.46970        -1.023631     -0.288292      0.447611
      5.39794      5.74168      4.49373        -1.003818     -1.858208     -0.073190
      5.37217      4.25697      5.46476        -0.095718     -0.191672      0.208594
      4.99191      4.69136      4.52651         1.632350      1.465458     -1.523854
 -----------------------------------------------------------------------------------
    total drift:                               -1.120494      0.205093     -0.079755


--------------------------------------------------------------------------------------------------------



  FREE ENERGIE OF THE ION-ELECTRON SYSTEM (eV)
  ---------------------------------------------------
  free  energy   TOTEN  =       -23.96384390 eV

  energy  without entropy=      -23.98725277  energy(sigma->0) =      -23.97164686

 d Force =-0.3436782E-01[-0.164E+00, 0.953E-01]  d Energy =-0.1724413E-01-0.171E-01
 d Force = 0.4288011E+01[ 0.420E+01, 0.437E+01]  d Ewald  = 0.4285109E+01 0.290E-02


--------------------------------------------------------------------------------------------------------


    POTLOK:  cpu time    1.5585: real time    1.5623


--------------------------------------------------------------------------------------------------------


           RANDOM_SEED =         578496015               30                0
   IONSTEP:  cpu time    0.0001: real time    0.0001

  ENERGY OF THE ELECTRON-ION-THERMOSTAT SYSTEM (eV)
  ---------------------------------------------------
% ion-electron   TOTEN  =       -23.963844  see above
  kinetic energy EKIN   =         0.057816
  kin. lattice  EKIN_LAT=         0.000000  (temperature  111.82 K)
  nose potential ES     =         0.023368
  nose kinetic   EPS    =         0.035355
  ---------------------------------------------------
  total energy   ETOTAL =       -23.847304 eV

  maximum distance moved by ions :      0.52E-02


 mean value of Nose-termostat <S>:     1.801 mean value of <T> :   111.821
 mean temperature <T/S>/<1/S>  :   111.821

    WAVPRE:  cpu time    0.4704: real time    0.4791
    FEWALD:  cpu time    0.0004: real time    0.0004
    ORTHCH:  cpu time    0.2785: real time    0.3182
 Prediction of Wavefunctions ALPHA=-0.178 BETA= 0.499
    POTLOK:  cpu time    1.6205: real time    1.6244
    EDDIAG:  cpu time    0.4067: real time    0.4077
     LOOP+:  cpu time   76.1969: real time   76.6893
    4ORBIT:  cpu time    0.0000: real time    0.0000

 total amount of memory used by VASP MPI-rank0   298997. kBytes
=======================================================================

   base      :      30000. kBytes
   nonlr-proj:        154. kBytes
   fftplans  :      86584. kBytes
   grid      :     154542. kBytes
   one-center:         15. kBytes
   wavefun   :      27702. kBytes

  
  
 General timing and accounting informations for this job:
 ========================================================
  
                  Total CPU time used (sec):      743.188
                            User time (sec):      729.442
                          System time (sec):       13.747
                         Elapsed time (sec):      747.869
  
                   Maximum memory used (kb):      467180.
                   Average memory used (kb):           0.
  
                          Minor page faults:      2163758
                          Major page faults:            0
                 Voluntary context switches:          402
