<?xml version="1.0" encoding="ISO-8859-1"?>
<modeling>
 <generator>
  <i name="program" type="string">vasp </i>
  <i name="version" type="string">5.4.4.18Apr17-6-g9f103f2a35  </i>
  <i name="subversion" type="string">(build Jul 12 2018 13:43:46) complex            parallel </i>
  <i name="platform" type="string">LinuxGNU </i>
  <i name="date" type="string">2019 06 22 </i>
  <i name="time" type="string">02:17:35 </i>
 </generator>
 <incar>
  <i type="int" name="ISTART">     0</i>
  <i type="string" name="PREC">a</i>
  <i type="string" name="ALGO">fast</i>
  <i type="int" name="MAXMIX">    50</i>
  <i type="int" name="ICHARG">     2</i>
  <i type="int" name="IBRION">     0</i>
  <i name="EDIFF">      0.00000100</i>
  <i type="int" name="NSW">    10</i>
  <i type="int" name="ISIF">     2</i>
  <i type="int" name="ISYM">     0</i>
  <i type="int" name="NBLOCK">     1</i>
  <i type="int" name="KBLOCK">   100</i>
  <i name="ENCUT">    400.00000000</i>
  <i name="POTIM">      2.00000000</i>
  <i name="TEBEG">     50.00000000</i>
  <i name="TEEND">     50.00000000</i>
  <i name="SMASS">      0.00000000</i>
  <i type="logical" name="LREAL"> T  </i>
  <i type="int" name="ISMEAR">     1</i>
  <i name="SIGMA">      0.20000000</i>
  <i name="KSPACING">      0.50000000</i>
  <i type="logical" name="KGAMMA"> F  </i>
  <i name="PSTRESS">      0.00000000</i>
  <i type="logical" name="LWAVE"> F  </i>
  <i type="logical" name="LCHARG"> F  </i>
  <v type="int" name="KPOINT_BSE">    -1     0     0     0</v>
 </incar>
 <structure name="primitive_cell" >
  <crystal>
   <varray name="basis" >
    <v>       9.92981130       0.00000000       0.00000000 </v>
    <v>      -0.14026969       9.82197895       0.00000000 </v>
    <v>       0.16360391       0.24149372      10.15714655 </v>
   </varray>
   <i name="volume">    990.63054063 </i>
   <varray name="rec_basis" >
    <v>       0.10070685       0.00143822      -0.00165631 </v>
    <v>       0.00000000       0.10181248      -0.00242067 </v>
    <v>       0.00000000      -0.00000000       0.09845285 </v>
   </varray>
  </crystal>
  <varray name="positions" >
   <v>      -0.46154843       0.40655550       0.36088223 </v>
   <v>      -0.49686959       0.46685049       0.44575547 </v>
   <v>      -0.44793329      -0.43452362       0.44285607 </v>
   <v>       0.39404241       0.48108560       0.43828634 </v>
   <v>      -0.47187745       0.41649496      -0.46083892 </v>
  </varray>
 </structure>
 <varray name="primitive_index" >
  <v type="int" >        1 </v>
  <v type="int" >        5 </v>
  <v type="int" >        3 </v>
  <v type="int" >        2 </v>
  <v type="int" >        4 </v>
 </varray>
 <kpoints>
  <generation param="Monkhorst-Pack">
   <v type="int" name="divisions">       2        2        2 </v>
   <v name="usershift">      0.00000000       0.00000000       0.00000000 </v>
   <v name="genvec1">      0.50000000       0.00000000       0.00000000 </v>
   <v name="genvec2">      0.00000000       0.50000000       0.00000000 </v>
   <v name="genvec3">      0.00000000       0.00000000       0.50000000 </v>
   <v name="shift">      0.50000000       0.50000000       0.50000000 </v>
  </generation>
  <varray name="kpointlist" >
   <v>       0.25000000       0.25000000       0.25000000 </v>
   <v>      -0.25000000       0.25000000       0.25000000 </v>
   <v>       0.25000000      -0.25000000       0.25000000 </v>
   <v>      -0.25000000      -0.25000000       0.25000000 </v>
  </varray>
  <varray name="weights" >
   <v>       0.25000000 </v>
   <v>       0.25000000 </v>
   <v>       0.25000000 </v>
   <v>       0.25000000 </v>
  </varray>
 </kpoints>
 <parameters>
  <separator name="general" >
   <i type="string" name="SYSTEM">unknown system</i>
   <i type="logical" name="LCOMPAT"> F  </i>
  </separator>
  <separator name="electronic" >
   <i type="string" name="PREC">a</i>
   <i name="ENMAX">    400.00000000</i>
   <i name="ENAUG">    644.87300000</i>
   <i name="EDIFF">      0.00000100</i>
   <i type="int" name="IALGO">    68</i>
   <i type="int" name="IWAVPR">    12</i>
   <i type="int" name="NBANDS">     8</i>
   <i name="NELECT">      8.00000000</i>
   <i type="int" name="TURBO">     0</i>
   <i type="int" name="IRESTART">     0</i>
   <i type="int" name="NREBOOT">     0</i>
   <i type="int" name="NMIN">     0</i>
   <i name="EREF">      0.00000000</i>
   <separator name="electronic smearing" >
    <i type="int" name="ISMEAR">     1</i>
    <i name="SIGMA">      0.20000000</i>
    <i name="KSPACING">      0.50000000</i>
    <i type="logical" name="KGAMMA"> F  </i>
   </separator>
   <separator name="electronic projectors" >
    <i type="logical" name="LREAL"> T  </i>
    <v name="ROPT">      0.00000000      0.00000000</v>
    <i type="int" name="LMAXPAW">  -100</i>
    <i type="int" name="LMAXMIX">     2</i>
    <i type="logical" name="NLSPLINE"> F  </i>
   </separator>
   <separator name="electronic startup" >
    <i type="int" name="ISTART">     0</i>
    <i type="int" name="ICHARG">     2</i>
    <i type="int" name="INIWAV">     1</i>
   </separator>
   <separator name="electronic spin" >
    <i type="int" name="ISPIN">     1</i>
    <i type="logical" name="LNONCOLLINEAR"> F  </i>
    <v name="MAGMOM">      1.00000000      1.00000000      1.00000000      1.00000000      1.00000000</v>
    <i name="NUPDOWN">     -1.00000000</i>
    <i type="logical" name="LSORBIT"> F  </i>
    <v name="SAXIS">      0.00000000      0.00000000      1.00000000</v>
    <i type="logical" name="LSPIRAL"> F  </i>
    <v name="QSPIRAL">      0.00000000      0.00000000      0.00000000</v>
    <i type="logical" name="LZEROZ"> F  </i>
   </separator>
   <separator name="electronic exchange-correlation" >
    <i type="logical" name="LASPH"> F  </i>
    <i type="logical" name="LMETAGGA"> F  </i>
   </separator>
   <separator name="electronic convergence" >
    <i type="int" name="NELM">    60</i>
    <i type="int" name="NELMDL">    -5</i>
    <i type="int" name="NELMIN">     2</i>
    <i name="ENINI">    400.00000000</i>
    <separator name="electronic convergence detail" >
     <i type="logical" name="LDIAG"> T  </i>
     <i type="logical" name="LSUBROT"> F  </i>
     <i name="WEIMIN">      0.00100000</i>
     <i name="EBREAK">      0.00000003</i>
     <i name="DEPER">      0.30000000</i>
     <i type="int" name="NRMM">     4</i>
     <i name="TIME">      0.40000000</i>
    </separator>
   </separator>
   <separator name="electronic mixer" >
    <i name="AMIX">      0.40000000</i>
    <i name="BMIX">      1.00000000</i>
    <i name="AMIN">      0.10000000</i>
    <i name="AMIX_MAG">      1.60000000</i>
    <i name="BMIX_MAG">      1.00000000</i>
    <separator name="electronic mixer details" >
     <i type="int" name="IMIX">     4</i>
     <i type="logical" name="MIXFIRST"> F  </i>
     <i type="int" name="MAXMIX">    50</i>
     <i name="WC">    100.00000000</i>
     <i type="int" name="INIMIX">     1</i>
     <i type="int" name="MIXPRE">     1</i>
     <i type="int" name="MREMOVE">     5</i>
    </separator>
   </separator>
   <separator name="electronic dipolcorrection" >
    <i type="logical" name="LDIPOL"> F  </i>
    <i type="logical" name="LMONO"> F  </i>
    <i type="int" name="IDIPOL">     0</i>
    <i name="EPSILON">      1.00000000</i>
    <v name="DIPOL">   -100.00000000   -100.00000000   -100.00000000</v>
    <i name="EFIELD">      0.00000000</i>
   </separator>
  </separator>
  <separator name="grids" >
   <i type="int" name="NGX">    70</i>
   <i type="int" name="NGY">    64</i>
   <i type="int" name="NGZ">    70</i>
   <i type="int" name="NGXF">   140</i>
   <i type="int" name="NGYF">   128</i>
   <i type="int" name="NGZF">   140</i>
   <i type="logical" name="ADDGRID"> F  </i>
  </separator>
  <separator name="ionic" >
   <i type="int" name="NSW">    10</i>
   <i type="int" name="IBRION">     0</i>
   <i type="int" name="MDALGO">     0</i>
   <i type="int" name="ISIF">     2</i>
   <i name="PSTRESS">      0.00000000</i>
   <i name="EDIFFG">      0.00001000</i>
   <i type="int" name="NFREE">     0</i>
   <i name="POTIM">      2.00000000</i>
   <i name="SMASS">      0.00164042</i>
   <i name="SCALEE">      1.00000000</i>
  </separator>
  <separator name="ionic md" >
   <i name="TEBEG">     50.00000000</i>
   <i name="TEEND">     50.00000000</i>
   <i type="int" name="NBLOCK">     1</i>
   <i type="int" name="KBLOCK">     1</i>
   <i type="int" name="NPACO">   256</i>
   <i name="APACO">     16.00000000</i>
  </separator>
  <separator name="symmetry" >
   <i type="int" name="ISYM">     0</i>
   <i name="SYMPREC">      0.00001000</i>
  </separator>
  <separator name="dos" >
   <i type="int" name="LORBIT">     0</i>
   <v name="RWIGS">     -1.00000000     -1.00000000</v>
   <i type="int" name="NEDOS">   301</i>
   <i name="EMIN">     10.00000000</i>
   <i name="EMAX">    -10.00000000</i>
   <i name="EFERMI">      0.00000000</i>
  </separator>
  <separator name="writing" >
   <i type="int" name="NWRITE">     2</i>
   <i type="logical" name="LWAVE"> F  </i>
   <i type="logical" name="LDOWNSAMPLE"> F  </i>
   <i type="logical" name="LCHARG"> F  </i>
   <i type="logical" name="LPARD"> F  </i>
   <i type="logical" name="LVTOT"> F  </i>
   <i type="logical" name="LVHAR"> F  </i>
   <i type="logical" name="LELF"> F  </i>
   <i type="logical" name="LOPTICS"> F  </i>
   <v name="STM">      0.00000000      0.00000000      0.00000000      0.00000000      0.00000000      0.00000000      0.00000000</v>
  </separator>
  <separator name="performance" >
   <i type="int" name="NPAR">     1</i>
   <i type="int" name="NSIM">     4</i>
   <i type="int" name="NBLK">    -1</i>
   <i type="logical" name="LPLANE"> T  </i>
   <i type="logical" name="LSCALAPACK"> T  </i>
   <i type="logical" name="LSCAAWARE"> F  </i>
   <i type="logical" name="LSCALU"> F  </i>
   <i type="logical" name="LASYNC"> F  </i>
   <i type="logical" name="LORBITALREAL"> F  </i>
  </separator>
  <separator name="miscellaneous" >
   <i type="int" name="IDIOT">     3</i>
   <i type="int" name="ISPECIAL">     0</i>
   <i type="logical" name="LMUSIC"> F  </i>
   <v name="POMASS">      1.00000000     12.01100000</v>
   <v name="DARWINR">      0.00000000      0.00000000</v>
   <v name="DARWINV">      1.00000000      1.00000000</v>
   <i type="logical" name="LCORR"> T  </i>
  </separator>
  <i type="logical" name="GGA_COMPAT"> T  </i>
  <i type="logical" name="LBERRY"> F  </i>
  <i type="int" name="ICORELEVEL">     0</i>
  <i type="logical" name="LDAU"> F  </i>
  <i type="int" name="I_CONSTRAINED_M">     0</i>
  <separator name="electronic exchange-correlation" >
   <i type="string" name="GGA">--</i>
   <i type="int" name="VOSKOWN">     0</i>
   <i type="logical" name="LHFCALC"> F  </i>
   <i type="string" name="PRECFOCK"></i>
   <i type="logical" name="LSYMGRAD"> F  </i>
   <i type="logical" name="LHFONE"> F  </i>
   <i type="logical" name="LRHFCALC"> F  </i>
   <i type="logical" name="LTHOMAS"> F  </i>
   <i type="logical" name="LMODELHF"> F  </i>
   <i name="ENCUT4O">     -1.00000000</i>
   <i type="int" name="EXXOEP">     0</i>
   <i type="int" name="FOURORBIT">     0</i>
   <i name="AEXX">      0.00000000</i>
   <i name="HFALPHA">      0.00000000</i>
   <i name="MCALPHA">      0.00000000</i>
   <i name="ALDAX">      1.00000000</i>
   <i name="AGGAX">      1.00000000</i>
   <i name="ALDAC">      1.00000000</i>
   <i name="AGGAC">      1.00000000</i>
   <i type="int" name="NKREDX">     1</i>
   <i type="int" name="NKREDY">     1</i>
   <i type="int" name="NKREDZ">     1</i>
   <i type="logical" name="SHIFTRED"> F  </i>
   <i type="logical" name="ODDONLY"> F  </i>
   <i type="logical" name="EVENONLY"> F  </i>
   <i type="int" name="LMAXFOCK">     0</i>
   <i type="int" name="NMAXFOCKAE">     0</i>
   <i type="logical" name="LFOCKAEDFT"> F  </i>
   <i name="HFSCREEN">      0.00000000</i>
   <i name="HFSCREENC">      0.00000000</i>
   <i type="int" name="NBANDSGWLOW">     0</i>
  </separator>
  <separator name="vdW DFT" >
   <i type="logical" name="LUSE_VDW"> F  </i>
   <i name="Zab_VDW">     -0.84910000</i>
   <i name="PARAM1">      0.12340000</i>
   <i name="PARAM2">      1.00000000</i>
   <i name="PARAM3">      0.00000000</i>
  </separator>
  <separator name="model GW" >
   <i type="int" name="MODEL_GW">     0</i>
   <i name="MODEL_EPS0">    118.87566488</i>
   <i name="MODEL_ALPHA">      1.00000000</i>
  </separator>
  <separator name="linear response parameters" >
   <i type="logical" name="LEPSILON"> F  </i>
   <i type="logical" name="LRPA"> F  </i>
   <i type="logical" name="LNABLA"> F  </i>
   <i type="logical" name="LVEL"> F  </i>
   <i type="int" name="KINTER">     0</i>
   <i name="CSHIFT">      0.10000000</i>
   <i name="OMEGAMAX">     -1.00000000</i>
   <i name="DEG_THRESHOLD">      0.00200000</i>
   <i name="RTIME">     -0.10000000</i>
   <i name="WPLASMAI">      0.00000000</i>
   <v name="DFIELD">      0.00000000      0.00000000      0.00000000</v>
   <v name="WPLASMA">      0.00000000      0.00000000      0.00000000      0.00000000      0.00000000      0.00000000      0.00000000      0.00000000      0.00000000</v>
  </separator>
  <separator name="orbital magnetization" >
   <i type="logical" name="NUCIND"> F  </i>
   <v name="MAGPOS">      0.00000000      0.00000000      0.00000000</v>
   <i type="logical" name="LNICSALL"> T  </i>
   <i type="logical" name="ORBITALMAG"> F  </i>
   <i type="logical" name="LMAGBLOCH"> F  </i>
   <i type="logical" name="LCHIMAG"> F  </i>
   <i type="logical" name="LGAUGE"> T  </i>
   <i type="int" name="MAGATOM">     0</i>
   <v name="MAGDIPOL">      0.00000000      0.00000000      0.00000000</v>
   <v name="AVECCONST">      0.00000000      0.00000000      0.00000000</v>
  </separator>
  <separator name="response functions" >
   <i type="logical" name="LADDER"> F  </i>
   <i type="logical" name="LRPAFORCE"> F  </i>
   <i type="logical" name="LFXC"> F  </i>
   <i type="logical" name="LHARTREE"> T  </i>
   <i type="int" name="IBSE">     0</i>
   <v type="int" name="KPOINT">    -1     0     0     0</v>
   <i type="logical" name="LTCTE"> F  </i>
   <i type="logical" name="LTETE"> F  </i>
   <i type="logical" name="LTRIPLET"> F  </i>
   <i type="logical" name="LFXCEPS"> F  </i>
   <i type="logical" name="LFXHEG"> F  </i>
   <i type="int" name="NATURALO">     2</i>
   <i type="logical" name="L2ORDER"> F  </i>
   <i type="logical" name="LMP2LT"> F  </i>
   <i type="logical" name="LUSEW"> F  </i>
   <i name="ENCUTGW">     -2.00000000</i>
   <i name="ENCUTGWSOFT">     -2.00000000</i>
   <i name="ENCUTLF">     -1.00000000</i>
   <i type="int" name="LMAXMP2">    -1</i>
   <i name="SCISSOR">      0.00000000</i>
   <i type="int" name="NOMEGA">     0</i>
   <i type="int" name="NOMEGAR">     0</i>
   <i type="int" name="NBANDSGW">    -1</i>
   <i type="int" name="NBANDSO">    -1</i>
   <i type="int" name="NBANDSV">    -1</i>
   <i type="int" name="NELM">     1</i>
   <i type="int" name="NELMHF">     1</i>
   <i type="int" name="DIM">     3</i>
   <i type="int" name="ANTIRES">     0</i>
   <i name="OMEGAMAX">    -30.00000000</i>
   <i name="OMEGAMIN">    -30.00000000</i>
   <i name="OMEGATL">   -200.00000000</i>
   <i type="int" name="OMEGAGRID">   140</i>
   <i name="CSHIFT">     -0.10000000</i>
   <i type="logical" name="SELFENERGY"> F  </i>
   <i type="logical" name="LSPECTRAL"> F  </i>
   <i type="logical" name="LSPECTRALGW"> F  </i>
   <i type="logical" name="LSINGLES"> F  </i>
   <i type="logical" name="LFERMIGW"> F  </i>
   <i type="logical" name="ODDONLYGW"> F  </i>
   <i type="logical" name="EVENONLYGW"> F  </i>
   <i type="int" name="NKREDLFX">     1</i>
   <i type="int" name="NKREDLFY">     1</i>
   <i type="int" name="NKREDLFZ">     1</i>
   <i type="int" name="MAXMEM">  2800</i>
   <i type="int" name="TELESCOPE">     0</i>
   <i type="int" name="TAUPAR">     1</i>
   <i type="int" name="OMEGAPAR">    -1</i>
   <i name="LAMBDA">      1.00000000</i>
  </separator>
  <separator name="External order field" >
   <i name="OFIELD_KAPPA">      0.00000000</i>
   <v name="OFIELD_K">      0.00000000      0.00000000      0.00000000</v>
   <i name="OFIELD_Q6_NEAR">      0.00000000</i>
   <i name="OFIELD_Q6_FAR">      0.00000000</i>
   <i name="OFIELD_A">      0.00000000</i>
  </separator>
 </parameters>
 <atominfo>
  <atoms>       5 </atoms>
  <types>       2 </types>
  <array name="atoms" >
   <dimension dim="1">ion</dimension>
   <field type="string">element</field>
   <field type="int">atomtype</field>
   <set>
    <rc><c>H </c><c>   1</c></rc>
    <rc><c>H </c><c>   1</c></rc>
    <rc><c>H </c><c>   1</c></rc>
    <rc><c>H </c><c>   1</c></rc>
    <rc><c>C </c><c>   2</c></rc>
   </set>
  </array>
  <array name="atomtypes" >
   <dimension dim="1">type</dimension>
   <field type="int">atomspertype</field>
   <field type="string">element</field>
   <field>mass</field>
   <field>valence</field>
   <field type="string">pseudopotential</field>
   <set>
    <rc><c>   4</c><c>H </c><c>      1.00000000</c><c>      1.00000000</c><c>  PAW_PBE H 15Jun2001                   </c></rc>
    <rc><c>   1</c><c>C </c><c>     12.01100000</c><c>      4.00000000</c><c>  PAW_PBE C 08Apr2002                   </c></rc>
   </set>
  </array>
 </atominfo>
 <structure name="initialpos" >
  <crystal>
   <varray name="basis" >
    <v>       9.92981130       0.00000000       0.00000000 </v>
    <v>      -0.14026969       9.82197895       0.00000000 </v>
    <v>       0.16360391       0.24149372      10.15714655 </v>
   </varray>
   <i name="volume">    990.63054063 </i>
   <varray name="rec_basis" >
    <v>       0.10070685       0.00143822      -0.00165631 </v>
    <v>       0.00000000       0.10181248      -0.00242067 </v>
    <v>       0.00000000      -0.00000000       0.09845285 </v>
   </varray>
  </crystal>
  <varray name="positions" >
   <v>       0.53845157       0.40655550       0.36088223 </v>
   <v>       0.39404241       0.48108560       0.43828634 </v>
   <v>       0.55206671       0.56547638       0.44285607 </v>
   <v>       0.52812255       0.41649496       0.53916108 </v>
   <v>       0.50313041       0.46685049       0.44575547 </v>
  </varray>
  <varray name="velocities" >
   <v>      -0.00097788       0.00007524      -0.00021149 </v>
   <v>       0.00105369       0.00002612      -0.00023157 </v>
   <v>      -0.00277058       0.00065085       0.00105976 </v>
   <v>       0.00001756       0.00021589       0.00261432 </v>
   <v>       0.00022290      -0.00008060      -0.00026901 </v>
  </varray>
 </structure>
 <calculation>
  <scstep>
   <time name="dav">    3.04    3.04</time>
   <time name="total">    4.73    4.74</time>
   <energy>
    <i name="alphaZ">      0.24454202 </i>
    <i name="ewald">    128.74321082 </i>
    <i name="hartreedc">   -243.82393887 </i>
    <i name="XCdc">     22.01906305 </i>
    <i name="pawpsdc">    117.05815612 </i>
    <i name="pawaedc">   -117.66307307 </i>
    <i name="eentropy">      0.00305853 </i>
    <i name="bandstr">    -89.06062800 </i>
    <i name="atom">    197.04175453 </i>
    <i name="e_fr_energy">     14.56214513 </i>
    <i name="e_wo_entrp">     14.55908660 </i>
    <i name="e_0_energy">     14.56112562 </i>
   </energy>
  </scstep>
  <scstep>
   <time name="dav">    2.18    2.19</time>
   <time name="total">    2.18    2.19</time>
   <energy>
    <i name="e_fr_energy">    -22.81479199 </i>
    <i name="e_wo_entrp">    -22.81998483 </i>
    <i name="e_0_energy">    -22.81652293 </i>
   </energy>
  </scstep>
  <scstep>
   <time name="dav">    2.18    2.18</time>
   <time name="total">    2.18    2.18</time>
   <energy>
    <i name="e_fr_energy">    -27.36922561 </i>
    <i name="e_wo_entrp">    -27.39867715 </i>
    <i name="e_0_energy">    -27.37904279 </i>
   </energy>
  </scstep>
  <scstep>
   <time name="dav">    3.87    3.88</time>
   <time name="total">    3.87    3.88</time>
   <energy>
    <i name="e_fr_energy">    -27.55517214 </i>
    <i name="e_wo_entrp">    -27.58402738 </i>
    <i name="e_0_energy">    -27.56479056 </i>
   </energy>
  </scstep>
  <scstep>
   <time name="dav">    2.93    2.93</time>
   <time name="total">    3.18    3.18</time>
   <energy>
    <i name="e_fr_energy">    -27.55523122 </i>
    <i name="e_wo_entrp">    -27.58408620 </i>
    <i name="e_0_energy">    -27.56484955 </i>
   </energy>
  </scstep>
  <scstep>
   <time name="diag">    0.45    0.46</time>
   <time name="diis">    1.58    1.59</time>
   <time name="orth">    0.01    0.01</time>
   <time name="total">    4.00    4.01</time>
   <energy>
    <i name="e_fr_energy">    -24.63161689 </i>
    <i name="e_wo_entrp">    -24.66598655 </i>
    <i name="e_0_energy">    -24.64307344 </i>
   </energy>
  </scstep>
  <scstep>
   <time name="diag">    0.49    0.49</time>
   <time name="diis">    1.56    1.56</time>
   <time name="orth">    0.01    0.01</time>
   <time name="total">    3.98    3.99</time>
   <energy>
    <i name="e_fr_energy">    -24.13547720 </i>
    <i name="e_wo_entrp">    -24.17041154 </i>
    <i name="e_0_energy">    -24.14712198 </i>
   </energy>
  </scstep>
  <scstep>
   <time name="diag">    0.51    0.51</time>
   <time name="diis">    1.55    1.55</time>
   <time name="orth">    0.01    0.01</time>
   <time name="total">    4.01    4.02</time>
   <energy>
    <i name="e_fr_energy">    -23.98943595 </i>
    <i name="e_wo_entrp">    -24.02558225 </i>
    <i name="e_0_energy">    -24.00148472 </i>
   </energy>
  </scstep>
  <scstep>
   <time name="diag">    0.50    0.50</time>
   <time name="diis">    1.55    1.55</time>
   <time name="orth">    0.01    0.01</time>
   <time name="total">    4.01    4.02</time>
   <energy>
    <i name="e_fr_energy">    -23.98309511 </i>
    <i name="e_wo_entrp">    -24.01961525 </i>
    <i name="e_0_energy">    -23.99526849 </i>
   </energy>
  </scstep>
  <scstep>
   <time name="diag">    0.51    0.51</time>
   <time name="diis">    1.52    1.53</time>
   <time name="orth">    0.01    0.01</time>
   <time name="total">    4.00    4.01</time>
   <energy>
    <i name="e_fr_energy">    -23.98216259 </i>
    <i name="e_wo_entrp">    -24.01857296 </i>
    <i name="e_0_energy">    -23.99429938 </i>
   </energy>
  </scstep>
  <scstep>
   <time name="diag">    0.51    0.51</time>
   <time name="diis">    1.56    1.57</time>
   <time name="orth">    0.01    0.01</time>
   <time name="total">    3.93    3.94</time>
   <energy>
    <i name="e_fr_energy">    -23.97605757 </i>
    <i name="e_wo_entrp">    -24.01255010 </i>
    <i name="e_0_energy">    -23.98822175 </i>
   </energy>
  </scstep>
  <scstep>
   <time name="diag">    0.51    0.51</time>
   <time name="diis">    1.56    1.57</time>
   <time name="orth">    0.01    0.01</time>
   <time name="total">    3.96    3.97</time>
   <energy>
    <i name="e_fr_energy">    -23.97817723 </i>
    <i name="e_wo_entrp">    -24.01471415 </i>
    <i name="e_0_energy">    -23.99035620 </i>
   </energy>
  </scstep>
  <scstep>
   <time name="diag">    0.50    0.50</time>
   <time name="diis">    1.60    1.61</time>
   <time name="orth">    0.01    0.01</time>
   <time name="total">    3.88    3.89</time>
   <energy>
    <i name="e_fr_energy">    -23.98614962 </i>
    <i name="e_wo_entrp">    -24.02260789 </i>
    <i name="e_0_energy">    -23.99830238 </i>
   </energy>
  </scstep>
  <scstep>
   <time name="diag">    0.48    0.48</time>
   <time name="diis">    1.62    1.63</time>
   <time name="orth">    0.01    0.01</time>
   <time name="total">    3.88    3.89</time>
   <energy>
    <i name="e_fr_energy">    -23.98718835 </i>
    <i name="e_wo_entrp">    -24.02364557 </i>
    <i name="e_0_energy">    -23.99934076 </i>
   </energy>
  </scstep>
  <scstep>
   <time name="diag">    0.48    0.48</time>
   <time name="diis">    1.65    1.66</time>
   <time name="orth">    0.01    0.01</time>
   <time name="total">    3.89    3.90</time>
   <energy>
    <i name="e_fr_energy">    -23.98958349 </i>
    <i name="e_wo_entrp">    -24.02607242 </i>
    <i name="e_0_energy">    -24.00174647 </i>
   </energy>
  </scstep>
  <scstep>
   <time name="diag">    0.48    0.48</time>
   <time name="diis">    1.66    1.66</time>
   <time name="orth">    0.01    0.01</time>
   <time name="total">    3.87    3.88</time>
   <energy>
    <i name="e_fr_energy">    -23.98986377 </i>
    <i name="e_wo_entrp">    -24.02633676 </i>
    <i name="e_0_energy">    -24.00202144 </i>
   </energy>
  </scstep>
  <scstep>
   <time name="diag">    0.48    0.48</time>
   <time name="diis">    1.64    1.65</time>
   <time name="orth">    0.01    0.01</time>
   <time name="total">    3.89    3.89</time>
   <energy>
    <i name="e_fr_energy">    -23.99007319 </i>
    <i name="e_wo_entrp">    -24.02653863 </i>
    <i name="e_0_energy">    -24.00222834 </i>
   </energy>
  </scstep>
  <scstep>
   <time name="diag">    0.47    0.48</time>
   <time name="diis">    1.64    1.64</time>
   <time name="orth">    0.01    0.01</time>
   <time name="total">    3.92    3.93</time>
   <energy>
    <i name="e_fr_energy">    -23.99011738 </i>
    <i name="e_wo_entrp">    -24.02658933 </i>
    <i name="e_0_energy">    -24.00227470 </i>
   </energy>
  </scstep>
  <scstep>
   <time name="diag">    0.50    0.50</time>
   <time name="diis">    1.27    1.27</time>
   <time name="orth">    0.01    0.01</time>
   <time name="total">    3.58    3.59</time>
   <energy>
    <i name="e_fr_energy">    -23.99013149 </i>
    <i name="e_wo_entrp">    -24.02660256 </i>
    <i name="e_0_energy">    -24.00228851 </i>
   </energy>
  </scstep>
  <scstep>
   <time name="diag">    0.48    0.49</time>
   <time name="diis">    1.19    1.20</time>
   <time name="orth">    0.01    0.01</time>
   <time name="total">    3.54    3.55</time>
   <energy>
    <i name="e_fr_energy">    -23.99013450 </i>
    <i name="e_wo_entrp">    -24.02660594 </i>
    <i name="e_0_energy">    -24.00229165 </i>
   </energy>
  </scstep>
  <scstep>
   <time name="diag">    0.47    0.47</time>
   <time name="diis">    1.19    1.20</time>
   <time name="orth">    0.01    0.01</time>
   <time name="total">    3.54    3.55</time>
   <energy>
    <i name="e_fr_energy">    -23.99013584 </i>
    <i name="e_wo_entrp">    -24.02660688 </i>
    <i name="e_0_energy">    -24.00229285 </i>
   </energy>
  </scstep>
  <scstep>
   <time name="diag">    0.48    0.48</time>
   <time name="diis">    0.98    0.98</time>
   <time name="orth">    0.01    0.01</time>
   <time name="total">    3.12    3.13</time>
   <energy>
    <i name="alphaZ">      0.24454202 </i>
    <i name="ewald">    128.74321082 </i>
    <i name="hartreedc">   -284.49529820 </i>
    <i name="XCdc">     24.76099627 </i>
    <i name="pawpsdc">    448.77289598 </i>
    <i name="pawaedc">   -449.56133937 </i>
    <i name="eentropy">      0.03647071 </i>
    <i name="bandstr">    -89.53336893 </i>
    <i name="atom">    197.04175453 </i>
    <i name="e_fr_energy">    -23.99013616 </i>
    <i name="e_wo_entrp">    -24.02660687 </i>
    <i name="e_0_energy">    -24.00229306 </i>
   </energy>
  </scstep>
  <structure>
   <crystal>
    <varray name="basis" >
     <v>       9.92981130       0.00000000       0.00000000 </v>
     <v>      -0.14026969       9.82197895       0.00000000 </v>
     <v>       0.16360391       0.24149372      10.15714655 </v>
    </varray>
    <i name="volume">    990.63054063 </i>
    <varray name="rec_basis" >
     <v>       0.10070685       0.00143822      -0.00165631 </v>
     <v>       0.00000000       0.10181248      -0.00242067 </v>
     <v>       0.00000000      -0.00000000       0.09845285 </v>
    </varray>
   </crystal>
   <varray name="positions" >
    <v>       0.53845157       0.40655550       0.36088223 </v>
    <v>       0.39404241       0.48108560       0.43828634 </v>
    <v>       0.55206671       0.56547638       0.44285607 </v>
    <v>       0.52812255       0.41649496       0.53916108 </v>
    <v>       0.50313041       0.46685049       0.44575547 </v>
   </varray>
  </structure>
  <varray name="forces" >
   <v>      -0.26920275       0.08626363       0.20978748 </v>
   <v>       0.42548310      -0.19609016      -0.00866397 </v>
   <v>       0.02186684       1.15211830       0.04976422 </v>
   <v>       0.06843200      -0.23853122       0.02823140 </v>
   <v>      -1.38679390      -0.01568250      -0.83636182 </v>
  </varray>
  <varray name="stress" >
   <v>      -0.15462338       0.39493777       0.08844412 </v>
   <v>       0.39493777      -0.29611827      -0.76607526 </v>
   <v>       0.08844413      -0.76607526      -1.30162106 </v>
  </varray>
  <energy>
   <i name="e_fr_energy">    -23.99013616 </i>
   <i name="e_wo_entrp">    -24.00229306 </i>
   <i name="e_0_energy">      0.03647071 </i>
   <i name="kinetic">      0.04128305 </i>
   <i name="lattice kinetic">      0.00000000 </i>
   <i name="nosepot">      0.00000000 </i>
   <i name="nosekinetic">      0.00002851 </i>
   <i name="total">    -23.94882460 </i>
  </energy>
  <dos>
   <i name="efermi">     -9.08617145 </i>
   <total>
    <array>
     <dimension dim="1">gridpoints</dimension>
     <dimension dim="2">spin</dimension>
     <field>energy</field>
     <field>total</field>
     <field>integrated</field>
     <set>
      <set comment="spin 1">
       <r>   -18.9023     0.0000     0.0000 </r>
       <r>   -18.8302     0.0000     0.0000 </r>
       <r>   -18.7581     0.0000     0.0000 </r>
       <r>   -18.6861     0.0000     0.0000 </r>
       <r>   -18.6140     0.0000     0.0000 </r>
       <r>   -18.5419    -0.0000    -0.0000 </r>
       <r>   -18.4698    -0.0000    -0.0000 </r>
       <r>   -18.3977    -0.0000    -0.0000 </r>
       <r>   -18.3256    -0.0000    -0.0000 </r>
       <r>   -18.2536    -0.0000    -0.0000 </r>
       <r>   -18.1815    -0.0000    -0.0000 </r>
       <r>   -18.1094    -0.0000    -0.0000 </r>
       <r>   -18.0373    -0.0000    -0.0000 </r>
       <r>   -17.9652    -0.0000    -0.0000 </r>
       <r>   -17.8932    -0.0000    -0.0000 </r>
       <r>   -17.8211    -0.0000    -0.0000 </r>
       <r>   -17.7490    -0.0000    -0.0000 </r>
       <r>   -17.6769    -0.0000    -0.0000 </r>
       <r>   -17.6048    -0.0001    -0.0000 </r>
       <r>   -17.5328    -0.0010    -0.0001 </r>
       <r>   -17.4607    -0.0068    -0.0006 </r>
       <r>   -17.3886    -0.0355    -0.0031 </r>
       <r>   -17.3165    -0.1317    -0.0126 </r>
       <r>   -17.2444    -0.3266    -0.0362 </r>
       <r>   -17.1723    -0.4256    -0.0668 </r>
       <r>   -17.1003     0.2600    -0.0481 </r>
       <r>   -17.0282     2.5313     0.1344 </r>
       <r>   -16.9561     5.9368     0.5623 </r>
       <r>   -16.8840     8.2063     1.1538 </r>
       <r>   -16.8119     7.3673     1.6849 </r>
       <r>   -16.7399     4.1800     1.9862 </r>
       <r>   -16.6678     1.1633     2.0700 </r>
       <r>   -16.5957    -0.2454     2.0523 </r>
       <r>   -16.5236    -0.4176     2.0222 </r>
       <r>   -16.4515    -0.2184     2.0065 </r>
       <r>   -16.3795    -0.0709     2.0014 </r>
       <r>   -16.3074    -0.0160     2.0002 </r>
       <r>   -16.2353    -0.0026     2.0000 </r>
       <r>   -16.1632    -0.0003     2.0000 </r>
       <r>   -16.0911    -0.0000     2.0000 </r>
       <r>   -16.0190    -0.0000     2.0000 </r>
       <r>   -15.9470    -0.0000     2.0000 </r>
       <r>   -15.8749    -0.0000     2.0000 </r>
       <r>   -15.8028    -0.0000     2.0000 </r>
       <r>   -15.7307    -0.0000     2.0000 </r>
       <r>   -15.6586    -0.0000     2.0000 </r>
       <r>   -15.5866     0.0000     2.0000 </r>
       <r>   -15.5145     0.0000     2.0000 </r>
       <r>   -15.4424     0.0000     2.0000 </r>
       <r>   -15.3703     0.0000     2.0000 </r>
       <r>   -15.2982     0.0000     2.0000 </r>
       <r>   -15.2262     0.0000     2.0000 </r>
       <r>   -15.1541     0.0000     2.0000 </r>
       <r>   -15.0820     0.0000     2.0000 </r>
       <r>   -15.0099     0.0000     2.0000 </r>
       <r>   -14.9378     0.0000     2.0000 </r>
       <r>   -14.8657     0.0000     2.0000 </r>
       <r>   -14.7937     0.0000     2.0000 </r>
       <r>   -14.7216     0.0000     2.0000 </r>
       <r>   -14.6495     0.0000     2.0000 </r>
       <r>   -14.5774     0.0000     2.0000 </r>
       <r>   -14.5053     0.0000     2.0000 </r>
       <r>   -14.4333     0.0000     2.0000 </r>
       <r>   -14.3612     0.0000     2.0000 </r>
       <r>   -14.2891     0.0000     2.0000 </r>
       <r>   -14.2170     0.0000     2.0000 </r>
       <r>   -14.1449     0.0000     2.0000 </r>
       <r>   -14.0729     0.0000     2.0000 </r>
       <r>   -14.0008     0.0000     2.0000 </r>
       <r>   -13.9287     0.0000     2.0000 </r>
       <r>   -13.8566     0.0000     2.0000 </r>
       <r>   -13.7845     0.0000     2.0000 </r>
       <r>   -13.7124     0.0000     2.0000 </r>
       <r>   -13.6404     0.0000     2.0000 </r>
       <r>   -13.5683     0.0000     2.0000 </r>
       <r>   -13.4962     0.0000     2.0000 </r>
       <r>   -13.4241     0.0000     2.0000 </r>
       <r>   -13.3520     0.0000     2.0000 </r>
       <r>   -13.2800     0.0000     2.0000 </r>
       <r>   -13.2079     0.0000     2.0000 </r>
       <r>   -13.1358     0.0000     2.0000 </r>
       <r>   -13.0637     0.0000     2.0000 </r>
       <r>   -12.9916     0.0000     2.0000 </r>
       <r>   -12.9196     0.0000     2.0000 </r>
       <r>   -12.8475     0.0000     2.0000 </r>
       <r>   -12.7754     0.0000     2.0000 </r>
       <r>   -12.7033     0.0000     2.0000 </r>
       <r>   -12.6312     0.0000     2.0000 </r>
       <r>   -12.5591     0.0000     2.0000 </r>
       <r>   -12.4871     0.0000     2.0000 </r>
       <r>   -12.4150     0.0000     2.0000 </r>
       <r>   -12.3429     0.0000     2.0000 </r>
       <r>   -12.2708     0.0000     2.0000 </r>
       <r>   -12.1987     0.0000     2.0000 </r>
       <r>   -12.1267     0.0000     2.0000 </r>
       <r>   -12.0546     0.0000     2.0000 </r>
       <r>   -11.9825     0.0000     2.0000 </r>
       <r>   -11.9104     0.0000     2.0000 </r>
       <r>   -11.8383     0.0000     2.0000 </r>
       <r>   -11.7663     0.0000     2.0000 </r>
       <r>   -11.6942     0.0000     2.0000 </r>
       <r>   -11.6221     0.0000     2.0000 </r>
       <r>   -11.5500     0.0000     2.0000 </r>
       <r>   -11.4779     0.0000     2.0000 </r>
       <r>   -11.4058     0.0000     2.0000 </r>
       <r>   -11.3338     0.0000     2.0000 </r>
       <r>   -11.2617     0.0000     2.0000 </r>
       <r>   -11.1896     0.0000     2.0000 </r>
       <r>   -11.1175     0.0000     2.0000 </r>
       <r>   -11.0454     0.0000     2.0000 </r>
       <r>   -10.9734    -0.0000     2.0000 </r>
       <r>   -10.9013    -0.0000     2.0000 </r>
       <r>   -10.8292    -0.0000     2.0000 </r>
       <r>   -10.7571    -0.0000     2.0000 </r>
       <r>   -10.6850    -0.0000     2.0000 </r>
       <r>   -10.6130    -0.0000     2.0000 </r>
       <r>   -10.5409    -0.0000     2.0000 </r>
       <r>   -10.4688    -0.0000     2.0000 </r>
       <r>   -10.3967    -0.0000     2.0000 </r>
       <r>   -10.3246    -0.0000     2.0000 </r>
       <r>   -10.2525    -0.0000     2.0000 </r>
       <r>   -10.1805    -0.0000     2.0000 </r>
       <r>   -10.1084    -0.0000     2.0000 </r>
       <r>   -10.0363    -0.0004     2.0000 </r>
       <r>    -9.9642    -0.0029     1.9998 </r>
       <r>    -9.8921    -0.0182     1.9984 </r>
       <r>    -9.8201    -0.0834     1.9924 </r>
       <r>    -9.7480    -0.2765     1.9725 </r>
       <r>    -9.6759    -0.6246     1.9275 </r>
       <r>    -9.6038    -0.7714     1.8719 </r>
       <r>    -9.5317     0.3880     1.8999 </r>
       <r>    -9.4597     4.3037     2.2101 </r>
       <r>    -9.3876    11.1593     3.0144 </r>
       <r>    -9.3155    18.3614     4.3380 </r>
       <r>    -9.2434    21.4837     5.8865 </r>
       <r>    -9.1713    18.0283     7.1860 </r>
       <r>    -9.0992    10.2768     7.9268 </r>
       <r>    -9.0272     3.1866     8.1565 </r>
       <r>    -8.9551    -0.3507     8.1312 </r>
       <r>    -8.8830    -0.9797     8.0606 </r>
       <r>    -8.8109    -0.5744     8.0192 </r>
       <r>    -8.7388    -0.2048     8.0044 </r>
       <r>    -8.6668    -0.0507     8.0008 </r>
       <r>    -8.5947    -0.0091     8.0001 </r>
       <r>    -8.5226    -0.0012     8.0000 </r>
       <r>    -8.4505    -0.0001     8.0000 </r>
       <r>    -8.3784    -0.0000     8.0000 </r>
       <r>    -8.3064    -0.0000     8.0000 </r>
       <r>    -8.2343    -0.0000     8.0000 </r>
       <r>    -8.1622    -0.0000     8.0000 </r>
       <r>    -8.0901    -0.0000     8.0000 </r>
       <r>    -8.0180    -0.0000     8.0000 </r>
       <r>    -7.9459    -0.0000     8.0000 </r>
       <r>    -7.8739     0.0000     8.0000 </r>
       <r>    -7.8018     0.0000     8.0000 </r>
       <r>    -7.7297     0.0000     8.0000 </r>
       <r>    -7.6576     0.0000     8.0000 </r>
       <r>    -7.5855     0.0000     8.0000 </r>
       <r>    -7.5135     0.0000     8.0000 </r>
       <r>    -7.4414     0.0000     8.0000 </r>
       <r>    -7.3693     0.0000     8.0000 </r>
       <r>    -7.2972     0.0000     8.0000 </r>
       <r>    -7.2251     0.0000     8.0000 </r>
       <r>    -7.1531     0.0000     8.0000 </r>
       <r>    -7.0810     0.0000     8.0000 </r>
       <r>    -7.0089     0.0000     8.0000 </r>
       <r>    -6.9368     0.0000     8.0000 </r>
       <r>    -6.8647     0.0000     8.0000 </r>
       <r>    -6.7926     0.0000     8.0000 </r>
       <r>    -6.7206     0.0000     8.0000 </r>
       <r>    -6.6485     0.0000     8.0000 </r>
       <r>    -6.5764     0.0000     8.0000 </r>
       <r>    -6.5043     0.0000     8.0000 </r>
       <r>    -6.4322     0.0000     8.0000 </r>
       <r>    -6.3602     0.0000     8.0000 </r>
       <r>    -6.2881     0.0000     8.0000 </r>
       <r>    -6.2160     0.0000     8.0000 </r>
       <r>    -6.1439     0.0000     8.0000 </r>
       <r>    -6.0718     0.0000     8.0000 </r>
       <r>    -5.9997     0.0000     8.0000 </r>
       <r>    -5.9277     0.0000     8.0000 </r>
       <r>    -5.8556     0.0000     8.0000 </r>
       <r>    -5.7835     0.0000     8.0000 </r>
       <r>    -5.7114     0.0000     8.0000 </r>
       <r>    -5.6393     0.0000     8.0000 </r>
       <r>    -5.5673     0.0000     8.0000 </r>
       <r>    -5.4952     0.0000     8.0000 </r>
       <r>    -5.4231     0.0000     8.0000 </r>
       <r>    -5.3510     0.0000     8.0000 </r>
       <r>    -5.2789     0.0000     8.0000 </r>
       <r>    -5.2069     0.0000     8.0000 </r>
       <r>    -5.1348     0.0000     8.0000 </r>
       <r>    -5.0627     0.0000     8.0000 </r>
       <r>    -4.9906     0.0000     8.0000 </r>
       <r>    -4.9185     0.0000     8.0000 </r>
       <r>    -4.8464     0.0000     8.0000 </r>
       <r>    -4.7744     0.0000     8.0000 </r>
       <r>    -4.7023     0.0000     8.0000 </r>
       <r>    -4.6302     0.0000     8.0000 </r>
       <r>    -4.5581     0.0000     8.0000 </r>
       <r>    -4.4860     0.0000     8.0000 </r>
       <r>    -4.4140     0.0000     8.0000 </r>
       <r>    -4.3419     0.0000     8.0000 </r>
       <r>    -4.2698     0.0000     8.0000 </r>
       <r>    -4.1977     0.0000     8.0000 </r>
       <r>    -4.1256     0.0000     8.0000 </r>
       <r>    -4.0536     0.0000     8.0000 </r>
       <r>    -3.9815     0.0000     8.0000 </r>
       <r>    -3.9094     0.0000     8.0000 </r>
       <r>    -3.8373     0.0000     8.0000 </r>
       <r>    -3.7652     0.0000     8.0000 </r>
       <r>    -3.6931     0.0000     8.0000 </r>
       <r>    -3.6211     0.0000     8.0000 </r>
       <r>    -3.5490     0.0000     8.0000 </r>
       <r>    -3.4769     0.0000     8.0000 </r>
       <r>    -3.4048     0.0000     8.0000 </r>
       <r>    -3.3327     0.0000     8.0000 </r>
       <r>    -3.2607     0.0000     8.0000 </r>
       <r>    -3.1886     0.0000     8.0000 </r>
       <r>    -3.1165     0.0000     8.0000 </r>
       <r>    -3.0444     0.0000     8.0000 </r>
       <r>    -2.9723     0.0000     8.0000 </r>
       <r>    -2.9003     0.0000     8.0000 </r>
       <r>    -2.8282     0.0000     8.0000 </r>
       <r>    -2.7561     0.0000     8.0000 </r>
       <r>    -2.6840     0.0000     8.0000 </r>
       <r>    -2.6119     0.0000     8.0000 </r>
       <r>    -2.5398     0.0000     8.0000 </r>
       <r>    -2.4678     0.0000     8.0000 </r>
       <r>    -2.3957     0.0000     8.0000 </r>
       <r>    -2.3236     0.0000     8.0000 </r>
       <r>    -2.2515     0.0000     8.0000 </r>
       <r>    -2.1794     0.0000     8.0000 </r>
       <r>    -2.1074     0.0000     8.0000 </r>
       <r>    -2.0353     0.0000     8.0000 </r>
       <r>    -1.9632    -0.0000     8.0000 </r>
       <r>    -1.8911    -0.0000     8.0000 </r>
       <r>    -1.8190    -0.0000     8.0000 </r>
       <r>    -1.7470    -0.0000     8.0000 </r>
       <r>    -1.6749    -0.0000     8.0000 </r>
       <r>    -1.6028    -0.0000     8.0000 </r>
       <r>    -1.5307    -0.0000     8.0000 </r>
       <r>    -1.4586    -0.0000     8.0000 </r>
       <r>    -1.3865    -0.0000     8.0000 </r>
       <r>    -1.3145    -0.0000     8.0000 </r>
       <r>    -1.2424    -0.0000     8.0000 </r>
       <r>    -1.1703    -0.0000     8.0000 </r>
       <r>    -1.0982    -0.0000     8.0000 </r>
       <r>    -1.0261    -0.0001     8.0000 </r>
       <r>    -0.9541    -0.0007     7.9999 </r>
       <r>    -0.8820    -0.0051     7.9996 </r>
       <r>    -0.8099    -0.0278     7.9976 </r>
       <r>    -0.7378    -0.1091     7.9897 </r>
       <r>    -0.6657    -0.2911     7.9687 </r>
       <r>    -0.5937    -0.4380     7.9372 </r>
       <r>    -0.5216     0.0556     7.9412 </r>
       <r>    -0.4495     2.0470     8.0887 </r>
       <r>    -0.3774     5.3839     8.4768 </r>
       <r>    -0.3053     8.0196     9.0549 </r>
       <r>    -0.2332     7.7188     9.6112 </r>
       <r>    -0.1612     4.7551     9.9540 </r>
       <r>    -0.0891     1.5590    10.0664 </r>
       <r>    -0.0170    -0.1263    10.0573 </r>
       <r>     0.0551    -0.4557    10.0244 </r>
       <r>     0.1272    -0.3496     9.9992 </r>
       <r>     0.1992    -0.4002     9.9704 </r>
       <r>     0.2713    -0.6986     9.9200 </r>
       <r>     0.3434    -0.7643     9.8649 </r>
       <r>     0.4155     0.6635     9.9128 </r>
       <r>     0.4876     5.0588    10.2774 </r>
       <r>     0.5596    12.3040    11.1643 </r>
       <r>     0.6317    19.2936    12.5550 </r>
       <r>     0.7038    21.4881    14.1039 </r>
       <r>     0.7759    17.0563    15.3333 </r>
       <r>     0.8480     9.0563    15.9861 </r>
       <r>     0.9201     2.4228    16.1608 </r>
       <r>     0.9921    -0.5664    16.1199 </r>
       <r>     1.0642    -0.9375    16.0524 </r>
       <r>     1.1363    -0.5057    16.0159 </r>
       <r>     1.2084    -0.1716    16.0035 </r>
       <r>     1.2805    -0.0410    16.0006 </r>
       <r>     1.3525    -0.0072    16.0001 </r>
       <r>     1.4246    -0.0009    16.0000 </r>
       <r>     1.4967    -0.0001    16.0000 </r>
       <r>     1.5688    -0.0000    16.0000 </r>
       <r>     1.6409    -0.0000    16.0000 </r>
       <r>     1.7129    -0.0000    16.0000 </r>
       <r>     1.7850    -0.0000    16.0000 </r>
       <r>     1.8571    -0.0000    16.0000 </r>
       <r>     1.9292    -0.0000    16.0000 </r>
       <r>     2.0013    -0.0000    16.0000 </r>
       <r>     2.0734     0.0000    16.0000 </r>
       <r>     2.1454     0.0000    16.0000 </r>
       <r>     2.2175     0.0000    16.0000 </r>
       <r>     2.2896     0.0000    16.0000 </r>
       <r>     2.3617     0.0000    16.0000 </r>
       <r>     2.4338     0.0000    16.0000 </r>
       <r>     2.5058     0.0000    16.0000 </r>
       <r>     2.5779     0.0000    16.0000 </r>
       <r>     2.6500     0.0000    16.0000 </r>
       <r>     2.7221     0.0000    16.0000 </r>
      </set>
     </set>
    </array>
   </total>
  </dos>
  <time name="totalsc">   88.77   88.99</time>
 </calculation>
 <calculation>
  <scstep>
   <time name="dav">    2.13    2.14</time>
   <time name="total">    3.99    4.00</time>
   <energy>
    <i name="alphaZ">      0.24454202 </i>
    <i name="ewald">    127.51917972 </i>
    <i name="hartreedc">   -283.74950811 </i>
    <i name="XCdc">     24.72321689 </i>
    <i name="pawpsdc">    448.77795186 </i>
    <i name="pawaedc">   -449.56638587 </i>
    <i name="eentropy">      0.01235061 </i>
    <i name="bandstr">    -89.00859066 </i>
    <i name="atom">    197.04175453 </i>
    <i name="e_fr_energy">    -24.00548902 </i>
    <i name="e_wo_entrp">    -24.01783963 </i>
    <i name="e_0_energy">    -24.00960589 </i>
   </energy>
  </scstep>
  <scstep>
   <time name="diag">    0.47    0.47</time>
   <time name="diis">    1.64    1.65</time>
   <time name="orth">    0.01    0.01</time>
   <time name="total">    3.81    3.82</time>
   <energy>
    <i name="e_fr_energy">    -24.01694749 </i>
    <i name="e_wo_entrp">    -24.02936304 </i>
    <i name="e_0_energy">    -24.02108601 </i>
   </energy>
  </scstep>
  <scstep>
   <time name="diag">    0.49    0.49</time>
   <time name="diis">    1.59    1.59</time>
   <time name="orth">    0.01    0.01</time>
   <time name="total">    3.80    3.81</time>
   <energy>
    <i name="e_fr_energy">    -24.00481222 </i>
    <i name="e_wo_entrp">    -24.01755039 </i>
    <i name="e_0_energy">    -24.00905828 </i>
   </energy>
  </scstep>
  <scstep>
   <time name="diag">    0.48    0.48</time>
   <time name="diis">    1.63    1.64</time>
   <time name="orth">    0.01    0.01</time>
   <time name="total">    3.86    3.87</time>
   <energy>
    <i name="e_fr_energy">    -24.00453817 </i>
    <i name="e_wo_entrp">    -24.01755178 </i>
    <i name="e_0_energy">    -24.00887604 </i>
   </energy>
  </scstep>
  <scstep>
   <time name="diag">    0.49    0.49</time>
   <time name="diis">    1.64    1.64</time>
   <time name="orth">    0.01    0.01</time>
   <time name="total">    3.91    3.92</time>
   <energy>
    <i name="e_fr_energy">    -24.00405300 </i>
    <i name="e_wo_entrp">    -24.01748795 </i>
    <i name="e_0_energy">    -24.00853132 </i>
   </energy>
  </scstep>
  <scstep>
   <time name="diag">    0.50    0.51</time>
   <time name="diis">    1.63    1.63</time>
   <time name="orth">    0.01    0.01</time>
   <time name="total">    3.90    3.91</time>
   <energy>
    <i name="e_fr_energy">    -24.00421184 </i>
    <i name="e_wo_entrp">    -24.01808251 </i>
    <i name="e_0_energy">    -24.00883540 </i>
   </energy>
  </scstep>
  <scstep>
   <time name="diag">    0.51    0.51</time>
   <time name="diis">    1.60    1.60</time>
   <time name="orth">    0.01    0.01</time>
   <time name="total">    3.87    3.88</time>
   <energy>
    <i name="e_fr_energy">    -24.00418753 </i>
    <i name="e_wo_entrp">    -24.01823658 </i>
    <i name="e_0_energy">    -24.00887055 </i>
   </energy>
  </scstep>
  <scstep>
   <time name="diag">    0.50    0.50</time>
   <time name="diis">    1.55    1.55</time>
   <time name="orth">    0.01    0.01</time>
   <time name="total">    3.89    3.90</time>
   <energy>
    <i name="e_fr_energy">    -24.00427110 </i>
    <i name="e_wo_entrp">    -24.01882914 </i>
    <i name="e_0_energy">    -24.00912378 </i>
   </energy>
  </scstep>
  <scstep>
   <time name="diag">    0.49    0.50</time>
   <time name="diis">    1.57    1.57</time>
   <time name="orth">    0.01    0.01</time>
   <time name="total">    3.93    3.94</time>
   <energy>
    <i name="e_fr_energy">    -24.00429830 </i>
    <i name="e_wo_entrp">    -24.01902522 </i>
    <i name="e_0_energy">    -24.00920727 </i>
   </energy>
  </scstep>
  <scstep>
   <time name="diag">    0.46    0.46</time>
   <time name="diis">    1.60    1.60</time>
   <time name="orth">    0.01    0.01</time>
   <time name="total">    3.93    3.94</time>
   <energy>
    <i name="e_fr_energy">    -24.00431366 </i>
    <i name="e_wo_entrp">    -24.01907414 </i>
    <i name="e_0_energy">    -24.00923382 </i>
   </energy>
  </scstep>
  <scstep>
   <time name="diag">    0.47    0.47</time>
   <time name="diis">    1.62    1.62</time>
   <time name="orth">    0.01    0.01</time>
   <time name="total">    3.92    3.93</time>
   <energy>
    <i name="e_fr_energy">    -24.00432772 </i>
    <i name="e_wo_entrp">    -24.01904473 </i>
    <i name="e_0_energy">    -24.00923339 </i>
   </energy>
  </scstep>
  <scstep>
   <time name="diag">    0.47    0.47</time>
   <time name="diis">    1.59    1.60</time>
   <time name="orth">    0.01    0.01</time>
   <time name="total">    3.96    3.97</time>
   <energy>
    <i name="e_fr_energy">    -24.00433895 </i>
    <i name="e_wo_entrp">    -24.01904979 </i>
    <i name="e_0_energy">    -24.00924256 </i>
   </energy>
  </scstep>
  <scstep>
   <time name="diag">    0.47    0.47</time>
   <time name="diis">    1.23    1.23</time>
   <time name="orth">    0.01    0.01</time>
   <time name="total">    3.57    3.57</time>
   <energy>
    <i name="e_fr_energy">    -24.00434195 </i>
    <i name="e_wo_entrp">    -24.01903665 </i>
    <i name="e_0_energy">    -24.00924018 </i>
   </energy>
  </scstep>
  <scstep>
   <time name="diag">    0.47    0.48</time>
   <time name="diis">    1.22    1.22</time>
   <time name="orth">    0.01    0.01</time>
   <time name="total">    3.62    3.63</time>
   <energy>
    <i name="e_fr_energy">    -24.00434454 </i>
    <i name="e_wo_entrp">    -24.01904282 </i>
    <i name="e_0_energy">    -24.00924397 </i>
   </energy>
  </scstep>
  <scstep>
   <time name="diag">    0.47    0.47</time>
   <time name="diis">    1.05    1.05</time>
   <time name="orth">    0.01    0.01</time>
   <time name="total">    3.14    3.15</time>
   <energy>
    <i name="alphaZ">      0.24454202 </i>
    <i name="ewald">    127.51917972 </i>
    <i name="hartreedc">   -283.38730016 </i>
    <i name="XCdc">     24.70273679 </i>
    <i name="pawpsdc">    438.33784689 </i>
    <i name="pawaedc">   -439.12303484 </i>
    <i name="eentropy">      0.01469703 </i>
    <i name="bandstr">    -89.35476711 </i>
    <i name="atom">    197.04175453 </i>
    <i name="e_fr_energy">    -24.00434512 </i>
    <i name="e_wo_entrp">    -24.01904215 </i>
    <i name="e_0_energy">    -24.00924413 </i>
   </energy>
  </scstep>
  <structure>
   <crystal>
    <varray name="basis" >
     <v>       9.92981130       0.00000000       0.00000000 </v>
     <v>      -0.14026969       9.82197895       0.00000000 </v>
     <v>       0.16360391       0.24149372      10.15714655 </v>
    </varray>
    <i name="volume">    990.63054063 </i>
    <varray name="rec_basis" >
     <v>       0.10070685       0.00143822      -0.00165631 </v>
     <v>       0.00000000       0.10181248      -0.00242067 </v>
     <v>       0.00000000      -0.00000000       0.09845285 </v>
    </varray>
   </crystal>
   <varray name="positions" >
    <v>       0.53669562       0.40675294       0.36159918 </v>
    <v>       0.39700391       0.48014705       0.43815476 </v>
    <v>       0.54972315       0.57044265       0.44423268 </v>
    <v>       0.52866184       0.41557558       0.54200486 </v>
    <v>       0.50318025       0.46657526       0.44535536 </v>
   </varray>
  </structure>
  <varray name="forces" >
   <v>       0.15142056       0.06163817      -0.24636038 </v>
   <v>      -0.56157029      -0.18033037      -0.14343025 </v>
   <v>      -0.01687318      -0.30213985      -0.54466963 </v>
   <v>      -0.24606341      -0.07217434      -1.01528213 </v>
   <v>      -0.22774487       0.90402074       0.64292456 </v>
  </varray>
  <varray name="stress" >
   <v>       1.70753758      -0.25625553      -0.60824061 </v>
   <v>      -0.25625553      -2.06360806      -0.18906698 </v>
   <v>      -0.60824061      -0.18906698      -2.00305630 </v>
  </varray>
  <energy>
   <i name="e_fr_energy">    -24.00434512 </i>
   <i name="e_wo_entrp">    -24.00924413 </i>
   <i name="e_0_energy">      0.01469703 </i>
   <i name="kinetic">      0.04442960 </i>
   <i name="lattice kinetic">      0.00000000 </i>
   <i name="nosepot">      0.00038005 </i>
   <i name="nosekinetic">      0.00029307 </i>
   <i name="total">    -23.95924241 </i>
  </energy>
  <dos>
   <i name="efermi">     -8.88867498 </i>
   <total>
    <array>
     <dimension dim="1">gridpoints</dimension>
     <dimension dim="2">spin</dimension>
     <field>energy</field>
     <field>total</field>
     <field>integrated</field>
     <set>
      <set comment="spin 1">
       <r>   -18.8722     0.0000     0.0000 </r>
       <r>   -18.8003     0.0000     0.0000 </r>
       <r>   -18.7283     0.0000     0.0000 </r>
       <r>   -18.6563     0.0000     0.0000 </r>
       <r>   -18.5844     0.0000     0.0000 </r>
       <r>   -18.5124    -0.0000    -0.0000 </r>
       <r>   -18.4404    -0.0000    -0.0000 </r>
       <r>   -18.3685    -0.0000    -0.0000 </r>
       <r>   -18.2965    -0.0000    -0.0000 </r>
       <r>   -18.2245    -0.0000    -0.0000 </r>
       <r>   -18.1526    -0.0000    -0.0000 </r>
       <r>   -18.0806    -0.0000    -0.0000 </r>
       <r>   -18.0086    -0.0000    -0.0000 </r>
       <r>   -17.9366    -0.0000    -0.0000 </r>
       <r>   -17.8647    -0.0000    -0.0000 </r>
       <r>   -17.7927    -0.0000    -0.0000 </r>
       <r>   -17.7207    -0.0000    -0.0000 </r>
       <r>   -17.6488    -0.0000    -0.0000 </r>
       <r>   -17.5768    -0.0001    -0.0000 </r>
       <r>   -17.5048    -0.0009    -0.0001 </r>
       <r>   -17.4329    -0.0065    -0.0005 </r>
       <r>   -17.3609    -0.0338    -0.0030 </r>
       <r>   -17.2889    -0.1268    -0.0121 </r>
       <r>   -17.2170    -0.3190    -0.0351 </r>
       <r>   -17.1450    -0.4302    -0.0660 </r>
       <r>   -17.0730     0.2077    -0.0511 </r>
       <r>   -17.0010     2.4094     0.1223 </r>
       <r>   -16.9291     5.7996     0.5397 </r>
       <r>   -16.8571     8.1670     1.1275 </r>
       <r>   -16.7851     7.4711     1.6652 </r>
       <r>   -16.7132     4.3417     1.9776 </r>
       <r>   -16.6412     1.2731     2.0693 </r>
       <r>   -16.5692    -0.2128     2.0540 </r>
       <r>   -16.4973    -0.4239     2.0235 </r>
       <r>   -16.4253    -0.2290     2.0070 </r>
       <r>   -16.3533    -0.0760     2.0015 </r>
       <r>   -16.2814    -0.0175     2.0002 </r>
       <r>   -16.2094    -0.0029     2.0000 </r>
       <r>   -16.1374    -0.0004     2.0000 </r>
       <r>   -16.0655    -0.0000     2.0000 </r>
       <r>   -15.9935    -0.0000     2.0000 </r>
       <r>   -15.9215    -0.0000     2.0000 </r>
       <r>   -15.8495    -0.0000     2.0000 </r>
       <r>   -15.7776    -0.0000     2.0000 </r>
       <r>   -15.7056    -0.0000     2.0000 </r>
       <r>   -15.6336    -0.0000     2.0000 </r>
       <r>   -15.5617     0.0000     2.0000 </r>
       <r>   -15.4897     0.0000     2.0000 </r>
       <r>   -15.4177     0.0000     2.0000 </r>
       <r>   -15.3458     0.0000     2.0000 </r>
       <r>   -15.2738     0.0000     2.0000 </r>
       <r>   -15.2018     0.0000     2.0000 </r>
       <r>   -15.1299     0.0000     2.0000 </r>
       <r>   -15.0579     0.0000     2.0000 </r>
       <r>   -14.9859     0.0000     2.0000 </r>
       <r>   -14.9139     0.0000     2.0000 </r>
       <r>   -14.8420     0.0000     2.0000 </r>
       <r>   -14.7700     0.0000     2.0000 </r>
       <r>   -14.6980     0.0000     2.0000 </r>
       <r>   -14.6261     0.0000     2.0000 </r>
       <r>   -14.5541     0.0000     2.0000 </r>
       <r>   -14.4821     0.0000     2.0000 </r>
       <r>   -14.4102     0.0000     2.0000 </r>
       <r>   -14.3382     0.0000     2.0000 </r>
       <r>   -14.2662     0.0000     2.0000 </r>
       <r>   -14.1943     0.0000     2.0000 </r>
       <r>   -14.1223     0.0000     2.0000 </r>
       <r>   -14.0503     0.0000     2.0000 </r>
       <r>   -13.9783     0.0000     2.0000 </r>
       <r>   -13.9064     0.0000     2.0000 </r>
       <r>   -13.8344     0.0000     2.0000 </r>
       <r>   -13.7624     0.0000     2.0000 </r>
       <r>   -13.6905     0.0000     2.0000 </r>
       <r>   -13.6185     0.0000     2.0000 </r>
       <r>   -13.5465     0.0000     2.0000 </r>
       <r>   -13.4746     0.0000     2.0000 </r>
       <r>   -13.4026     0.0000     2.0000 </r>
       <r>   -13.3306     0.0000     2.0000 </r>
       <r>   -13.2587     0.0000     2.0000 </r>
       <r>   -13.1867     0.0000     2.0000 </r>
       <r>   -13.1147     0.0000     2.0000 </r>
       <r>   -13.0427     0.0000     2.0000 </r>
       <r>   -12.9708     0.0000     2.0000 </r>
       <r>   -12.8988     0.0000     2.0000 </r>
       <r>   -12.8268     0.0000     2.0000 </r>
       <r>   -12.7549     0.0000     2.0000 </r>
       <r>   -12.6829     0.0000     2.0000 </r>
       <r>   -12.6109     0.0000     2.0000 </r>
       <r>   -12.5390     0.0000     2.0000 </r>
       <r>   -12.4670     0.0000     2.0000 </r>
       <r>   -12.3950     0.0000     2.0000 </r>
       <r>   -12.3231     0.0000     2.0000 </r>
       <r>   -12.2511     0.0000     2.0000 </r>
       <r>   -12.1791     0.0000     2.0000 </r>
       <r>   -12.1071     0.0000     2.0000 </r>
       <r>   -12.0352     0.0000     2.0000 </r>
       <r>   -11.9632     0.0000     2.0000 </r>
       <r>   -11.8912     0.0000     2.0000 </r>
       <r>   -11.8193     0.0000     2.0000 </r>
       <r>   -11.7473     0.0000     2.0000 </r>
       <r>   -11.6753     0.0000     2.0000 </r>
       <r>   -11.6034     0.0000     2.0000 </r>
       <r>   -11.5314     0.0000     2.0000 </r>
       <r>   -11.4594     0.0000     2.0000 </r>
       <r>   -11.3875     0.0000     2.0000 </r>
       <r>   -11.3155     0.0000     2.0000 </r>
       <r>   -11.2435     0.0000     2.0000 </r>
       <r>   -11.1716     0.0000     2.0000 </r>
       <r>   -11.0996     0.0000     2.0000 </r>
       <r>   -11.0276    -0.0000     2.0000 </r>
       <r>   -10.9556    -0.0000     2.0000 </r>
       <r>   -10.8837    -0.0000     2.0000 </r>
       <r>   -10.8117    -0.0000     2.0000 </r>
       <r>   -10.7397    -0.0000     2.0000 </r>
       <r>   -10.6678    -0.0000     2.0000 </r>
       <r>   -10.5958    -0.0000     2.0000 </r>
       <r>   -10.5238    -0.0000     2.0000 </r>
       <r>   -10.4519    -0.0000     2.0000 </r>
       <r>   -10.3799    -0.0000     2.0000 </r>
       <r>   -10.3079    -0.0000     2.0000 </r>
       <r>   -10.2360    -0.0000     2.0000 </r>
       <r>   -10.1640    -0.0000     2.0000 </r>
       <r>   -10.0920    -0.0003     2.0000 </r>
       <r>   -10.0200    -0.0028     1.9998 </r>
       <r>    -9.9481    -0.0175     1.9985 </r>
       <r>    -9.8761    -0.0799     1.9928 </r>
       <r>    -9.8041    -0.2611     1.9740 </r>
       <r>    -9.7322    -0.5655     1.9333 </r>
       <r>    -9.6602    -0.5915     1.8907 </r>
       <r>    -9.5882     0.7492     1.9446 </r>
       <r>    -9.5163     4.5271     2.2704 </r>
       <r>    -9.4443    10.0028     2.9903 </r>
       <r>    -9.3723    14.0473     4.0013 </r>
       <r>    -9.3004    13.8759     4.9999 </r>
       <r>    -9.2284    10.4784     5.7541 </r>
       <r>    -9.1564     7.6983     6.3081 </r>
       <r>    -9.0844     7.4442     6.8438 </r>
       <r>    -9.0125     7.6838     7.3968 </r>
       <r>    -8.9405     5.9908     7.8280 </r>
       <r>    -8.8685     2.8953     8.0364 </r>
       <r>    -8.7966     0.4850     8.0713 </r>
       <r>    -8.7246    -0.3996     8.0425 </r>
       <r>    -8.6526    -0.3692     8.0159 </r>
       <r>    -8.5807    -0.1630     8.0042 </r>
       <r>    -8.5087    -0.0472     8.0008 </r>
       <r>    -8.4367    -0.0097     8.0001 </r>
       <r>    -8.3648    -0.0015     8.0000 </r>
       <r>    -8.2928    -0.0002     8.0000 </r>
       <r>    -8.2208    -0.0000     8.0000 </r>
       <r>    -8.1488    -0.0000     8.0000 </r>
       <r>    -8.0769    -0.0000     8.0000 </r>
       <r>    -8.0049    -0.0000     8.0000 </r>
       <r>    -7.9329    -0.0000     8.0000 </r>
       <r>    -7.8610    -0.0000     8.0000 </r>
       <r>    -7.7890    -0.0000     8.0000 </r>
       <r>    -7.7170     0.0000     8.0000 </r>
       <r>    -7.6451     0.0000     8.0000 </r>
       <r>    -7.5731     0.0000     8.0000 </r>
       <r>    -7.5011     0.0000     8.0000 </r>
       <r>    -7.4292     0.0000     8.0000 </r>
       <r>    -7.3572     0.0000     8.0000 </r>
       <r>    -7.2852     0.0000     8.0000 </r>
       <r>    -7.2132     0.0000     8.0000 </r>
       <r>    -7.1413     0.0000     8.0000 </r>
       <r>    -7.0693     0.0000     8.0000 </r>
       <r>    -6.9973     0.0000     8.0000 </r>
       <r>    -6.9254     0.0000     8.0000 </r>
       <r>    -6.8534     0.0000     8.0000 </r>
       <r>    -6.7814     0.0000     8.0000 </r>
       <r>    -6.7095     0.0000     8.0000 </r>
       <r>    -6.6375     0.0000     8.0000 </r>
       <r>    -6.5655     0.0000     8.0000 </r>
       <r>    -6.4936     0.0000     8.0000 </r>
       <r>    -6.4216     0.0000     8.0000 </r>
       <r>    -6.3496     0.0000     8.0000 </r>
       <r>    -6.2777     0.0000     8.0000 </r>
       <r>    -6.2057     0.0000     8.0000 </r>
       <r>    -6.1337     0.0000     8.0000 </r>
       <r>    -6.0617     0.0000     8.0000 </r>
       <r>    -5.9898     0.0000     8.0000 </r>
       <r>    -5.9178     0.0000     8.0000 </r>
       <r>    -5.8458     0.0000     8.0000 </r>
       <r>    -5.7739     0.0000     8.0000 </r>
       <r>    -5.7019     0.0000     8.0000 </r>
       <r>    -5.6299     0.0000     8.0000 </r>
       <r>    -5.5580     0.0000     8.0000 </r>
       <r>    -5.4860     0.0000     8.0000 </r>
       <r>    -5.4140     0.0000     8.0000 </r>
       <r>    -5.3421     0.0000     8.0000 </r>
       <r>    -5.2701     0.0000     8.0000 </r>
       <r>    -5.1981     0.0000     8.0000 </r>
       <r>    -5.1261     0.0000     8.0000 </r>
       <r>    -5.0542     0.0000     8.0000 </r>
       <r>    -4.9822     0.0000     8.0000 </r>
       <r>    -4.9102     0.0000     8.0000 </r>
       <r>    -4.8383     0.0000     8.0000 </r>
       <r>    -4.7663     0.0000     8.0000 </r>
       <r>    -4.6943     0.0000     8.0000 </r>
       <r>    -4.6224     0.0000     8.0000 </r>
       <r>    -4.5504     0.0000     8.0000 </r>
       <r>    -4.4784     0.0000     8.0000 </r>
       <r>    -4.4065     0.0000     8.0000 </r>
       <r>    -4.3345     0.0000     8.0000 </r>
       <r>    -4.2625     0.0000     8.0000 </r>
       <r>    -4.1905     0.0000     8.0000 </r>
       <r>    -4.1186     0.0000     8.0000 </r>
       <r>    -4.0466     0.0000     8.0000 </r>
       <r>    -3.9746     0.0000     8.0000 </r>
       <r>    -3.9027     0.0000     8.0000 </r>
       <r>    -3.8307     0.0000     8.0000 </r>
       <r>    -3.7587     0.0000     8.0000 </r>
       <r>    -3.6868     0.0000     8.0000 </r>
       <r>    -3.6148     0.0000     8.0000 </r>
       <r>    -3.5428     0.0000     8.0000 </r>
       <r>    -3.4709     0.0000     8.0000 </r>
       <r>    -3.3989     0.0000     8.0000 </r>
       <r>    -3.3269     0.0000     8.0000 </r>
       <r>    -3.2549     0.0000     8.0000 </r>
       <r>    -3.1830     0.0000     8.0000 </r>
       <r>    -3.1110     0.0000     8.0000 </r>
       <r>    -3.0390     0.0000     8.0000 </r>
       <r>    -2.9671     0.0000     8.0000 </r>
       <r>    -2.8951     0.0000     8.0000 </r>
       <r>    -2.8231     0.0000     8.0000 </r>
       <r>    -2.7512     0.0000     8.0000 </r>
       <r>    -2.6792     0.0000     8.0000 </r>
       <r>    -2.6072     0.0000     8.0000 </r>
       <r>    -2.5353     0.0000     8.0000 </r>
       <r>    -2.4633     0.0000     8.0000 </r>
       <r>    -2.3913     0.0000     8.0000 </r>
       <r>    -2.3194     0.0000     8.0000 </r>
       <r>    -2.2474     0.0000     8.0000 </r>
       <r>    -2.1754     0.0000     8.0000 </r>
       <r>    -2.1034     0.0000     8.0000 </r>
       <r>    -2.0315     0.0000     8.0000 </r>
       <r>    -1.9595    -0.0000     8.0000 </r>
       <r>    -1.8875    -0.0000     8.0000 </r>
       <r>    -1.8156    -0.0000     8.0000 </r>
       <r>    -1.7436    -0.0000     8.0000 </r>
       <r>    -1.6716    -0.0000     8.0000 </r>
       <r>    -1.5997    -0.0000     8.0000 </r>
       <r>    -1.5277    -0.0000     8.0000 </r>
       <r>    -1.4557    -0.0000     8.0000 </r>
       <r>    -1.3838    -0.0000     8.0000 </r>
       <r>    -1.3118    -0.0000     8.0000 </r>
       <r>    -1.2398    -0.0000     8.0000 </r>
       <r>    -1.1678    -0.0000     8.0000 </r>
       <r>    -1.0959    -0.0000     8.0000 </r>
       <r>    -1.0239    -0.0001     8.0000 </r>
       <r>    -0.9519    -0.0010     7.9999 </r>
       <r>    -0.8800    -0.0069     7.9994 </r>
       <r>    -0.8080    -0.0356     7.9969 </r>
       <r>    -0.7360    -0.1317     7.9874 </r>
       <r>    -0.6641    -0.3261     7.9639 </r>
       <r>    -0.5921    -0.4255     7.9333 </r>
       <r>    -0.5201     0.2538     7.9516 </r>
       <r>    -0.4482     2.5105     8.1322 </r>
       <r>    -0.3762     5.9071     8.5574 </r>
       <r>    -0.3042     8.1944     9.1471 </r>
       <r>    -0.2322     7.3930     9.6792 </r>
       <r>    -0.1603     4.2271     9.9834 </r>
       <r>    -0.0883     1.1984    10.0697 </r>
       <r>    -0.0163    -0.2379    10.0525 </r>
       <r>     0.0556    -0.4449    10.0205 </r>
       <r>     0.1276    -0.3312     9.9967 </r>
       <r>     0.1996    -0.4100     9.9672 </r>
       <r>     0.2715    -0.7148     9.9157 </r>
       <r>     0.3435    -0.7089     9.8647 </r>
       <r>     0.4155     0.8954     9.9291 </r>
       <r>     0.4874     5.4779    10.3234 </r>
       <r>     0.5594    12.7261    11.2393 </r>
       <r>     0.6314    19.4504    12.6391 </r>
       <r>     0.7034    21.2823    14.1708 </r>
       <r>     0.7753    16.6566    15.3695 </r>
       <r>     0.8473     8.7173    15.9969 </r>
       <r>     0.9193     2.2621    16.1597 </r>
       <r>     0.9912    -0.5944    16.1169 </r>
       <r>     1.0632    -0.9209    16.0506 </r>
       <r>     1.1352    -0.4908    16.0153 </r>
       <r>     1.2071    -0.1656    16.0034 </r>
       <r>     1.2791    -0.0394    16.0006 </r>
       <r>     1.3511    -0.0069    16.0001 </r>
       <r>     1.4230    -0.0009    16.0000 </r>
       <r>     1.4950    -0.0001    16.0000 </r>
       <r>     1.5670    -0.0000    16.0000 </r>
       <r>     1.6390    -0.0000    16.0000 </r>
       <r>     1.7109    -0.0000    16.0000 </r>
       <r>     1.7829    -0.0000    16.0000 </r>
       <r>     1.8549    -0.0000    16.0000 </r>
       <r>     1.9268    -0.0000    16.0000 </r>
       <r>     1.9988    -0.0000    16.0000 </r>
       <r>     2.0708     0.0000    16.0000 </r>
       <r>     2.1427     0.0000    16.0000 </r>
       <r>     2.2147     0.0000    16.0000 </r>
       <r>     2.2867     0.0000    16.0000 </r>
       <r>     2.3586     0.0000    16.0000 </r>
       <r>     2.4306     0.0000    16.0000 </r>
       <r>     2.5026     0.0000    16.0000 </r>
       <r>     2.5745     0.0000    16.0000 </r>
       <r>     2.6465     0.0000    16.0000 </r>
       <r>     2.7185     0.0000    16.0000 </r>
      </set>
     </set>
    </array>
   </total>
  </dos>
  <time name="totalsc">   64.94   65.10</time>
 </calculation>
 <calculation>
  <scstep>
   <time name="dav">    2.19    2.19</time>
   <time name="total">    4.07    4.08</time>
   <energy>
    <i name="alphaZ">      0.24454202 </i>
    <i name="ewald">    127.23569376 </i>
    <i name="hartreedc">   -283.00774734 </i>
    <i name="XCdc">     24.68423046 </i>
    <i name="pawpsdc">    433.22038097 </i>
    <i name="pawaedc">   -434.00406494 </i>
    <i name="eentropy">      0.01222391 </i>
    <i name="bandstr">    -89.40370053 </i>
    <i name="atom">    197.04175453 </i>
    <i name="e_fr_energy">    -23.97668718 </i>
    <i name="e_wo_entrp">    -23.98891109 </i>
    <i name="e_0_energy">    -23.98076182 </i>
   </energy>
  </scstep>
  <scstep>
   <time name="diag">    0.49    0.49</time>
   <time name="diis">    1.59    1.59</time>
   <time name="orth">    0.01    0.01</time>
   <time name="total">    3.84    3.85</time>
   <energy>
    <i name="e_fr_energy">    -23.97729096 </i>
    <i name="e_wo_entrp">    -23.99027944 </i>
    <i name="e_0_energy">    -23.98162046 </i>
   </energy>
  </scstep>
  <scstep>
   <time name="diag">    0.48    0.48</time>
   <time name="diis">    1.61    1.61</time>
   <time name="orth">    0.01    0.01</time>
   <time name="total">    3.87    3.88</time>
   <energy>
    <i name="e_fr_energy">    -23.97653237 </i>
    <i name="e_wo_entrp">    -23.98897743 </i>
    <i name="e_0_energy">    -23.98068073 </i>
   </energy>
  </scstep>
  <scstep>
   <time name="diag">    0.51    0.51</time>
   <time name="diis">    1.58    1.58</time>
   <time name="orth">    0.01    0.01</time>
   <time name="total">    3.88    3.89</time>
   <energy>
    <i name="e_fr_energy">    -23.97686883 </i>
    <i name="e_wo_entrp">    -23.98936634 </i>
    <i name="e_0_energy">    -23.98103467 </i>
   </energy>
  </scstep>
  <scstep>
   <time name="diag">    0.49    0.49</time>
   <time name="diis">    1.60    1.60</time>
   <time name="orth">    0.01    0.01</time>
   <time name="total">    3.95    3.95</time>
   <energy>
    <i name="e_fr_energy">    -23.97702950 </i>
    <i name="e_wo_entrp">    -23.98934189 </i>
    <i name="e_0_energy">    -23.98113363 </i>
   </energy>
  </scstep>
  <scstep>
   <time name="diag">    0.49    0.49</time>
   <time name="diis">    1.62    1.63</time>
   <time name="orth">    0.01    0.01</time>
   <time name="total">    3.97    3.98</time>
   <energy>
    <i name="e_fr_energy">    -23.97703203 </i>
    <i name="e_wo_entrp">    -23.98933771 </i>
    <i name="e_0_energy">    -23.98113392 </i>
   </energy>
  </scstep>
  <scstep>
   <time name="diag">    0.49    0.49</time>
   <time name="diis">    1.63    1.63</time>
   <time name="orth">    0.01    0.01</time>
   <time name="total">    3.98    3.99</time>
   <energy>
    <i name="e_fr_energy">    -23.97704599 </i>
    <i name="e_wo_entrp">    -23.98933109 </i>
    <i name="e_0_energy">    -23.98114102 </i>
   </energy>
  </scstep>
  <scstep>
   <time name="diag">    0.49    0.49</time>
   <time name="diis">    1.58    1.59</time>
   <time name="orth">    0.01    0.01</time>
   <time name="total">    3.94    3.95</time>
   <energy>
    <i name="e_fr_energy">    -23.97707334 </i>
    <i name="e_wo_entrp">    -23.98934017 </i>
    <i name="e_0_energy">    -23.98116228 </i>
   </energy>
  </scstep>
  <scstep>
   <time name="diag">    0.50    0.50</time>
   <time name="diis">    1.23    1.23</time>
   <time name="orth">    0.01    0.01</time>
   <time name="total">    3.59    3.60</time>
   <energy>
    <i name="e_fr_energy">    -23.97707869 </i>
    <i name="e_wo_entrp">    -23.98934217 </i>
    <i name="e_0_energy">    -23.98116652 </i>
   </energy>
  </scstep>
  <scstep>
   <time name="diag">    0.50    0.50</time>
   <time name="diis">    1.43    1.43</time>
   <time name="orth">    0.01    0.01</time>
   <time name="total">    3.87    3.88</time>
   <energy>
    <i name="e_fr_energy">    -23.97708618 </i>
    <i name="e_wo_entrp">    -23.98935145 </i>
    <i name="e_0_energy">    -23.98117460 </i>
   </energy>
  </scstep>
  <scstep>
   <time name="diag">    0.47    0.48</time>
   <time name="diis">    1.42    1.42</time>
   <time name="orth">    0.01    0.01</time>
   <time name="total">    3.91    3.92</time>
   <energy>
    <i name="e_fr_energy">    -23.97708789 </i>
    <i name="e_wo_entrp">    -23.98935153 </i>
    <i name="e_0_energy">    -23.98117577 </i>
   </energy>
  </scstep>
  <scstep>
   <time name="diag">    0.48    0.48</time>
   <time name="diis">    1.21    1.21</time>
   <time name="orth">    0.01    0.01</time>
   <time name="total">    3.72    3.73</time>
   <energy>
    <i name="e_fr_energy">    -23.97708925 </i>
    <i name="e_wo_entrp">    -23.98935307 </i>
    <i name="e_0_energy">    -23.98117719 </i>
   </energy>
  </scstep>
  <scstep>
   <time name="diag">    0.47    0.47</time>
   <time name="diis">    1.22    1.22</time>
   <time name="orth">    0.01    0.01</time>
   <time name="total">    3.38    3.39</time>
   <energy>
    <i name="alphaZ">      0.24454202 </i>
    <i name="ewald">    127.23569376 </i>
    <i name="hartreedc">   -283.10498059 </i>
    <i name="XCdc">     24.68827009 </i>
    <i name="pawpsdc">    442.37870459 </i>
    <i name="pawaedc">   -443.16396822 </i>
    <i name="eentropy">      0.01226332 </i>
    <i name="bandstr">    -89.30936972 </i>
    <i name="atom">    197.04175453 </i>
    <i name="e_fr_energy">    -23.97709023 </i>
    <i name="e_wo_entrp">    -23.98935355 </i>
    <i name="e_0_energy">    -23.98117800 </i>
   </energy>
  </scstep>
  <structure>
   <crystal>
    <varray name="basis" >
     <v>       9.92981130       0.00000000       0.00000000 </v>
     <v>      -0.14026969       9.82197895       0.00000000 </v>
     <v>       0.16360391       0.24149372      10.15714655 </v>
    </varray>
    <i name="volume">    990.63054063 </i>
    <varray name="rec_basis" >
     <v>       0.10070685       0.00143822      -0.00165631 </v>
     <v>       0.00000000       0.10181248      -0.00242067 </v>
     <v>       0.00000000      -0.00000000       0.09845285 </v>
    </varray>
   </crystal>
   <varray name="positions" >
    <v>       0.53577524       0.40710385       0.36168542 </v>
    <v>       0.39797073       0.47842057       0.43779125 </v>
    <v>       0.54757068       0.57411302       0.44384399 </v>
    <v>       0.52851537       0.41437150       0.54128841 </v>
    <v>       0.50336779       0.46648445       0.44547045 </v>
   </varray>
  </structure>
  <varray name="forces" >
   <v>       0.05923044       0.07242141      -0.27188549 </v>
   <v>      -0.65204048      -0.19722902      -0.16048861 </v>
   <v>      -0.05226390      -1.94889653       0.16374920 </v>
   <v>      -0.41514002      -0.02592307      -0.95062467 </v>
   <v>       0.03632414       1.45080210       0.61941132 </v>
  </varray>
  <varray name="stress" >
   <v>       1.58651781      -0.58503044      -0.55978663 </v>
   <v>      -0.58503044      -3.67908187       0.11151261 </v>
   <v>      -0.55978664       0.11151261      -2.00221885 </v>
  </varray>
  <energy>
   <i name="e_fr_energy">    -23.97709023 </i>
   <i name="e_wo_entrp">    -23.98117800 </i>
   <i name="e_0_energy">      0.01226332 </i>
   <i name="kinetic">      0.02693147 </i>
   <i name="lattice kinetic">      0.00000000 </i>
   <i name="nosepot">      0.00121749 </i>
   <i name="nosekinetic">      0.00056769 </i>
   <i name="total">    -23.94837358 </i>
  </energy>
  <dos>
   <i name="efermi">     -8.83702684 </i>
   <total>
    <array>
     <dimension dim="1">gridpoints</dimension>
     <dimension dim="2">spin</dimension>
     <field>energy</field>
     <field>total</field>
     <field>integrated</field>
     <set>
      <set comment="spin 1">
       <r>   -18.8714     0.0000     0.0000 </r>
       <r>   -18.7994     0.0000     0.0000 </r>
       <r>   -18.7275     0.0000     0.0000 </r>
       <r>   -18.6555     0.0000     0.0000 </r>
       <r>   -18.5836     0.0000     0.0000 </r>
       <r>   -18.5116    -0.0000    -0.0000 </r>
       <r>   -18.4396    -0.0000    -0.0000 </r>
       <r>   -18.3677    -0.0000    -0.0000 </r>
       <r>   -18.2957    -0.0000    -0.0000 </r>
       <r>   -18.2238    -0.0000    -0.0000 </r>
       <r>   -18.1518    -0.0000    -0.0000 </r>
       <r>   -18.0799    -0.0000    -0.0000 </r>
       <r>   -18.0079    -0.0000    -0.0000 </r>
       <r>   -17.9359    -0.0000    -0.0000 </r>
       <r>   -17.8640    -0.0000    -0.0000 </r>
       <r>   -17.7920    -0.0000    -0.0000 </r>
       <r>   -17.7201    -0.0000    -0.0000 </r>
       <r>   -17.6481    -0.0000    -0.0000 </r>
       <r>   -17.5762    -0.0001    -0.0000 </r>
       <r>   -17.5042    -0.0009    -0.0001 </r>
       <r>   -17.4322    -0.0064    -0.0005 </r>
       <r>   -17.3603    -0.0336    -0.0030 </r>
       <r>   -17.2883    -0.1263    -0.0120 </r>
       <r>   -17.2164    -0.3182    -0.0349 </r>
       <r>   -17.1444    -0.4306    -0.0659 </r>
       <r>   -17.0725     0.2024    -0.0514 </r>
       <r>   -17.0005     2.3967     0.1211 </r>
       <r>   -16.9285     5.7850     0.5374 </r>
       <r>   -16.8566     8.1625     1.1247 </r>
       <r>   -16.7846     7.4817     1.6631 </r>
       <r>   -16.7127     4.3587     1.9767 </r>
       <r>   -16.6407     1.2849     2.0692 </r>
       <r>   -16.5688    -0.2092     2.0541 </r>
       <r>   -16.4968    -0.4245     2.0236 </r>
       <r>   -16.4248    -0.2301     2.0070 </r>
       <r>   -16.3529    -0.0766     2.0015 </r>
       <r>   -16.2809    -0.0177     2.0002 </r>
       <r>   -16.2090    -0.0030     2.0000 </r>
       <r>   -16.1370    -0.0004     2.0000 </r>
       <r>   -16.0651    -0.0000     2.0000 </r>
       <r>   -15.9931    -0.0000     2.0000 </r>
       <r>   -15.9211    -0.0000     2.0000 </r>
       <r>   -15.8492    -0.0000     2.0000 </r>
       <r>   -15.7772    -0.0000     2.0000 </r>
       <r>   -15.7053    -0.0000     2.0000 </r>
       <r>   -15.6333    -0.0000     2.0000 </r>
       <r>   -15.5614     0.0000     2.0000 </r>
       <r>   -15.4894     0.0000     2.0000 </r>
       <r>   -15.4174     0.0000     2.0000 </r>
       <r>   -15.3455     0.0000     2.0000 </r>
       <r>   -15.2735     0.0000     2.0000 </r>
       <r>   -15.2016     0.0000     2.0000 </r>
       <r>   -15.1296     0.0000     2.0000 </r>
       <r>   -15.0577     0.0000     2.0000 </r>
       <r>   -14.9857     0.0000     2.0000 </r>
       <r>   -14.9137     0.0000     2.0000 </r>
       <r>   -14.8418     0.0000     2.0000 </r>
       <r>   -14.7698     0.0000     2.0000 </r>
       <r>   -14.6979     0.0000     2.0000 </r>
       <r>   -14.6259     0.0000     2.0000 </r>
       <r>   -14.5540     0.0000     2.0000 </r>
       <r>   -14.4820     0.0000     2.0000 </r>
       <r>   -14.4100     0.0000     2.0000 </r>
       <r>   -14.3381     0.0000     2.0000 </r>
       <r>   -14.2661     0.0000     2.0000 </r>
       <r>   -14.1942     0.0000     2.0000 </r>
       <r>   -14.1222     0.0000     2.0000 </r>
       <r>   -14.0503     0.0000     2.0000 </r>
       <r>   -13.9783     0.0000     2.0000 </r>
       <r>   -13.9063     0.0000     2.0000 </r>
       <r>   -13.8344     0.0000     2.0000 </r>
       <r>   -13.7624     0.0000     2.0000 </r>
       <r>   -13.6905     0.0000     2.0000 </r>
       <r>   -13.6185     0.0000     2.0000 </r>
       <r>   -13.5466     0.0000     2.0000 </r>
       <r>   -13.4746     0.0000     2.0000 </r>
       <r>   -13.4026     0.0000     2.0000 </r>
       <r>   -13.3307     0.0000     2.0000 </r>
       <r>   -13.2587     0.0000     2.0000 </r>
       <r>   -13.1868     0.0000     2.0000 </r>
       <r>   -13.1148     0.0000     2.0000 </r>
       <r>   -13.0429     0.0000     2.0000 </r>
       <r>   -12.9709     0.0000     2.0000 </r>
       <r>   -12.8989     0.0000     2.0000 </r>
       <r>   -12.8270     0.0000     2.0000 </r>
       <r>   -12.7550     0.0000     2.0000 </r>
       <r>   -12.6831     0.0000     2.0000 </r>
       <r>   -12.6111     0.0000     2.0000 </r>
       <r>   -12.5392     0.0000     2.0000 </r>
       <r>   -12.4672     0.0000     2.0000 </r>
       <r>   -12.3952     0.0000     2.0000 </r>
       <r>   -12.3233     0.0000     2.0000 </r>
       <r>   -12.2513     0.0000     2.0000 </r>
       <r>   -12.1794     0.0000     2.0000 </r>
       <r>   -12.1074     0.0000     2.0000 </r>
       <r>   -12.0354     0.0000     2.0000 </r>
       <r>   -11.9635     0.0000     2.0000 </r>
       <r>   -11.8915     0.0000     2.0000 </r>
[...]
       <r>     0.2689    -0.7213     9.9145 </r>
       <r>     0.3406    -0.7212     9.8628 </r>
       <r>     0.4123     0.8904     9.9267 </r>
       <r>     0.4840     5.5162    10.3222 </r>
       <r>     0.5557    12.8580    11.2442 </r>
       <r>     0.6275    19.6677    12.6546 </r>
       <r>     0.6992    21.4701    14.1942 </r>
       <r>     0.7709    16.6972    15.3915 </r>
       <r>     0.8426     8.6261    16.0101 </r>
       <r>     0.9143     2.1501    16.1643 </r>
       <r>     0.9860    -0.6557    16.1173 </r>
       <r>     1.0577    -0.9365    16.0501 </r>
       <r>     1.1294    -0.4896    16.0150 </r>
       <r>     1.2011    -0.1631    16.0033 </r>
       <r>     1.2728    -0.0384    16.0005 </r>
       <r>     1.3445    -0.0066    16.0001 </r>
       <r>     1.4163    -0.0009    16.0000 </r>
       <r>     1.4880    -0.0001    16.0000 </r>
       <r>     1.5597    -0.0000    16.0000 </r>
       <r>     1.6314    -0.0000    16.0000 </r>
       <r>     1.7031    -0.0000    16.0000 </r>
       <r>     1.7748    -0.0000    16.0000 </r>
       <r>     1.8465    -0.0000    16.0000 </r>
       <r>     1.9182    -0.0000    16.0000 </r>
       <r>     1.9899    -0.0000    16.0000 </r>
       <r>     2.0616     0.0000    16.0000 </r>
       <r>     2.1333     0.0000    16.0000 </r>
       <r>     2.2050     0.0000    16.0000 </r>
       <r>     2.2768     0.0000    16.0000 </r>
       <r>     2.3485     0.0000    16.0000 </r>
       <r>     2.4202     0.0000    16.0000 </r>
       <r>     2.4919     0.0000    16.0000 </r>
       <r>     2.5636     0.0000    16.0000 </r>
       <r>     2.6353     0.0000    16.0000 </r>
       <r>     2.7070     0.0000    16.0000 </r>
      </set>
     </set>
    </array>
   </total>
  </dos>
  <time name="totalsc">   76.20   76.69</time>
  <eigenvalues>
   <array>
    <dimension dim="1">band</dimension>
    <dimension dim="2">kpoint</dimension>
    <dimension dim="3">spin</dimension>
    <field>eigene</field>
    <field>occ</field>
    <set>
     <set comment="spin 1">
      <set comment="kpoint 1">
       <r>  -16.8306    1.0000 </r>
       <r>   -9.4487    1.0000 </r>
       <r>   -9.2731    1.0007 </r>
       <r>   -8.9173    0.9994 </r>
       <r>   -0.3283    0.0000 </r>
       <r>    0.5779    0.0000 </r>
       <r>    0.6764    0.0000 </r>
       <r>    0.7053    0.0000 </r>
      </set>
      <set comment="kpoint 2">
       <r>  -16.8305    1.0000 </r>
       <r>   -9.4492    1.0000 </r>
       <r>   -9.2730    1.0007 </r>
       <r>   -8.9172    0.9993 </r>
       <r>   -0.3284    0.0000 </r>
       <r>    0.5729    0.0000 </r>
       <r>    0.6723    0.0000 </r>
       <r>    0.7074    0.0000 </r>
      </set>
      <set comment="kpoint 3">
       <r>  -16.8307    1.0000 </r>
       <r>   -9.4490    1.0000 </r>
       <r>   -9.2731    1.0007 </r>
       <r>   -8.9172    0.9993 </r>
       <r>   -0.3264    0.0000 </r>
       <r>    0.5604    0.0000 </r>
       <r>    0.6824    0.0000 </r>
       <r>    0.6992    0.0000 </r>
      </set>
      <set comment="kpoint 4">
       <r>  -16.8305    1.0000 </r>
       <r>   -9.4491    1.0000 </r>
       <r>   -9.2731    1.0007 </r>
       <r>   -8.9172    0.9993 </r>
       <r>   -0.3207    0.0000 </r>
       <r>    0.5573    0.0000 </r>
       <r>    0.6595    0.0000 </r>
       <r>    0.6898    0.0000 </r>
      </set>
     </set>
    </set>
   </array>
  </eigenvalues>
  <separator name="orbital magnetization" >
   <v name="MAGDIPOLOUT">      0.00000000      0.00000000      0.00000000</v>
  </separator>
  <dos>
   <i name="efermi">     -8.74946560 </i>
   <total>
    <array>
     <dimension dim="1">gridpoints</dimension>
     <dimension dim="2">spin</dimension>
     <field>energy</field>
     <field>total</field>
     <field>integrated</field>
     <set>
      <set comment="spin 1">
       <r>   -18.8307     0.0000     0.0000 </r>
       <r>   -18.7589     0.0000     0.0000 </r>
       <r>   -18.6871     0.0000     0.0000 </r>
       <r>   -18.6153     0.0000     0.0000 </r>
       <r>   -18.5435     0.0000     0.0000 </r>
       <r>   -18.4717    -0.0000    -0.0000 </r>
       <r>   -18.3999    -0.0000    -0.0000 </r>
       <r>   -18.3281    -0.0000    -0.0000 </r>
       <r>   -18.2563    -0.0000    -0.0000 </r>
       <r>   -18.1845    -0.0000    -0.0000 </r>
       <r>   -18.1127    -0.0000    -0.0000 </r>
       <r>   -18.0409    -0.0000    -0.0000 </r>
       <r>   -17.9691    -0.0000    -0.0000 </r>
       <r>   -17.8973    -0.0000    -0.0000 </r>
       <r>   -17.8255    -0.0000    -0.0000 </r>
       <r>   -17.7537    -0.0000    -0.0000 </r>
       <r>   -17.6820    -0.0000    -0.0000 </r>
       <r>   -17.6102    -0.0000    -0.0000 </r>
       <r>   -17.5384    -0.0001    -0.0000 </r>
       <r>   -17.4666    -0.0008    -0.0001 </r>
       <r>   -17.3948    -0.0059    -0.0005 </r>
       <r>   -17.3230    -0.0313    -0.0027 </r>
       <r>   -17.2512    -0.1193    -0.0113 </r>
       <r>   -17.1794    -0.3070    -0.0333 </r>
       <r>   -17.1076    -0.4355    -0.0646 </r>
       <r>   -17.0358     0.1302    -0.0553 </r>
       <r>   -16.9640     2.2217     0.1042 </r>
       <r>   -16.8922     5.5797     0.5048 </r>
       <r>   -16.8204     8.0926     1.0858 </r>
       <r>   -16.7486     7.6239     1.6332 </r>
       <r>   -16.6768     4.5970     1.9632 </r>
       <r>   -16.6051     1.4542     2.0676 </r>
       <r>   -16.5333    -0.1550     2.0565 </r>
       <r>   -16.4615    -0.4319     2.0255 </r>
       <r>   -16.3897    -0.2461     2.0078 </r>
       <r>   -16.3179    -0.0847     2.0017 </r>
       <r>   -16.2461    -0.0202     2.0003 </r>
       <r>   -16.1743    -0.0035     2.0000 </r>
       <r>   -16.1025    -0.0004     2.0000 </r>
       <r>   -16.0307    -0.0000     2.0000 </r>
       <r>   -15.9589    -0.0000     2.0000 </r>
       <r>   -15.8871    -0.0000     2.0000 </r>
       <r>   -15.8153    -0.0000     2.0000 </r>
       <r>   -15.7435    -0.0000     2.0000 </r>
       <r>   -15.6717    -0.0000     2.0000 </r>
       <r>   -15.5999    -0.0000     2.0000 </r>
       <r>   -15.5282     0.0000     2.0000 </r>
       <r>   -15.4564     0.0000     2.0000 </r>
       <r>   -15.3846     0.0000     2.0000 </r>
       <r>   -15.3128     0.0000     2.0000 </r>
       <r>   -15.2410     0.0000     2.0000 </r>
       <r>   -15.1692     0.0000     2.0000 </r>
       <r>   -15.0974     0.0000     2.0000 </r>
       <r>   -15.0256     0.0000     2.0000 </r>
       <r>   -14.9538     0.0000     2.0000 </r>
       <r>   -14.8820     0.0000     2.0000 </r>
       <r>   -14.8102     0.0000     2.0000 </r>
       <r>   -14.7384     0.0000     2.0000 </r>
       <r>   -14.6666     0.0000     2.0000 </r>
       <r>   -14.5948     0.0000     2.0000 </r>
       <r>   -14.5230     0.0000     2.0000 </r>
       <r>   -14.4512     0.0000     2.0000 </r>
       <r>   -14.3795     0.0000     2.0000 </r>
       <r>   -14.3077     0.0000     2.0000 </r>
       <r>   -14.2359     0.0000     2.0000 </r>
       <r>   -14.1641     0.0000     2.0000 </r>
       <r>   -14.0923     0.0000     2.0000 </r>
       <r>   -14.0205     0.0000     2.0000 </r>
       <r>   -13.9487     0.0000     2.0000 </r>
       <r>   -13.8769     0.0000     2.0000 </r>
       <r>   -13.8051     0.0000     2.0000 </r>
       <r>   -13.7333     0.0000     2.0000 </r>
       <r>   -13.6615     0.0000     2.0000 </r>
       <r>   -13.5897     0.0000     2.0000 </r>
       <r>   -13.5179     0.0000     2.0000 </r>
       <r>   -13.4461     0.0000     2.0000 </r>
       <r>   -13.3743     0.0000     2.0000 </r>
       <r>   -13.3026     0.0000     2.0000 </r>
       <r>   -13.2308     0.0000     2.0000 </r>
       <r>   -13.1590     0.0000     2.0000 </r>
       <r>   -13.0872     0.0000     2.0000 </r>
       <r>   -13.0154     0.0000     2.0000 </r>
       <r>   -12.9436     0.0000     2.0000 </r>
       <r>   -12.8718     0.0000     2.0000 </r>
       <r>   -12.8000     0.0000     2.0000 </r>
       <r>   -12.7282     0.0000     2.0000 </r>
       <r>   -12.6564     0.0000     2.0000 </r>
       <r>   -12.5846     0.0000     2.0000 </r>
       <r>   -12.5128     0.0000     2.0000 </r>
       <r>   -12.4410     0.0000     2.0000 </r>
       <r>   -12.3692     0.0000     2.0000 </r>
       <r>   -12.2974     0.0000     2.0000 </r>
       <r>   -12.2256     0.0000     2.0000 </r>
       <r>   -12.1539     0.0000     2.0000 </r>
       <r>   -12.0821     0.0000     2.0000 </r>
       <r>   -12.0103     0.0000     2.0000 </r>
       <r>   -11.9385     0.0000     2.0000 </r>
       <r>   -11.8667     0.0000     2.0000 </r>
       <r>   -11.7949     0.0000     2.0000 </r>
       <r>   -11.7231     0.0000     2.0000 </r>
       <r>   -11.6513     0.0000     2.0000 </r>
       <r>   -11.5795     0.0000     2.0000 </r>
       <r>   -11.5077     0.0000     2.0000 </r>
       <r>   -11.4359     0.0000     2.0000 </r>
       <r>   -11.3641     0.0000     2.0000 </r>
       <r>   -11.2923     0.0000     2.0000 </r>
       <r>   -11.2205     0.0000     2.0000 </r>
       <r>   -11.1487     0.0000     2.0000 </r>
       <r>   -11.0770    -0.0000     2.0000 </r>
       <r>   -11.0052    -0.0000     2.0000 </r>
       <r>   -10.9334    -0.0000     2.0000 </r>
       <r>   -10.8616    -0.0000     2.0000 </r>
       <r>   -10.7898    -0.0000     2.0000 </r>
       <r>   -10.7180    -0.0000     2.0000 </r>
       <r>   -10.6462    -0.0000     2.0000 </r>
       <r>   -10.5744    -0.0000     2.0000 </r>
       <r>   -10.5026    -0.0000     2.0000 </r>
       <r>   -10.4308    -0.0000     2.0000 </r>
       <r>   -10.3590    -0.0000     2.0000 </r>
       <r>   -10.2872    -0.0000     2.0000 </r>
       <r>   -10.2154    -0.0000     2.0000 </r>
       <r>   -10.1436    -0.0001     2.0000 </r>
       <r>   -10.0718    -0.0012     1.9999 </r>
       <r>   -10.0001    -0.0083     1.9993 </r>
       <r>    -9.9283    -0.0415     1.9963 </r>
       <r>    -9.8565    -0.1501     1.9856 </r>
       <r>    -9.7847    -0.3670     1.9592 </r>
       <r>    -9.7129    -0.4971     1.9235 </r>
       <r>    -9.6411     0.1337     1.9331 </r>
       <r>    -9.5693     2.3492     2.1018 </r>
       <r>    -9.4975     6.0391     2.5353 </r>
       <r>    -9.4257     9.7310     3.2340 </r>
       <r>    -9.3539    11.7601     4.0783 </r>
       <r>    -9.2821    11.3523     4.8933 </r>
       <r>    -9.2103     8.6662     5.5155 </r>
       <r>    -9.1385     5.1419     5.8846 </r>
       <r>    -9.0667     3.3693     6.1265 </r>
       <r>    -8.9949     4.7068     6.4644 </r>
       <r>    -8.9231     7.2381     6.9841 </r>
       <r>    -8.8514     7.6965     7.5367 </r>
       <r>    -8.7796     5.2584     7.9142 </r>
       <r>    -8.7078     2.0202     8.0592 </r>
       <r>    -8.6360     0.0548     8.0631 </r>
       <r>    -8.5642    -0.4392     8.0316 </r>
       <r>    -8.4924    -0.2942     8.0105 </r>
       <r>    -8.4206    -0.1113     8.0025 </r>
       <r>    -8.3488    -0.0286     8.0004 </r>
       <r>    -8.2770    -0.0053     8.0001 </r>
       <r>    -8.2052    -0.0007     8.0000 </r>
       <r>    -8.1334    -0.0001     8.0000 </r>
       <r>    -8.0616    -0.0000     8.0000 </r>
       <r>    -7.9898    -0.0000     8.0000 </r>
       <r>    -7.9180    -0.0000     8.0000 </r>
       <r>    -7.8462    -0.0000     8.0000 </r>
       <r>    -7.7745    -0.0000     8.0000 </r>
       <r>    -7.7027    -0.0000     8.0000 </r>
       <r>    -7.6309    -0.0000     8.0000 </r>
       <r>    -7.5591     0.0000     8.0000 </r>
       <r>    -7.4873     0.0000     8.0000 </r>
       <r>    -7.4155     0.0000     8.0000 </r>
       <r>    -7.3437     0.0000     8.0000 </r>
       <r>    -7.2719     0.0000     8.0000 </r>
       <r>    -7.2001     0.0000     8.0000 </r>
       <r>    -7.1283     0.0000     8.0000 </r>
       <r>    -7.0565     0.0000     8.0000 </r>
       <r>    -6.9847     0.0000     8.0000 </r>
       <r>    -6.9129     0.0000     8.0000 </r>
       <r>    -6.8411     0.0000     8.0000 </r>
       <r>    -6.7693     0.0000     8.0000 </r>
       <r>    -6.6975     0.0000     8.0000 </r>
       <r>    -6.6258     0.0000     8.0000 </r>
       <r>    -6.5540     0.0000     8.0000 </r>
       <r>    -6.4822     0.0000     8.0000 </r>
       <r>    -6.4104     0.0000     8.0000 </r>
       <r>    -6.3386     0.0000     8.0000 </r>
       <r>    -6.2668     0.0000     8.0000 </r>
       <r>    -6.1950     0.0000     8.0000 </r>
       <r>    -6.1232     0.0000     8.0000 </r>
       <r>    -6.0514     0.0000     8.0000 </r>
       <r>    -5.9796     0.0000     8.0000 </r>
       <r>    -5.9078     0.0000     8.0000 </r>
       <r>    -5.8360     0.0000     8.0000 </r>
       <r>    -5.7642     0.0000     8.0000 </r>
       <r>    -5.6924     0.0000     8.0000 </r>
       <r>    -5.6206     0.0000     8.0000 </r>
       <r>    -5.5489     0.0000     8.0000 </r>
       <r>    -5.4771     0.0000     8.0000 </r>
       <r>    -5.4053     0.0000     8.0000 </r>
       <r>    -5.3335     0.0000     8.0000 </r>
       <r>    -5.2617     0.0000     8.0000 </r>
       <r>    -5.1899     0.0000     8.0000 </r>
       <r>    -5.1181     0.0000     8.0000 </r>
       <r>    -5.0463     0.0000     8.0000 </r>
       <r>    -4.9745     0.0000     8.0000 </r>
       <r>    -4.9027     0.0000     8.0000 </r>
       <r>    -4.8309     0.0000     8.0000 </r>
       <r>    -4.7591     0.0000     8.0000 </r>
       <r>    -4.6873     0.0000     8.0000 </r>
       <r>    -4.6155     0.0000     8.0000 </r>
       <r>    -4.5437     0.0000     8.0000 </r>
       <r>    -4.4720     0.0000     8.0000 </r>
       <r>    -4.4002     0.0000     8.0000 </r>
       <r>    -4.3284     0.0000     8.0000 </r>
       <r>    -4.2566     0.0000     8.0000 </r>
       <r>    -4.1848     0.0000     8.0000 </r>
       <r>    -4.1130     0.0000     8.0000 </r>
       <r>    -4.0412     0.0000     8.0000 </r>
       <r>    -3.9694     0.0000     8.0000 </r>
       <r>    -3.8976     0.0000     8.0000 </r>
       <r>    -3.8258     0.0000     8.0000 </r>
       <r>    -3.7540     0.0000     8.0000 </r>
       <r>    -3.6822     0.0000     8.0000 </r>
       <r>    -3.6104     0.0000     8.0000 </r>
       <r>    -3.5386     0.0000     8.0000 </r>
       <r>    -3.4668     0.0000     8.0000 </r>
       <r>    -3.3950     0.0000     8.0000 </r>
       <r>    -3.3233     0.0000     8.0000 </r>
       <r>    -3.2515     0.0000     8.0000 </r>
       <r>    -3.1797     0.0000     8.0000 </r>
       <r>    -3.1079     0.0000     8.0000 </r>
       <r>    -3.0361     0.0000     8.0000 </r>
       <r>    -2.9643     0.0000     8.0000 </r>
       <r>    -2.8925     0.0000     8.0000 </r>
       <r>    -2.8207     0.0000     8.0000 </r>
       <r>    -2.7489     0.0000     8.0000 </r>
       <r>    -2.6771     0.0000     8.0000 </r>
       <r>    -2.6053     0.0000     8.0000 </r>
       <r>    -2.5335     0.0000     8.0000 </r>
       <r>    -2.4617     0.0000     8.0000 </r>
       <r>    -2.3899     0.0000     8.0000 </r>
       <r>    -2.3181     0.0000     8.0000 </r>
       <r>    -2.2464     0.0000     8.0000 </r>
       <r>    -2.1746     0.0000     8.0000 </r>
       <r>    -2.1028     0.0000     8.0000 </r>
       <r>    -2.0310     0.0000     8.0000 </r>
       <r>    -1.9592    -0.0000     8.0000 </r>
       <r>    -1.8874    -0.0000     8.0000 </r>
       <r>    -1.8156    -0.0000     8.0000 </r>
       <r>    -1.7438    -0.0000     8.0000 </r>
       <r>    -1.6720    -0.0000     8.0000 </r>
       <r>    -1.6002    -0.0000     8.0000 </r>
       <r>    -1.5284    -0.0000     8.0000 </r>
       <r>    -1.4566    -0.0000     8.0000 </r>
       <r>    -1.3848    -0.0000     8.0000 </r>
       <r>    -1.3130    -0.0000     8.0000 </r>
       <r>    -1.2412    -0.0000     8.0000 </r>
       <r>    -1.1694    -0.0000     8.0000 </r>
       <r>    -1.0977    -0.0000     8.0000 </r>
       <r>    -1.0259    -0.0001     8.0000 </r>
       <r>    -0.9541    -0.0010     7.9999 </r>
       <r>    -0.8823    -0.0072     7.9994 </r>
       <r>    -0.8105    -0.0370     7.9967 </r>
       <r>    -0.7387    -0.1352     7.9870 </r>
       <r>    -0.6669    -0.3307     7.9633 </r>
       <r>    -0.5951    -0.4230     7.9329 </r>
       <r>    -0.5233     0.2765     7.9528 </r>
       <r>    -0.4515     2.5539     8.1361 </r>
       <r>    -0.3797     5.9462     8.5630 </r>
       <r>    -0.3079     8.2034     9.1520 </r>
       <r>    -0.2361     7.3775     9.6816 </r>
       <r>    -0.1643     4.2115     9.9840 </r>
       <r>    -0.0925     1.1935    10.0697 </r>
       <r>    -0.0208    -0.2371    10.0527 </r>
       <r>     0.0510    -0.4410    10.0210 </r>
       <r>     0.1228    -0.3169     9.9982 </r>
       <r>     0.1946    -0.3768     9.9712 </r>
       <r>     0.2664    -0.6877     9.9218 </r>
       <r>     0.3382    -0.8002     9.8644 </r>
       <r>     0.4100     0.5150     9.9014 </r>
       <r>     0.4818     4.7890    10.2452 </r>
       <r>     0.5536    12.0566    11.1108 </r>
       <r>     0.6254    19.2843    12.4952 </r>
       <r>     0.6972    21.7745    14.0585 </r>
       <r>     0.7690    17.4593    15.3120 </r>
       <r>     0.8408     9.3496    15.9832 </r>
       <r>     0.9126     2.5324    16.1650 </r>
       <r>     0.9844    -0.5714    16.1240 </r>
       <r>     1.0561    -0.9695    16.0544 </r>
       <r>     1.1279    -0.5264    16.0166 </r>
       <r>     1.1997    -0.1795    16.0037 </r>
       <r>     1.2715    -0.0430    16.0006 </r>
       <r>     1.3433    -0.0076    16.0001 </r>
       <r>     1.4151    -0.0010    16.0000 </r>
       <r>     1.4869    -0.0001    16.0000 </r>
       <r>     1.5587    -0.0000    16.0000 </r>
       <r>     1.6305    -0.0000    16.0000 </r>
       <r>     1.7023    -0.0000    16.0000 </r>
       <r>     1.7741    -0.0000    16.0000 </r>
       <r>     1.8459    -0.0000    16.0000 </r>
       <r>     1.9177    -0.0000    16.0000 </r>
       <r>     1.9895    -0.0000    16.0000 </r>
       <r>     2.0613     0.0000    16.0000 </r>
       <r>     2.1331     0.0000    16.0000 </r>
       <r>     2.2048     0.0000    16.0000 </r>
       <r>     2.2766     0.0000    16.0000 </r>
       <r>     2.3484     0.0000    16.0000 </r>
       <r>     2.4202     0.0000    16.0000 </r>
       <r>     2.4920     0.0000    16.0000 </r>
       <r>     2.5638     0.0000    16.0000 </r>
       <r>     2.6356     0.0000    16.0000 </r>
       <r>     2.7074     0.0000    16.0000 </r>
      </set>
     </set>
    </array>
   </total>
  </dos>
 </calculation>
 <structure name="finalpos" >
  <crystal>
   <varray name="basis" >
    <v>       9.92981130       0.00000000       0.00000000 </v>
    <v>      -0.14026969       9.82197895       0.00000000 </v>
    <v>       0.16360391       0.24149372      10.15714655 </v>
   </varray>
   <i name="volume">    990.63054063 </i>
   <varray name="rec_basis" >
    <v>       0.10070685       0.00143822      -0.00165631 </v>
    <v>       0.00000000       0.10181248      -0.00242067 </v>
    <v>       0.00000000      -0.00000000       0.09845285 </v>
   </varray>
  </crystal>
  <varray name="positions" >
   <v>       0.55029113       0.40898456       0.36689492 </v>
   <v>       0.39019763       0.46647173       0.44286277 </v>
   <v>       0.54243429       0.57178946       0.44326476 </v>
   <v>       0.53995724       0.42097143       0.53874720 </v>
   <v>       0.50228143       0.46696666       0.44487428 </v>
  </varray>
  <varray name="velocities" >
   <v>       0.00008664      -0.00000704       0.00491184 </v>
   <v>      -0.00371602      -0.00229782       0.00280802 </v>
   <v>      -0.00199032      -0.00190706       0.00084454 </v>
   <v>       0.00187186       0.00078671       0.00072565 </v>
   <v>       0.00031203       0.00028517      -0.00077346 </v>
  </varray>
 </structure>
</modeling>
