unknown system                          
           1
     9.929811    0.000000    0.000000
    -0.140270    9.821979    0.000000
     0.163604    0.241494   10.157147
   H    C 
   4   1
Direct configuration=     1
   0.53845157  0.40655550  0.36088223
   0.39404241  0.48108560  0.43828634
   0.55206671  0.56547638  0.44285607
   0.52812255  0.41649496  0.53916108
   0.50313041  0.46685049  0.44575547
Direct configuration=     2
   0.53669562  0.40675294  0.36159918
   0.39700391  0.48014705  0.43815476
   0.54972315  0.57044265  0.44423268
   0.52866184  0.41557558  0.54200486
   0.50318025  0.46657526  0.44535536
Direct configuration=     3
   0.53577524  0.40710385  0.36168542
   0.39797073  0.47842057  0.43779125
   0.54757068  0.57411302  0.44384399
   0.52851537  0.41437150  0.54128841
   0.50336779  0.46648445  0.44547045
Direct configuration=     4
   0.53536581  0.40791094  0.36088678
   0.39665387  0.47612295  0.43697003
   0.54538058  0.57026735  0.44421996
   0.52707616  0.41332861  0.53714225
   0.50381368  0.46701555  0.44591921
Direct configuration=     5
   0.53665798  0.40953597  0.35869123
   0.39642108  0.47401277  0.43688952
   0.54267628  0.56761143  0.44346885
   0.52715126  0.41173404  0.53421347
   0.50394438  0.46740983  0.44641509
Direct configuration=     6
   0.53806422  0.41379341  0.35806053
   0.39778578  0.47176716  0.43784745
   0.54392526  0.57298805  0.44217151
   0.52871181  0.40961991  0.53680781
   0.50347977  0.46697071  0.44627986
Direct configuration=     7
   0.54079386  0.41859248  0.35762075
   0.39563853  0.47076294  0.43695281
   0.54433303  0.57502818  0.44049813
   0.53027320  0.40989872  0.53893510
   0.50326733  0.46646169  0.44635317
Direct configuration=     8
   0.54470999  0.41780731  0.35839170
   0.39408587  0.47131966  0.43724667
   0.54237007  0.56822874  0.44016646
   0.53272045  0.41419748  0.53901285
   0.50303024  0.46668891  0.44628565
Direct configuration=     9
   0.54778336  0.41338850  0.35990827
   0.39413307  0.47007604  0.43869581
   0.54270338  0.56801277  0.44118119
   0.53581977  0.41840810  0.53806298
   0.50248464  0.46682776  0.44603334
Direct configuration=    10
   0.55020448  0.40899159  0.36198308
   0.39391364  0.46876955  0.44005475
   0.54442461  0.57369652  0.44242022
   0.53808537  0.42018472  0.53802155
   0.50196940  0.46668148  0.44564775
