   5   5   0   0
  0.2138418E+03  0.1022942E-08  0.1019144E-08  0.1026194E-08  0.2000000E-14
   50.000000000000000     
  CAR 
 unknown system                          
      2.67295917    -18.69643161  301     -8.97173375      1.00000000
    -18.696  0.0000E+00  0.0000E+00
    -18.625  0.0000E+00  0.0000E+00
    -18.554  0.0000E+00  0.0000E+00
    -18.483  0.0000E+00  0.0000E+00
    -18.412  0.0000E+00  0.0000E+00
    -18.340 -0.2976E-27 -0.2120E-28
    -18.269 -0.8720E-25 -0.6232E-26
    -18.198 -0.1983E-22 -0.1419E-23
    -18.127 -0.3491E-20 -0.2501E-21
    -18.055 -0.4754E-18 -0.3412E-19
    -17.984 -0.5008E-16 -0.3601E-17
    -17.913 -0.4078E-14 -0.2941E-15
    -17.842 -0.2488E-12 -0.1801E-13
    -17.770 -0.1204E-10 -0.8753E-12
    -17.699 -0.4486E-09 -0.3283E-10
    -17.628 -0.1287E-07 -0.9496E-09
    -17.557 -0.2836E-06 -0.2115E-07
    -17.485 -0.4789E-05 -0.3622E-06
    -17.414 -0.6173E-04 -0.4759E-05
    -17.343 -0.6043E-03 -0.4781E-04
    -17.272 -0.4459E-02 -0.3654E-03
    -17.201 -0.2448E-01 -0.2109E-02
    -17.129 -0.9762E-01 -0.9062E-02
    -17.058 -0.2688E+00 -0.2821E-01
    -16.987 -0.4382E+00 -0.5943E-01
    -16.916 -0.7676E-01 -0.6489E-01
    -16.844  0.1667E+01  0.5383E-01
    -16.773  0.4864E+01  0.4003E+00
    -16.702  0.7760E+01  0.9530E+00
    -16.631  0.8016E+01  0.1524E+01
    -16.559  0.5401E+01  0.1909E+01
    -16.488  0.2091E+01  0.2058E+01
    -16.417  0.8516E-01  0.2064E+01
    -16.346 -0.4376E+00  0.2033E+01
    -16.275 -0.3024E+00  0.2011E+01
    -16.203 -0.1174E+00  0.2003E+01
    -16.132 -0.3103E-01  0.2000E+01
    -16.061 -0.5931E-02  0.2000E+01
    -15.990 -0.8409E-03  0.2000E+01
    -15.918 -0.8970E-04  0.2000E+01
    -15.847 -0.7261E-05  0.2000E+01
    -15.776 -0.4484E-06  0.2000E+01
    -15.705 -0.2121E-07  0.2000E+01
    -15.633 -0.7702E-09  0.2000E+01
    -15.562 -0.2152E-10  0.2000E+01
    -15.491 -0.4629E-12  0.2000E+01
    -15.420 -0.6234E-14  0.2000E+01
    -15.349  0.0000E+00  0.2000E+01
    -15.277  0.0000E+00  0.2000E+01
    -15.206  0.0000E+00  0.2000E+01
    -15.135  0.0000E+00  0.2000E+01
    -15.064  0.0000E+00  0.2000E+01
    -14.992  0.0000E+00  0.2000E+01
    -14.921  0.0000E+00  0.2000E+01
    -14.850  0.0000E+00  0.2000E+01
    -14.779  0.0000E+00  0.2000E+01
    -14.707  0.0000E+00  0.2000E+01
    -14.636  0.0000E+00  0.2000E+01
    -14.565  0.0000E+00  0.2000E+01
    -14.494  0.0000E+00  0.2000E+01
    -14.423  0.0000E+00  0.2000E+01
    -14.351  0.0000E+00  0.2000E+01
    -14.280  0.0000E+00  0.2000E+01
    -14.209  0.0000E+00  0.2000E+01
    -14.138  0.0000E+00  0.2000E+01
    -14.066  0.0000E+00  0.2000E+01
    -13.995  0.0000E+00  0.2000E+01
    -13.924  0.0000E+00  0.2000E+01
    -13.853  0.0000E+00  0.2000E+01
    -13.781  0.0000E+00  0.2000E+01
    -13.710  0.0000E+00  0.2000E+01
    -13.639  0.0000E+00  0.2000E+01
    -13.568  0.0000E+00  0.2000E+01
    -13.497  0.0000E+00  0.2000E+01
    -13.425  0.0000E+00  0.2000E+01
    -13.354  0.0000E+00  0.2000E+01
    -13.283  0.0000E+00  0.2000E+01
    -13.212  0.0000E+00  0.2000E+01
    -13.140  0.0000E+00  0.2000E+01
    -13.069  0.0000E+00  0.2000E+01
    -12.998  0.0000E+00  0.2000E+01
    -12.927  0.0000E+00  0.2000E+01
    -12.855  0.0000E+00  0.2000E+01
    -12.784  0.0000E+00  0.2000E+01
    -12.713  0.0000E+00  0.2000E+01
    -12.642  0.0000E+00  0.2000E+01
    -12.571  0.0000E+00  0.2000E+01
    -12.499  0.0000E+00  0.2000E+01
    -12.428  0.0000E+00  0.2000E+01
    -12.357  0.0000E+00  0.2000E+01
    -12.286  0.0000E+00  0.2000E+01
    -12.214  0.0000E+00  0.2000E+01
    -12.143  0.0000E+00  0.2000E+01
    -12.072  0.0000E+00  0.2000E+01
    -12.001  0.0000E+00  0.2000E+01
    -11.929  0.0000E+00  0.2000E+01
    -11.858  0.0000E+00  0.2000E+01
    -11.787  0.0000E+00  0.2000E+01
    -11.716  0.0000E+00  0.2000E+01
    -11.645  0.0000E+00  0.2000E+01
    -11.573  0.0000E+00  0.2000E+01
    -11.502  0.0000E+00  0.2000E+01
    -11.431  0.0000E+00  0.2000E+01
    -11.360  0.0000E+00  0.2000E+01
    -11.288  0.0000E+00  0.2000E+01
    -11.217  0.0000E+00  0.2000E+01
    -11.146  0.0000E+00  0.2000E+01
    -11.075  0.0000E+00  0.2000E+01
    -11.003  0.0000E+00  0.2000E+01
    -10.932 -0.7115E-27  0.2000E+01
    -10.861 -0.2006E-24  0.2000E+01
    -10.790 -0.4390E-22  0.2000E+01
    -10.719 -0.7434E-20  0.2000E+01
    -10.647 -0.9741E-18  0.2000E+01
    -10.576 -0.9871E-16  0.2000E+01
    -10.505 -0.7732E-14  0.2000E+01
    -10.434 -0.4539E-12  0.2000E+01
    -10.362 -0.2110E-10  0.2000E+01
    -10.291 -0.7563E-09  0.2000E+01
    -10.220 -0.2086E-07  0.2000E+01
    -10.149 -0.4419E-06  0.2000E+01
    -10.077 -0.7173E-05  0.2000E+01
    -10.006 -0.8890E-04  0.2000E+01
     -9.935 -0.8373E-03  0.2000E+01
     -9.864 -0.5952E-02  0.2000E+01
     -9.793 -0.3159E-01  0.1997E+01
     -9.721 -0.1229E+00  0.1989E+01
     -9.650 -0.3374E+00  0.1964E+01
     -9.579 -0.5913E+00  0.1922E+01
     -9.508 -0.3764E+00  0.1896E+01
     -9.436  0.1236E+01  0.1984E+01
     -9.365  0.4931E+01  0.2335E+01
     -9.294  0.1039E+02  0.3075E+01
     -9.223  0.1611E+02  0.4223E+01
     -9.151  0.1952E+02  0.5613E+01
     -9.080  0.1810E+02  0.6903E+01
     -9.009  0.1204E+02  0.7760E+01
     -8.938  0.4950E+01  0.8113E+01
     -8.867  0.4466E+00  0.8145E+01
     -8.795 -0.9170E+00  0.8080E+01
     -8.724 -0.7136E+00  0.8029E+01
     -8.653 -0.2990E+00  0.8007E+01
     -8.582 -0.8462E-01  0.8001E+01
     -8.510 -0.1725E-01  0.8000E+01
     -8.439 -0.2604E-02  0.8000E+01
     -8.368 -0.2957E-03  0.8000E+01
     -8.297 -0.2546E-04  0.8000E+01
     -8.225 -0.1673E-05  0.8000E+01
     -8.154 -0.8417E-07  0.8000E+01
     -8.083 -0.3253E-08  0.8000E+01
     -8.012 -0.9675E-10  0.8000E+01
     -7.941 -0.2215E-11  0.8000E+01
     -7.869 -0.4364E-13  0.8000E+01
     -7.798  0.0000E+00  0.8000E+01
     -7.727  0.0000E+00  0.8000E+01
     -7.656  0.0000E+00  0.8000E+01
     -7.584  0.0000E+00  0.8000E+01
     -7.513  0.0000E+00  0.8000E+01
     -7.442  0.0000E+00  0.8000E+01
     -7.371  0.0000E+00  0.8000E+01
     -7.299  0.0000E+00  0.8000E+01
     -7.228  0.0000E+00  0.8000E+01
     -7.157  0.0000E+00  0.8000E+01
     -7.086  0.0000E+00  0.8000E+01
     -7.014  0.0000E+00  0.8000E+01
     -6.943  0.0000E+00  0.8000E+01
     -6.872  0.0000E+00  0.8000E+01
     -6.801  0.0000E+00  0.8000E+01
     -6.730  0.0000E+00  0.8000E+01
     -6.658  0.0000E+00  0.8000E+01
     -6.587  0.0000E+00  0.8000E+01
     -6.516  0.0000E+00  0.8000E+01
     -6.445  0.0000E+00  0.8000E+01
     -6.373  0.0000E+00  0.8000E+01
     -6.302  0.0000E+00  0.8000E+01
     -6.231  0.0000E+00  0.8000E+01
     -6.160  0.0000E+00  0.8000E+01
     -6.088  0.0000E+00  0.8000E+01
     -6.017  0.0000E+00  0.8000E+01
     -5.946  0.0000E+00  0.8000E+01
     -5.875  0.0000E+00  0.8000E+01
     -5.804  0.0000E+00  0.8000E+01
     -5.732  0.0000E+00  0.8000E+01
     -5.661  0.0000E+00  0.8000E+01
     -5.590  0.0000E+00  0.8000E+01
     -5.519  0.0000E+00  0.8000E+01
     -5.447  0.0000E+00  0.8000E+01
     -5.376  0.0000E+00  0.8000E+01
     -5.305  0.0000E+00  0.8000E+01
     -5.234  0.0000E+00  0.8000E+01
     -5.162  0.0000E+00  0.8000E+01
     -5.091  0.0000E+00  0.8000E+01
     -5.020  0.0000E+00  0.8000E+01
     -4.949  0.0000E+00  0.8000E+01
     -4.878  0.0000E+00  0.8000E+01
     -4.806  0.0000E+00  0.8000E+01
     -4.735  0.0000E+00  0.8000E+01
     -4.664  0.0000E+00  0.8000E+01
     -4.593  0.0000E+00  0.8000E+01
     -4.521  0.0000E+00  0.8000E+01
     -4.450  0.0000E+00  0.8000E+01
     -4.379  0.0000E+00  0.8000E+01
     -4.308  0.0000E+00  0.8000E+01
     -4.236  0.0000E+00  0.8000E+01
     -4.165  0.0000E+00  0.8000E+01
     -4.094  0.0000E+00  0.8000E+01
     -4.023  0.0000E+00  0.8000E+01
     -3.952  0.0000E+00  0.8000E+01
     -3.880  0.0000E+00  0.8000E+01
     -3.809  0.0000E+00  0.8000E+01
     -3.738  0.0000E+00  0.8000E+01
     -3.667  0.0000E+00  0.8000E+01
     -3.595  0.0000E+00  0.8000E+01
     -3.524  0.0000E+00  0.8000E+01
     -3.453  0.0000E+00  0.8000E+01
     -3.382  0.0000E+00  0.8000E+01
     -3.310  0.0000E+00  0.8000E+01
     -3.239  0.0000E+00  0.8000E+01
     -3.168  0.0000E+00  0.8000E+01
     -3.097  0.0000E+00  0.8000E+01
     -3.026  0.0000E+00  0.8000E+01
     -2.954  0.0000E+00  0.8000E+01
     -2.883  0.0000E+00  0.8000E+01
     -2.812  0.0000E+00  0.8000E+01
     -2.741  0.0000E+00  0.8000E+01
     -2.669  0.0000E+00  0.8000E+01
     -2.598  0.0000E+00  0.8000E+01
     -2.527  0.0000E+00  0.8000E+01
     -2.456  0.0000E+00  0.8000E+01
     -2.384  0.0000E+00  0.8000E+01
     -2.313  0.0000E+00  0.8000E+01
     -2.242  0.0000E+00  0.8000E+01
     -2.171  0.0000E+00  0.8000E+01
     -2.100  0.0000E+00  0.8000E+01
     -2.028 -0.4264E-28  0.8000E+01
     -1.957 -0.1359E-25  0.8000E+01
     -1.886 -0.3361E-23  0.8000E+01
     -1.815 -0.6436E-21  0.8000E+01
     -1.743 -0.9536E-19  0.8000E+01
     -1.672 -0.1093E-16  0.8000E+01
     -1.601 -0.9690E-15  0.8000E+01
     -1.530 -0.6443E-13  0.8000E+01
     -1.458 -0.3397E-11  0.8000E+01
     -1.387 -0.1381E-09  0.8000E+01
     -1.316 -0.4320E-08  0.8000E+01
     -1.245 -0.1039E-06  0.8000E+01
     -1.174 -0.1917E-05  0.8000E+01
     -1.102 -0.2705E-04  0.8000E+01
     -1.031 -0.2904E-03  0.8000E+01
     -0.960 -0.2357E-02  0.8000E+01
     -0.889 -0.1431E-01  0.7999E+01
     -0.817 -0.6373E-01  0.7994E+01
     -0.746 -0.2004E+00  0.7980E+01
     -0.675 -0.4026E+00  0.7951E+01
     -0.604 -0.3106E+00  0.7929E+01
     -0.532  0.8894E+00  0.7993E+01
     -0.461  0.3698E+01  0.8256E+01
     -0.390  0.6983E+01  0.8753E+01
     -0.319  0.8301E+01  0.9345E+01
     -0.248  0.6491E+01  0.9807E+01
     -0.176  0.3125E+01  0.1003E+02
     -0.105  0.5671E+00  0.1007E+02
     -0.034 -0.3893E+00  0.1004E+02
      0.037 -0.4224E+00  0.1001E+02
      0.109 -0.3512E+00  0.9987E+01
      0.180 -0.5159E+00  0.9950E+01
      0.251 -0.7518E+00  0.9897E+01
      0.322 -0.2737E+00  0.9877E+01
      0.394  0.2217E+01  0.1004E+02
      0.465  0.7539E+01  0.1057E+02
      0.536  0.1460E+02  0.1161E+02
      0.607  0.2007E+02  0.1304E+02
      0.678  0.2034E+02  0.1449E+02
      0.750  0.1485E+02  0.1555E+02
      0.821  0.7120E+01  0.1606E+02
      0.892  0.1440E+01  0.1616E+02
      0.963 -0.7796E+00  0.1610E+02
      1.035 -0.8602E+00  0.1604E+02
      1.106 -0.4199E+00  0.1601E+02
      1.177 -0.1341E+00  0.1600E+02
      1.248 -0.3056E-01  0.1600E+02
      1.320 -0.5141E-02  0.1600E+02
      1.391 -0.6497E-03  0.1600E+02
      1.462 -0.6228E-04  0.1600E+02
      1.533 -0.4557E-05  0.1600E+02
      1.604 -0.2555E-06  0.1600E+02
      1.676 -0.1101E-07  0.1600E+02
      1.747 -0.3657E-09  0.1600E+02
      1.818 -0.9366E-11  0.1600E+02
      1.889 -0.1902E-12  0.1600E+02
      1.961 -0.1559E-14  0.1600E+02
      2.032  0.0000E+00  0.1600E+02
      2.103  0.0000E+00  0.1600E+02
      2.174  0.0000E+00  0.1600E+02
      2.246  0.0000E+00  0.1600E+02
      2.317  0.0000E+00  0.1600E+02
      2.388  0.0000E+00  0.1600E+02
      2.459  0.0000E+00  0.1600E+02
      2.530  0.0000E+00  0.1600E+02
      2.602  0.0000E+00  0.1600E+02
      2.673  0.0000E+00  0.1600E+02
      2.68865172    -18.97902558  301     -9.04107586      1.00000000
    -18.979  0.0000E+00  0.0000E+00
    -18.907  0.0000E+00  0.0000E+00
    -18.835  0.0000E+00  0.0000E+00
    -18.762  0.0000E+00  0.0000E+00
    -18.690  0.0000E+00  0.0000E+00
    -18.618 -0.4405E-27 -0.3182E-28
    -18.546 -0.1370E-24 -0.9927E-26
    -18.473 -0.3283E-22 -0.2381E-23
    -18.401 -0.6045E-20 -0.4390E-21
    -18.329 -0.8549E-18 -0.6219E-19
    -18.257 -0.9284E-16 -0.6768E-17
    -18.185 -0.7737E-14 -0.5656E-15
    -18.112 -0.4792E-12 -0.3518E-13
    -18.040 -0.2338E-10 -0.1724E-11
    -17.968 -0.8722E-09 -0.6472E-10
    -17.896 -0.2485E-07 -0.1860E-08
    -17.823 -0.5397E-06 -0.4084E-07
    -17.751 -0.8906E-05 -0.6841E-06
    -17.679 -0.1113E-03 -0.8720E-05
    -17.607 -0.1046E-02 -0.8426E-04
    -17.535 -0.7330E-02 -0.6137E-03
    -17.462 -0.3771E-01 -0.3338E-02
    -17.390 -0.1382E+00 -0.1332E-01
    -17.318 -0.3363E+00 -0.3761E-01
    -17.246 -0.4182E+00 -0.6781E-01
    -17.173  0.3309E+00 -0.4391E-01
    -17.101  0.2691E+01  0.1505E+00
    -17.029  0.6110E+01  0.5918E+00
    -16.957  0.8248E+01  0.1187E+01
    -16.884  0.7227E+01  0.1709E+01
    -16.812  0.3973E+01  0.1996E+01
    -16.740  0.1028E+01  0.2071E+01
    -16.668 -0.2829E+00  0.2050E+01
    -16.596 -0.4084E+00  0.2021E+01
    -16.523 -0.2052E+00  0.2006E+01
    -16.451 -0.6466E-01  0.2001E+01
    -16.379 -0.1424E-01  0.2000E+01
    -16.307 -0.2281E-02  0.2000E+01
    -16.234 -0.2712E-03  0.2000E+01
    -16.162 -0.2418E-04  0.2000E+01
    -16.090 -0.1629E-05  0.2000E+01
    -16.018 -0.8327E-07  0.2000E+01
    -15.946 -0.3242E-08  0.2000E+01
    -15.873 -0.9631E-10  0.2000E+01
    -15.801 -0.2189E-11  0.2000E+01
    -15.729 -0.3689E-13  0.2000E+01
    -15.657  0.0000E+00  0.2000E+01
    -15.584  0.0000E+00  0.2000E+01
    -15.512  0.0000E+00  0.2000E+01
    -15.440  0.0000E+00  0.2000E+01
    -15.368  0.0000E+00  0.2000E+01
    -15.296  0.0000E+00  0.2000E+01
    -15.223  0.0000E+00  0.2000E+01
    -15.151  0.0000E+00  0.2000E+01
    -15.079  0.0000E+00  0.2000E+01
    -15.007  0.0000E+00  0.2000E+01
    -14.934  0.0000E+00  0.2000E+01
    -14.862  0.0000E+00  0.2000E+01
    -14.790  0.0000E+00  0.2000E+01
    -14.718  0.0000E+00  0.2000E+01
    -14.645  0.0000E+00  0.2000E+01
    -14.573  0.0000E+00  0.2000E+01
    -14.501  0.0000E+00  0.2000E+01
    -14.429  0.0000E+00  0.2000E+01
    -14.357  0.0000E+00  0.2000E+01
    -14.284  0.0000E+00  0.2000E+01
    -14.212  0.0000E+00  0.2000E+01
    -14.140  0.0000E+00  0.2000E+01
    -14.068  0.0000E+00  0.2000E+01
    -13.995  0.0000E+00  0.2000E+01
    -13.923  0.0000E+00  0.2000E+01
    -13.851  0.0000E+00  0.2000E+01
    -13.779  0.0000E+00  0.2000E+01
    -13.707  0.0000E+00  0.2000E+01
    -13.634  0.0000E+00  0.2000E+01
    -13.562  0.0000E+00  0.2000E+01
    -13.490  0.0000E+00  0.2000E+01
    -13.418  0.0000E+00  0.2000E+01
    -13.345  0.0000E+00  0.2000E+01
    -13.273  0.0000E+00  0.2000E+01
    -13.201  0.0000E+00  0.2000E+01
    -13.129  0.0000E+00  0.2000E+01
    -13.057  0.0000E+00  0.2000E+01
    -12.984  0.0000E+00  0.2000E+01
    -12.912  0.0000E+00  0.2000E+01
    -12.840  0.0000E+00  0.2000E+01
    -12.768  0.0000E+00  0.2000E+01
    -12.695  0.0000E+00  0.2000E+01
    -12.623  0.0000E+00  0.2000E+01
    -12.551  0.0000E+00  0.2000E+01
    -12.479  0.0000E+00  0.2000E+01
    -12.406  0.0000E+00  0.2000E+01
    -12.334  0.0000E+00  0.2000E+01
    -12.262  0.0000E+00  0.2000E+01
    -12.190  0.0000E+00  0.2000E+01
    -12.118  0.0000E+00  0.2000E+01
    -12.045  0.0000E+00  0.2000E+01
    -11.973  0.0000E+00  0.2000E+01
    -11.901  0.0000E+00  0.2000E+01
    -11.829  0.0000E+00  0.2000E+01
    -11.756  0.0000E+00  0.2000E+01
    -11.684  0.0000E+00  0.2000E+01
    -11.612  0.0000E+00  0.2000E+01
    -11.540  0.0000E+00  0.2000E+01
    -11.468  0.0000E+00  0.2000E+01
    -11.395  0.0000E+00  0.2000E+01
    -11.323  0.0000E+00  0.2000E+01
    -11.251  0.0000E+00  0.2000E+01
    -11.179  0.0000E+00  0.2000E+01
    -11.106 -0.8361E-26  0.2000E+01
    -11.034 -0.2275E-23  0.2000E+01
    -10.962 -0.4770E-21  0.2000E+01
    -10.890 -0.7683E-19  0.2000E+01
    -10.818 -0.9506E-17  0.2000E+01
    -10.745 -0.9027E-15  0.2000E+01
    -10.673 -0.6424E-13  0.2000E+01
    -10.601 -0.3553E-11  0.2000E+01
    -10.529 -0.1514E-09  0.2000E+01
    -10.456 -0.4927E-08  0.2000E+01
    -10.384 -0.1224E-06  0.2000E+01
    -10.312 -0.2313E-05  0.2000E+01
    -10.240 -0.3318E-04  0.2000E+01
    -10.168 -0.3593E-03  0.2000E+01
    -10.095 -0.2917E-02  0.2000E+01
    -10.023 -0.1756E-01  0.1998E+01
     -9.951 -0.7685E-01  0.1993E+01
     -9.879 -0.2349E+00  0.1976E+01
     -9.806 -0.4521E+00  0.1943E+01
     -9.734 -0.3162E+00  0.1920E+01
     -9.662  0.9867E+00  0.1992E+01
     -9.590  0.3824E+01  0.2268E+01
     -9.517  0.7194E+01  0.2788E+01
     -9.445  0.9699E+01  0.3488E+01
     -9.373  0.1142E+02  0.4313E+01
     -9.301  0.1318E+02  0.5265E+01
     -9.229  0.1423E+02  0.6292E+01
     -9.156  0.1267E+02  0.7208E+01
     -9.084  0.8363E+01  0.7812E+01
     -9.012  0.3531E+01  0.8067E+01
     -8.940  0.4325E+00  0.8098E+01
     -8.867 -0.5754E+00  0.8056E+01
     -8.795 -0.4881E+00  0.8021E+01
     -8.723 -0.2147E+00  0.8006E+01
     -8.651 -0.6318E-01  0.8001E+01
     -8.579 -0.1331E-01  0.8000E+01
     -8.506 -0.2064E-02  0.8000E+01
     -8.434 -0.2390E-03  0.8000E+01
     -8.362 -0.2084E-04  0.8000E+01
     -8.290 -0.1376E-05  0.8000E+01
     -8.217 -0.6905E-07  0.8000E+01
     -8.145 -0.2641E-08  0.8000E+01
     -8.073 -0.7711E-10  0.8000E+01
     -8.001 -0.1720E-11  0.8000E+01
     -7.929 -0.3074E-13  0.8000E+01
     -7.856  0.0000E+00  0.8000E+01
     -7.784  0.0000E+00  0.8000E+01
     -7.712  0.0000E+00  0.8000E+01
     -7.640  0.0000E+00  0.8000E+01
     -7.567  0.0000E+00  0.8000E+01
     -7.495  0.0000E+00  0.8000E+01
     -7.423  0.0000E+00  0.8000E+01
     -7.351  0.0000E+00  0.8000E+01
     -7.278  0.0000E+00  0.8000E+01
     -7.206  0.0000E+00  0.8000E+01
     -7.134  0.0000E+00  0.8000E+01
     -7.062  0.0000E+00  0.8000E+01
     -6.990  0.0000E+00  0.8000E+01
     -6.917  0.0000E+00  0.8000E+01
     -6.845  0.0000E+00  0.8000E+01
     -6.773  0.0000E+00  0.8000E+01
     -6.701  0.0000E+00  0.8000E+01
     -6.628  0.0000E+00  0.8000E+01
     -6.556  0.0000E+00  0.8000E+01
     -6.484  0.0000E+00  0.8000E+01
     -6.412  0.0000E+00  0.8000E+01
     -6.340  0.0000E+00  0.8000E+01
     -6.267  0.0000E+00  0.8000E+01
     -6.195  0.0000E+00  0.8000E+01
     -6.123  0.0000E+00  0.8000E+01
     -6.051  0.0000E+00  0.8000E+01
     -5.978  0.0000E+00  0.8000E+01
     -5.906  0.0000E+00  0.8000E+01
     -5.834  0.0000E+00  0.8000E+01
     -5.762  0.0000E+00  0.8000E+01
     -5.690  0.0000E+00  0.8000E+01
     -5.617  0.0000E+00  0.8000E+01
     -5.545  0.0000E+00  0.8000E+01
     -5.473  0.0000E+00  0.8000E+01
     -5.401  0.0000E+00  0.8000E+01
     -5.328  0.0000E+00  0.8000E+01
     -5.256  0.0000E+00  0.8000E+01
     -5.184  0.0000E+00  0.8000E+01
     -5.112  0.0000E+00  0.8000E+01
     -5.039  0.0000E+00  0.8000E+01
     -4.967  0.0000E+00  0.8000E+01
     -4.895  0.0000E+00  0.8000E+01
     -4.823  0.0000E+00  0.8000E+01
     -4.751  0.0000E+00  0.8000E+01
     -4.678  0.0000E+00  0.8000E+01
     -4.606  0.0000E+00  0.8000E+01
     -4.534  0.0000E+00  0.8000E+01
     -4.462  0.0000E+00  0.8000E+01
     -4.389  0.0000E+00  0.8000E+01
     -4.317  0.0000E+00  0.8000E+01
     -4.245  0.0000E+00  0.8000E+01
     -4.173  0.0000E+00  0.8000E+01
     -4.101  0.0000E+00  0.8000E+01
     -4.028  0.0000E+00  0.8000E+01
     -3.956  0.0000E+00  0.8000E+01
     -3.884  0.0000E+00  0.8000E+01
     -3.812  0.0000E+00  0.8000E+01
     -3.739  0.0000E+00  0.8000E+01
     -3.667  0.0000E+00  0.8000E+01
     -3.595  0.0000E+00  0.8000E+01
     -3.523  0.0000E+00  0.8000E+01
     -3.451  0.0000E+00  0.8000E+01
     -3.378  0.0000E+00  0.8000E+01
     -3.306  0.0000E+00  0.8000E+01
     -3.234  0.0000E+00  0.8000E+01
     -3.162  0.0000E+00  0.8000E+01
     -3.089  0.0000E+00  0.8000E+01
     -3.017  0.0000E+00  0.8000E+01
     -2.945  0.0000E+00  0.8000E+01
     -2.873  0.0000E+00  0.8000E+01
     -2.800  0.0000E+00  0.8000E+01
     -2.728  0.0000E+00  0.8000E+01
     -2.656  0.0000E+00  0.8000E+01
     -2.584  0.0000E+00  0.8000E+01
     -2.512  0.0000E+00  0.8000E+01
     -2.439  0.0000E+00  0.8000E+01
     -2.367  0.0000E+00  0.8000E+01
     -2.295  0.0000E+00  0.8000E+01
     -2.223  0.0000E+00  0.8000E+01
     -2.150  0.0000E+00  0.8000E+01
     -2.078  0.0000E+00  0.8000E+01
     -2.006  0.0000E+00  0.8000E+01
     -1.934 -0.1282E-26  0.8000E+01
     -1.862 -0.3793E-24  0.8000E+01
     -1.789 -0.8651E-22  0.8000E+01
     -1.717 -0.1516E-19  0.8000E+01
     -1.645 -0.2041E-17  0.8000E+01
     -1.573 -0.2110E-15  0.8000E+01
     -1.500 -0.1674E-13  0.8000E+01
     -1.428 -0.9867E-12  0.8000E+01
     -1.356 -0.4582E-10  0.8000E+01
     -1.284 -0.1627E-08  0.8000E+01
     -1.212 -0.4411E-07  0.8000E+01
     -1.139 -0.9112E-06  0.8000E+01
     -1.067 -0.1430E-04  0.8000E+01
     -0.995 -0.1697E-03  0.8000E+01
     -0.923 -0.1514E-02  0.8000E+01
     -0.850 -0.1005E-01  0.7999E+01
     -0.778 -0.4878E-01  0.7996E+01
     -0.706 -0.1673E+00  0.7984E+01
     -0.634 -0.3724E+00  0.7957E+01
     -0.561 -0.3729E+00  0.7930E+01
     -0.489  0.6226E+00  0.7975E+01
     -0.417  0.3269E+01  0.8211E+01
     -0.345  0.6659E+01  0.8692E+01
     -0.273  0.8308E+01  0.9292E+01
     -0.200  0.6742E+01  0.9779E+01
     -0.128  0.3364E+01  0.1002E+02
     -0.056  0.6712E+00  0.1007E+02
      0.016 -0.3818E+00  0.1004E+02
      0.089 -0.4631E+00  0.1001E+02
      0.161 -0.4514E+00  0.9977E+01
      0.233 -0.6719E+00  0.9928E+01
      0.305 -0.7553E+00  0.9874E+01
      0.377  0.4478E+00  0.9906E+01
      0.450  0.4374E+01  0.1022E+02
      0.522  0.1119E+02  0.1103E+02
      0.594  0.1832E+02  0.1235E+02
      0.666  0.2140E+02  0.1390E+02
      0.739  0.1794E+02  0.1519E+02
      0.811  0.1020E+02  0.1593E+02
      0.883  0.3131E+01  0.1616E+02
      0.955 -0.3712E+00  0.1613E+02
      1.027 -0.9767E+00  0.1606E+02
      1.100 -0.5662E+00  0.1602E+02
      1.172 -0.1999E+00  0.1600E+02
      1.244 -0.4899E-01  0.1600E+02
      1.316 -0.8728E-02  0.1600E+02
      1.389 -0.1154E-02  0.1600E+02
      1.461 -0.1146E-03  0.1600E+02
      1.533 -0.8608E-05  0.1600E+02
      1.605 -0.4915E-06  0.1600E+02
      1.677 -0.2140E-07  0.1600E+02
      1.750 -0.7122E-09  0.1600E+02
      1.822 -0.1815E-10  0.1600E+02
      1.894 -0.3551E-12  0.1600E+02
      1.966 -0.4611E-14  0.1600E+02
      2.039  0.0000E+00  0.1600E+02
      2.111  0.0000E+00  0.1600E+02
      2.183  0.0000E+00  0.1600E+02
      2.255  0.0000E+00  0.1600E+02
      2.328  0.0000E+00  0.1600E+02
      2.400  0.0000E+00  0.1600E+02
      2.472  0.0000E+00  0.1600E+02
      2.544  0.0000E+00  0.1600E+02
      2.616  0.0000E+00  0.1600E+02
      2.689  0.0000E+00  0.1600E+02
      2.69714987    -19.13633915  301     -8.86719783      1.00000000
    -19.136  0.0000E+00  0.0000E+00
    -19.064  0.0000E+00  0.0000E+00
    -18.991  0.0000E+00  0.0000E+00
    -18.918  0.0000E+00  0.0000E+00
    -18.845  0.0000E+00  0.0000E+00
    -18.772 -0.5476E-27 -0.3985E-28
    -18.700 -0.1760E-24 -0.1285E-25
    -18.627 -0.4340E-22 -0.3172E-23
    -18.554 -0.8191E-20 -0.5993E-21
    -18.481 -0.1183E-17 -0.8667E-19
    -18.409 -0.1306E-15 -0.9589E-17
    -18.336 -0.1102E-13 -0.8114E-15
    -18.263 -0.6872E-12 -0.5083E-13
    -18.190 -0.3370E-10 -0.2503E-11
    -18.117 -0.1257E-08 -0.9397E-10
    -18.045 -0.3565E-07 -0.2689E-08
    -17.972 -0.7673E-06 -0.5853E-07
    -17.899 -0.1249E-04 -0.9678E-06
    -17.826 -0.1532E-03 -0.1212E-04
    -17.754 -0.1407E-02 -0.1145E-03
    -17.681 -0.9568E-02 -0.8109E-03
    -17.608 -0.4739E-01 -0.4260E-02
    -17.535 -0.1652E+00 -0.1628E-01
    -17.462 -0.3716E+00 -0.4332E-01
    -17.390 -0.3721E+00 -0.7041E-01
    -17.317  0.6412E+00 -0.2374E-01
    -17.244  0.3330E+01  0.2186E+00
    -17.171  0.6736E+01  0.7088E+00
    -17.099  0.8309E+01  0.1314E+01
    -17.026  0.6622E+01  0.1795E+01
    -16.953  0.3201E+01  0.2028E+01
    -16.880  0.5723E+00  0.2070E+01
    -16.807 -0.3844E+00  0.2042E+01
    -16.735 -0.3639E+00  0.2016E+01
    -16.662 -0.1586E+00  0.2004E+01
    -16.589 -0.4485E-01  0.2001E+01
    -16.516 -0.8940E-02  0.2000E+01
    -16.444 -0.1299E-02  0.2000E+01
    -16.371 -0.1399E-03  0.2000E+01
    -16.298 -0.1128E-04  0.2000E+01
    -16.225 -0.6855E-06  0.2000E+01
    -16.152 -0.3151E-07  0.2000E+01
    -16.080 -0.1099E-08  0.2000E+01
    -16.007 -0.2917E-10  0.2000E+01
    -15.934 -0.5858E-12  0.2000E+01
    -15.861 -0.1220E-13  0.2000E+01
    -15.789  0.0000E+00  0.2000E+01
    -15.716  0.0000E+00  0.2000E+01
    -15.643  0.0000E+00  0.2000E+01
    -15.570  0.0000E+00  0.2000E+01
    -15.497  0.0000E+00  0.2000E+01
    -15.425  0.0000E+00  0.2000E+01
    -15.352  0.0000E+00  0.2000E+01
    -15.279  0.0000E+00  0.2000E+01
    -15.206  0.0000E+00  0.2000E+01
    -15.134  0.0000E+00  0.2000E+01
    -15.061  0.0000E+00  0.2000E+01
    -14.988  0.0000E+00  0.2000E+01
    -14.915  0.0000E+00  0.2000E+01
    -14.842  0.0000E+00  0.2000E+01
    -14.770  0.0000E+00  0.2000E+01
    -14.697  0.0000E+00  0.2000E+01
    -14.624  0.0000E+00  0.2000E+01
    -14.551  0.0000E+00  0.2000E+01
    -14.479  0.0000E+00  0.2000E+01
    -14.406  0.0000E+00  0.2000E+01
    -14.333  0.0000E+00  0.2000E+01
    -14.260  0.0000E+00  0.2000E+01
    -14.187  0.0000E+00  0.2000E+01
    -14.115  0.0000E+00  0.2000E+01
    -14.042  0.0000E+00  0.2000E+01
    -13.969  0.0000E+00  0.2000E+01
    -13.896  0.0000E+00  0.2000E+01
    -13.824  0.0000E+00  0.2000E+01
    -13.751  0.0000E+00  0.2000E+01
    -13.678  0.0000E+00  0.2000E+01
    -13.605  0.0000E+00  0.2000E+01
    -13.532  0.0000E+00  0.2000E+01
    -13.460  0.0000E+00  0.2000E+01
    -13.387  0.0000E+00  0.2000E+01
    -13.314  0.0000E+00  0.2000E+01
    -13.241  0.0000E+00  0.2000E+01
    -13.169  0.0000E+00  0.2000E+01
    -13.096  0.0000E+00  0.2000E+01
    -13.023  0.0000E+00  0.2000E+01
    -12.950  0.0000E+00  0.2000E+01
    -12.877  0.0000E+00  0.2000E+01
    -12.805  0.0000E+00  0.2000E+01
    -12.732  0.0000E+00  0.2000E+01
    -12.659  0.0000E+00  0.2000E+01
    -12.586  0.0000E+00  0.2000E+01
    -12.514  0.0000E+00  0.2000E+01
    -12.441  0.0000E+00  0.2000E+01
    -12.368  0.0000E+00  0.2000E+01
    -12.295  0.0000E+00  0.2000E+01
    -12.222  0.0000E+00  0.2000E+01
    -12.150  0.0000E+00  0.2000E+01
    -12.077  0.0000E+00  0.2000E+01
    -12.004  0.0000E+00  0.2000E+01
    -11.931  0.0000E+00  0.2000E+01
    -11.859  0.0000E+00  0.2000E+01
    -11.786  0.0000E+00  0.2000E+01
    -11.713  0.0000E+00  0.2000E+01
    -11.640  0.0000E+00  0.2000E+01
    -11.567  0.0000E+00  0.2000E+01
    -11.495  0.0000E+00  0.2000E+01
    -11.422  0.0000E+00  0.2000E+01
    -11.349  0.0000E+00  0.2000E+01
    -11.276 -0.1797E-26  0.2000E+01
    -11.204 -0.5471E-24  0.2000E+01
    -11.131 -0.1278E-21  0.2000E+01
    -11.058 -0.2285E-19  0.2000E+01
    -10.985 -0.3126E-17  0.2000E+01
    -10.912 -0.3269E-15  0.2000E+01
    -10.840 -0.2613E-13  0.2000E+01
    -10.767 -0.1543E-11  0.2000E+01
    -10.694 -0.7159E-10  0.2000E+01
    -10.621 -0.2528E-08  0.2000E+01
    -10.549 -0.6787E-07  0.2000E+01
    -10.476 -0.1383E-05  0.2000E+01
    -10.403 -0.2131E-04  0.2000E+01
    -10.330 -0.2474E-03  0.2000E+01
    -10.257 -0.2151E-02  0.2000E+01
    -10.185 -0.1388E-01  0.1999E+01
    -10.112 -0.6546E-01  0.1994E+01
    -10.039 -0.2186E+00  0.1978E+01
     -9.966 -0.4795E+00  0.1943E+01
     -9.893 -0.5047E+00  0.1907E+01
     -9.821  0.6267E+00  0.1952E+01
     -9.748  0.3815E+01  0.2230E+01
     -9.675  0.8571E+01  0.2854E+01
     -9.602  0.1262E+02  0.3772E+01
     -9.530  0.1348E+02  0.4753E+01
     -9.457  0.1055E+02  0.5521E+01
     -9.384  0.5577E+01  0.5927E+01
     -9.311  0.1367E+01  0.6026E+01
     -9.238 -0.4073E-01  0.6023E+01
     -9.166  0.1775E+01  0.6152E+01
     -9.093  0.5424E+01  0.6547E+01
     -9.020  0.8044E+01  0.7132E+01
     -8.947  0.7418E+01  0.7672E+01
     -8.875  0.4264E+01  0.7983E+01
     -8.802  0.1200E+01  0.8070E+01
     -8.729 -0.2407E+00  0.8052E+01
     -8.656 -0.4169E+00  0.8022E+01
     -8.583 -0.2158E+00  0.8006E+01
     -8.511 -0.6881E-01  0.8001E+01
     -8.438 -0.1520E-01  0.8000E+01
     -8.365 -0.2429E-02  0.8000E+01
     -8.292 -0.2865E-03  0.8000E+01
     -8.220 -0.2523E-04  0.8000E+01
     -8.147 -0.1672E-05  0.8000E+01
     -8.074 -0.8370E-07  0.8000E+01
     -8.001 -0.3178E-08  0.8000E+01
     -7.928 -0.9170E-10  0.8000E+01
     -7.856 -0.2012E-11  0.8000E+01
     -7.783 -0.3661E-13  0.8000E+01
     -7.710  0.0000E+00  0.8000E+01
     -7.637  0.0000E+00  0.8000E+01
     -7.565  0.0000E+00  0.8000E+01
     -7.492  0.0000E+00  0.8000E+01
     -7.419  0.0000E+00  0.8000E+01
     -7.346  0.0000E+00  0.8000E+01
     -7.273  0.0000E+00  0.8000E+01
     -7.201  0.0000E+00  0.8000E+01
     -7.128  0.0000E+00  0.8000E+01
     -7.055  0.0000E+00  0.8000E+01
     -6.982  0.0000E+00  0.8000E+01
     -6.910  0.0000E+00  0.8000E+01
     -6.837  0.0000E+00  0.8000E+01
     -6.764  0.0000E+00  0.8000E+01
     -6.691  0.0000E+00  0.8000E+01
     -6.618  0.0000E+00  0.8000E+01
     -6.546  0.0000E+00  0.8000E+01
     -6.473  0.0000E+00  0.8000E+01
     -6.400  0.0000E+00  0.8000E+01
     -6.327  0.0000E+00  0.8000E+01
     -6.255  0.0000E+00  0.8000E+01
     -6.182  0.0000E+00  0.8000E+01
     -6.109  0.0000E+00  0.8000E+01
     -6.036  0.0000E+00  0.8000E+01
     -5.963  0.0000E+00  0.8000E+01
     -5.891  0.0000E+00  0.8000E+01
     -5.818  0.0000E+00  0.8000E+01
     -5.745  0.0000E+00  0.8000E+01
     -5.672  0.0000E+00  0.8000E+01
     -5.600  0.0000E+00  0.8000E+01
     -5.527  0.0000E+00  0.8000E+01
     -5.454  0.0000E+00  0.8000E+01
     -5.381  0.0000E+00  0.8000E+01
     -5.308  0.0000E+00  0.8000E+01
     -5.236  0.0000E+00  0.8000E+01
     -5.163  0.0000E+00  0.8000E+01
     -5.090  0.0000E+00  0.8000E+01
     -5.017  0.0000E+00  0.8000E+01
     -4.945  0.0000E+00  0.8000E+01
     -4.872  0.0000E+00  0.8000E+01
     -4.799  0.0000E+00  0.8000E+01
     -4.726  0.0000E+00  0.8000E+01
     -4.653  0.0000E+00  0.8000E+01
     -4.581  0.0000E+00  0.8000E+01
     -4.508  0.0000E+00  0.8000E+01
     -4.435  0.0000E+00  0.8000E+01
     -4.362  0.0000E+00  0.8000E+01
     -4.290  0.0000E+00  0.8000E+01
     -4.217  0.0000E+00  0.8000E+01
     -4.144  0.0000E+00  0.8000E+01
     -4.071  0.0000E+00  0.8000E+01
     -3.998  0.0000E+00  0.8000E+01
     -3.926  0.0000E+00  0.8000E+01
     -3.853  0.0000E+00  0.8000E+01
     -3.780  0.0000E+00  0.8000E+01
     -3.707  0.0000E+00  0.8000E+01
     -3.635  0.0000E+00  0.8000E+01
     -3.562  0.0000E+00  0.8000E+01
     -3.489  0.0000E+00  0.8000E+01
     -3.416  0.0000E+00  0.8000E+01
     -3.343  0.0000E+00  0.8000E+01
     -3.271  0.0000E+00  0.8000E+01
     -3.198  0.0000E+00  0.8000E+01