    5    5    1    1
  0.2138418E+03  0.1022942E-08  0.1019144E-08  0.1026194E-08  0.2000000E-14
   50.000000000000000     
  CAR 
 unknown system                          
      8      4      8

  0.2500000E+00  0.2500000E+00  0.2500000E+00  0.2500000E+00
    1      -16.608506   1.000000
    2       -9.349054   1.000003
    3       -9.185649   1.000383
    4       -8.806939   0.999601
    5       -0.365672   0.000000
    6        0.454820   0.000000
    7        0.637058   0.000000
    8        0.660945   0.000000

 -0.2500000E+00  0.2500000E+00  0.2500000E+00  0.2500000E+00
    1      -16.608535   1.000000
    2       -9.349021   1.000003
    3       -9.185640   1.000383
    4       -8.806954   0.999618
    5       -0.366501   0.000000
    6        0.472098   0.000000
    7        0.617414   0.000000
    8        0.655968   0.000000

  0.2500000E+00 -0.2500000E+00  0.2500000E+00  0.2500000E+00
    1      -16.608512   1.000000
    2       -9.349020   1.000003
    3       -9.185624   1.000383
    4       -8.806969   0.999634
    5       -0.365403   0.000000
    6        0.462235   0.000000
    7        0.623022   0.000000
    8        0.656709   0.000000

 -0.2500000E+00 -0.2500000E+00  0.2500000E+00  0.2500000E+00
    1      -16.608557   1.000000
    2       -9.349026   1.000003
    3       -9.185668   1.000383
    4       -8.806940   0.999602
    5       -0.373617   0.000000
    6        0.501918   0.000000
    7        0.636958   0.000000
    8        0.655075   0.000000
