       N       E                     dE             d eps       ncg     rms          rms(c)
DAV:   1     0.153659634181E+02    0.15366E+02   -0.18085E+03    96   0.387E+02
DAV:   2    -0.223905614096E+02   -0.37757E+02   -0.37750E+02    64   0.114E+02
DAV:   3    -0.269486329868E+02   -0.45581E+01   -0.45716E+01    64   0.467E+01
DAV:   4    -0.271455336362E+02   -0.19690E+00   -0.19681E+00   128   0.107E+01
DAV:   5    -0.271456054423E+02   -0.71806E-04   -0.71808E-04    96   0.229E-01    0.822E+00
RMM:   6    -0.245490714961E+02    0.25965E+01   -0.46806E+00    64   0.131E+01    0.404E+00
RMM:   7    -0.241121452035E+02    0.43693E+00   -0.95307E-01    64   0.561E+00    0.219E+00
RMM:   8    -0.239869213463E+02    0.12522E+00   -0.13108E-01    64   0.244E+00    0.766E-01
RMM:   9    -0.239656172671E+02    0.21304E-01   -0.22040E-02    64   0.107E+00    0.342E-01
RMM:  10    -0.239651109784E+02    0.50629E-03   -0.14916E-02    64   0.672E-01    0.451E-01
RMM:  11    -0.239583671842E+02    0.67438E-02   -0.50603E-03    64   0.439E-01    0.162E-01
RMM:  12    -0.239574166009E+02    0.95058E-03   -0.72132E-04    64   0.195E-01    0.783E-02
RMM:  13    -0.239646476702E+02   -0.72311E-02   -0.29433E-03    64   0.339E-01    0.112E-01
RMM:  14    -0.239669617177E+02   -0.23140E-02   -0.67644E-04    64   0.156E-01    0.253E-02
RMM:  15    -0.239699214823E+02   -0.29598E-02   -0.16524E-03    64   0.236E-01    0.693E-02
RMM:  16    -0.239700021552E+02   -0.80673E-04   -0.21686E-04    64   0.878E-02    0.233E-02
RMM:  17    -0.239702647983E+02   -0.26264E-03   -0.59866E-04    64   0.146E-01    0.390E-02
RMM:  18    -0.239703356782E+02   -0.70880E-04   -0.13424E-04    64   0.673E-02    0.867E-03
RMM:  19    -0.239703550924E+02   -0.19414E-04   -0.73884E-06    60   0.223E-02    0.287E-03
RMM:  20    -0.239703654924E+02   -0.10400E-04   -0.32188E-06    60   0.117E-02    0.142E-03
RMM:  21    -0.239703698530E+02   -0.43605E-05   -0.32112E-07    48   0.446E-03    0.110E-03
RMM:  22    -0.239703706010E+02   -0.74807E-06   -0.72345E-08    48   0.226E-03
    1 T=   106. E= -.23915620E+02 F= -.23970371E+02 E0= -.23981444E+02  EK= 0.54651E-01 SP= 0.00E+00 SK= 0.10E-03
       N       E                     dE             d eps       ncg     rms          rms(c)
DAV:   1    -0.240114190830E+02   -0.41049E-01   -0.42954E+00    64   0.188E+01    0.104E+00
RMM:   2    -0.240014033896E+02    0.10016E-01   -0.46454E-01    64   0.404E+00    0.750E-01
RMM:   3    -0.239971569084E+02    0.42465E-02   -0.24749E-01    64   0.287E+00    0.862E-01
RMM:   4    -0.239836998614E+02    0.13457E-01   -0.87158E-03    64   0.691E-01    0.392E-01
RMM:   5    -0.239813794754E+02    0.23204E-02   -0.22536E-02    64   0.873E-01    0.796E-02
RMM:   6    -0.239816414803E+02   -0.26200E-03   -0.40355E-04    64   0.164E-01    0.504E-02
RMM:   7    -0.239821143034E+02   -0.47282E-03   -0.97135E-04    64   0.176E-01    0.102E-01
RMM:   8    -0.239820806849E+02    0.33618E-04   -0.10610E-03    64   0.194E-01    0.224E-02
RMM:   9    -0.239821179649E+02   -0.37280E-04   -0.15887E-04    64   0.799E-02    0.233E-02
RMM:  10    -0.239821632507E+02   -0.45286E-04   -0.13853E-05    64   0.247E-02    0.102E-02
RMM:  11    -0.239821715661E+02   -0.83154E-05   -0.45589E-06    60   0.130E-02    0.806E-03
RMM:  12    -0.239821861263E+02   -0.14560E-04   -0.37717E-06    60   0.126E-02    0.524E-03
RMM:  13    -0.239821885966E+02   -0.24704E-05   -0.84325E-07    48   0.688E-03    0.454E-03
RMM:  14    -0.239821904495E+02   -0.18529E-05   -0.11685E-06    48   0.757E-03    0.197E-03
RMM:  15    -0.239821908943E+02   -0.44477E-06   -0.25134E-07    48   0.444E-03
    2 T=   136. E= -.23909720E+02 F= -.23982191E+02 E0= -.23991311E+02  EK= 0.70499E-01 SP= 0.71E-03 SK= 0.13E-02
       N       E                     dE             d eps       ncg     rms          rms(c)
DAV:   1    -0.238882570120E+02    0.93933E-01   -0.15085E+00    64   0.122E+01    0.586E-01
RMM:   2    -0.238799874976E+02    0.82695E-02   -0.28071E-02    64   0.137E+00    0.295E-01
RMM:   3    -0.238791944769E+02    0.79302E-03   -0.12526E-02    64   0.734E-01    0.131E-01
RMM:   4    -0.238791652222E+02    0.29255E-04   -0.79735E-04    64   0.211E-01    0.800E-02
RMM:   5    -0.238793018266E+02   -0.13660E-03   -0.30795E-04    64   0.107E-01    0.650E-02
RMM:   6    -0.238793016550E+02    0.17155E-06   -0.16677E-04    64   0.781E-02    0.482E-02
RMM:   7    -0.238793346347E+02   -0.32980E-04   -0.15561E-04    64   0.766E-02    0.386E-02
RMM:   8    -0.238793310289E+02    0.36058E-05   -0.21325E-05    64   0.310E-02    0.295E-02
RMM:   9    -0.238793177458E+02    0.13283E-04   -0.37228E-05    64   0.387E-02    0.159E-02
RMM:  10    -0.238793189237E+02   -0.11779E-05   -0.15078E-05    64   0.251E-02    0.797E-03
RMM:  11    -0.238793272403E+02   -0.83166E-05   -0.13642E-05    64   0.232E-02    0.112E-03
RMM:  12    -0.238793313152E+02   -0.40749E-05   -0.72256E-07    48   0.673E-03    0.530E-04
RMM:  13    -0.238793338313E+02   -0.25161E-05   -0.35626E-07    48   0.420E-03    0.103E-03
RMM:  14    -0.238793344125E+02   -0.58123E-06   -0.88013E-08    48   0.228E-03
    3 T=    75. E= -.23835078E+02 F= -.23879334E+02 E0= -.23883207E+02  EK= 0.38704E-01 SP= 0.25E-02 SK= 0.30E-02
       N       E                     dE             d eps       ncg     rms          rms(c)
DAV:   1    -0.239817734257E+02   -0.10244E+00   -0.36297E+00    64   0.186E+01    0.812E-01
RMM:   2    -0.240297590134E+02   -0.47986E-01   -0.35855E-01    64   0.423E+00    0.125E+00
RMM:   3    -0.240373824472E+02   -0.76234E-02   -0.33294E-02    64   0.138E+00    0.153E+00
RMM:   4    -0.239899309433E+02    0.47452E-01   -0.11065E-01    64   0.197E+00    0.712E-01
RMM:   5    -0.239810930967E+02    0.88378E-02   -0.37432E-02    64   0.121E+00    0.309E-01
RMM:   6    -0.239799465338E+02    0.11466E-02   -0.16180E-02    64   0.808E-01    0.897E-02
RMM:   7    -0.239803459680E+02   -0.39943E-03   -0.89477E-04    64   0.246E-01    0.525E-02
RMM:   8    -0.239805237158E+02   -0.17775E-03   -0.26923E-04    64   0.105E-01    0.466E-02
RMM:   9    -0.239806016642E+02   -0.77948E-04   -0.73385E-05    64   0.561E-02    0.437E-02
RMM:  10    -0.239805871206E+02    0.14544E-04   -0.46247E-05    64   0.421E-02    0.290E-02
RMM:  11    -0.239805718071E+02    0.15313E-04   -0.49360E-05    64   0.426E-02    0.142E-02
RMM:  12    -0.239805797812E+02   -0.79741E-05   -0.15569E-05    64   0.250E-02    0.745E-03
RMM:  13    -0.239805830655E+02   -0.32842E-05   -0.21312E-06    52   0.108E-02    0.538E-03
RMM:  14    -0.239805855167E+02   -0.24513E-05   -0.24297E-06    52   0.110E-02    0.329E-03
RMM:  15    -0.239805859028E+02   -0.38606E-06   -0.66610E-07    48   0.662E-03
    4 T=   273. E= -.23824551E+02 F= -.23980586E+02 E0= -.23984452E+02  EK= 0.14109E+00 SP= 0.46E-02 SK= 0.10E-01
       N       E                     dE             d eps       ncg     rms          rms(c)
DAV:   1    -0.238357366505E+02    0.14485E+00   -0.11672E+00    64   0.115E+01    0.456E-01
RMM:   2    -0.238439164264E+02   -0.81798E-02   -0.61639E-02    64   0.187E+00    0.695E-01
RMM:   3    -0.238386361377E+02    0.52803E-02   -0.24706E-02    64   0.112E+00    0.397E-01
RMM:   4    -0.238387895791E+02   -0.15344E-03   -0.21512E-03    64   0.304E-01    0.327E-01
RMM:   5    -0.238354130778E+02    0.33765E-02   -0.58903E-03    64   0.439E-01    0.144E-01
RMM:   6    -0.238353002370E+02    0.11284E-03   -0.13924E-03    65   0.228E-01    0.743E-02
RMM:   7    -0.238352083793E+02    0.91858E-04   -0.12811E-03    64   0.210E-01    0.215E-02
RMM:   8    -0.238353790303E+02   -0.17065E-03   -0.17693E-04    64   0.880E-02    0.115E-02
RMM:   9    -0.238354278666E+02   -0.48836E-04   -0.22604E-05    64   0.308E-02    0.930E-03
RMM:  10    -0.238354539504E+02   -0.26084E-04   -0.24351E-05    64   0.281E-02    0.401E-03
RMM:  11    -0.238354696303E+02   -0.15680E-04   -0.11814E-06    48   0.800E-03    0.136E-03
RMM:  12    -0.238354754842E+02   -0.58540E-05   -0.52979E-07    48   0.439E-03    0.959E-04
RMM:  13    -0.238354775295E+02   -0.20453E-05   -0.12503E-07    44   0.238E-03    0.683E-04
RMM:  14    -0.238354778553E+02   -0.32578E-06   -0.17440E-07    48   0.265E-03
    5 T=    74. E= -.23766933E+02 F= -.23835478E+02 E0= -.23839343E+02  EK= 0.38480E-01 SP= 0.96E-02 SK= 0.20E-01
       N       E                     dE             d eps       ncg     rms          rms(c)
DAV:   1    -0.239676642761E+02   -0.13219E+00   -0.11529E+00    64   0.125E+01    0.479E-01
RMM:   2    -0.239725576126E+02   -0.48933E-02   -0.59497E-02    64   0.189E+00    0.428E-01
RMM:   3    -0.239706304676E+02    0.19271E-02   -0.23729E-02    64   0.968E-01    0.326E-01
RMM:   4    -0.239683475678E+02    0.22829E-02   -0.13552E-02    64   0.726E-01    0.155E-01
RMM:   5    -0.239689025448E+02   -0.55498E-03   -0.14685E-03    64   0.250E-01    0.181E-01
RMM:   6    -0.239684170857E+02    0.48546E-03   -0.26378E-03    64   0.297E-01    0.109E-01
RMM:   7    -0.239680854765E+02    0.33161E-03   -0.28608E-03    64   0.325E-01    0.101E-01
RMM:   8    -0.239677858484E+02    0.29963E-03   -0.97591E-04    64   0.184E-01    0.522E-02
RMM:   9    -0.239677704753E+02    0.15373E-04   -0.27993E-04    64   0.107E-01    0.296E-02
RMM:  10    -0.239678213130E+02   -0.50838E-04   -0.11697E-04    64   0.640E-02    0.183E-02
RMM:  11    -0.239678461929E+02   -0.24880E-04   -0.99506E-05    64   0.599E-02    0.888E-03
RMM:  12    -0.239678612352E+02   -0.15042E-04   -0.38021E-06    60   0.158E-02    0.629E-03
RMM:  13    -0.239678739924E+02   -0.12757E-04   -0.13983E-06    48   0.846E-03    0.266E-03
RMM:  14    -0.239678790751E+02   -0.50827E-05   -0.34776E-07    48   0.450E-03    0.164E-03
RMM:  15    -0.239678803377E+02   -0.12626E-05   -0.10270E-07    48   0.235E-03    0.985E-04
RMM:  16    -0.239678811528E+02   -0.81506E-06   -0.20097E-07    48   0.293E-03
    6 T=   190. E= -.23823992E+02 F= -.23967881E+02 E0= -.23978369E+02  EK= 0.98330E-01 SP= 0.15E-01 SK= 0.31E-01
       N       E                     dE             d eps       ncg     rms          rms(c)
DAV:   1    -0.239924408935E+02   -0.24561E-01   -0.16901E+00    64   0.114E+01    0.698E-01
RMM:   2    -0.239835897910E+02    0.88511E-02   -0.13249E-01    64   0.270E+00    0.367E-01
RMM:   3    -0.239994846114E+02   -0.15895E-01   -0.12228E-01    64   0.214E+00    0.745E-01
RMM:   4    -0.239848565368E+02    0.14628E-01   -0.39146E-02    64   0.117E+00    0.314E-01
RMM:   5    -0.239832868966E+02    0.15696E-02   -0.96109E-03    64   0.663E-01    0.153E-01
RMM:   6    -0.239833291322E+02   -0.42236E-04   -0.19524E-03    64   0.296E-01    0.111E-01
RMM:   7    -0.239832184953E+02    0.11064E-03   -0.74757E-04    64   0.171E-01    0.119E-01
RMM:   8    -0.239829846887E+02    0.23381E-03   -0.17022E-04    64   0.885E-02    0.127E-01
RMM:   9    -0.239829935534E+02   -0.88647E-05   -0.76698E-06    64   0.268E-02    0.123E-01
RMM:  10    -0.239829854872E+02    0.80662E-05   -0.60219E-07    48   0.687E-03    0.124E-01
RMM:  11    -0.239830807661E+02   -0.95279E-04   -0.17421E-05    64   0.260E-02    0.119E-01
RMM:  12    -0.239838039161E+02   -0.72315E-03   -0.92788E-04    64   0.194E-01    0.112E-01
RMM:  13    -0.239840238999E+02   -0.21998E-03   -0.78943E-05    64   0.614E-02    0.116E-01
RMM:  14    -0.239836390723E+02    0.38483E-03   -0.28945E-04    64   0.109E-01    0.110E-01
RMM:  15    -0.239823410719E+02    0.12980E-02   -0.20024E-03    64   0.285E-01    0.162E-01
RMM:  16    -0.239820634708E+02    0.27760E-03   -0.15409E-04    64   0.902E-02    0.172E-01
RMM:  17    -0.239822141416E+02   -0.15067E-03   -0.27738E-05    64   0.419E-02    0.157E-01
RMM:  18    -0.239821773656E+02    0.36776E-04   -0.11207E-05    64   0.219E-02    0.162E-01
RMM:  19    -0.239823528330E+02   -0.17547E-03   -0.27637E-05    64   0.337E-02    0.151E-01
RMM:  20    -0.239825565986E+02   -0.20377E-03   -0.37676E-05    64   0.387E-02    0.141E-01
RMM:  21    -0.239830737273E+02   -0.51713E-03   -0.32321E-04    64   0.114E-01    0.116E-01
RMM:  22    -0.239834670786E+02   -0.39335E-03   -0.21697E-04    64   0.945E-02    0.108E-01
RMM:  23    -0.239839178642E+02   -0.45079E-03   -0.35488E-04    64   0.120E-01    0.110E-01
RMM:  24    -0.239843258235E+02   -0.40796E-03   -0.26234E-04    64   0.104E-01    0.122E-01
RMM:  25    -0.239834439705E+02    0.88185E-03   -0.11815E-03    64   0.219E-01    0.114E-01
RMM:  26    -0.239818027722E+02    0.16412E-02   -0.24281E-03    64   0.312E-01    0.190E-01
RMM:  27    -0.239822060214E+02   -0.40325E-03   -0.80888E-05    64   0.835E-02    0.160E-01
RMM:  28    -0.239819956327E+02    0.21039E-03   -0.48971E-05    64   0.471E-02    0.175E-01
RMM:  29    -0.239819468801E+02    0.48753E-04   -0.77810E-06    64   0.196E-02    0.176E-01
RMM:  30    -0.239829735091E+02   -0.10266E-02   -0.10848E-03    64   0.207E-01    0.116E-01
RMM:  31    -0.239840833256E+02   -0.11098E-02   -0.18791E-03    64   0.276E-01    0.117E-01
RMM:  32    -0.239845320871E+02   -0.44876E-03   -0.26175E-04    64   0.110E-01    0.129E-01
RMM:  33    -0.239845733815E+02   -0.41294E-04   -0.13767E-05    64   0.317E-02    0.130E-01
RMM:  34    -0.239846354939E+02   -0.62112E-04   -0.61664E-06    60   0.160E-02    0.132E-01
RMM:  35    -0.239845076861E+02    0.12781E-03   -0.18548E-05    64   0.277E-02    0.127E-01
RMM:  36    -0.239844093579E+02    0.98328E-04   -0.15171E-05    64   0.249E-02    0.123E-01
RMM:  37    -0.239844289370E+02   -0.19579E-04   -0.41124E-07    48   0.582E-03    0.124E-01
RMM:  38    -0.239845433868E+02   -0.11445E-03   -0.17387E-05    64   0.263E-02    0.128E-01
RMM:  39    -0.239850088073E+02   -0.46542E-03   -0.24242E-04    64   0.989E-02    0.149E-01
RMM:  40    -0.239851258825E+02   -0.11708E-03   -0.23622E-05    64   0.328E-02    0.154E-01
RMM:  41    -0.239847768904E+02    0.34899E-03   -0.10361E-04    64   0.643E-02    0.138E-01
RMM:  42    -0.239845856332E+02    0.19126E-03   -0.50977E-05    64   0.452E-02    0.130E-01
RMM:  43    -0.239844380527E+02    0.14758E-03   -0.34118E-05    64   0.372E-02    0.124E-01
RMM:  44    -0.239840014371E+02    0.43662E-03   -0.28378E-04    64   0.107E-01    0.112E-01
RMM:  45    -0.239830818706E+02    0.91957E-03   -0.12615E-03    64   0.225E-01    0.128E-01
RMM:  46    -0.239817696385E+02    0.13122E-02   -0.15210E-03    64   0.248E-01    0.195E-01
RMM:  47    -0.239799592475E+02    0.18104E-02   -0.17546E-03    64   0.267E-01    0.217E-01
RMM:  48    -0.239794224683E+02    0.53678E-03   -0.28347E-04    64   0.116E-01    0.198E-01
RMM:  49    -0.239797558068E+02   -0.33334E-03   -0.67444E-05    64   0.564E-02    0.214E-01
RMM:  50    -0.239794279921E+02    0.32781E-03   -0.59380E-05    64   0.498E-02    0.201E-01
RMM:  51    -0.239791853893E+02    0.24260E-03   -0.70306E-05    64   0.537E-02    0.185E-01
RMM:  52    -0.239792656115E+02   -0.80222E-04   -0.53771E-06    60   0.169E-02    0.191E-01
RMM:  53    -0.239791108472E+02    0.15476E-03   -0.27791E-05    64   0.337E-02    0.180E-01
RMM:  54    -0.239793075402E+02   -0.19669E-03   -0.41168E-05    64   0.407E-02    0.194E-01
RMM:  55    -0.239790926578E+02    0.21488E-03   -0.47136E-05    64   0.435E-02    0.178E-01
RMM:  56    -0.239792107090E+02   -0.11805E-03   -0.15160E-05    64   0.253E-02    0.188E-01
RMM:  57    -0.239791311668E+02    0.79542E-04   -0.57553E-06    64   0.153E-02    0.182E-01
RMM:  58    -0.239791763964E+02   -0.45230E-04   -0.21158E-06    56   0.967E-03    0.185E-01
RMM:  59    -0.239791538708E+02    0.22526E-04   -0.38248E-07    48   0.425E-03    0.184E-01
RMM:  60    -0.239791951531E+02   -0.41282E-04   -0.15486E-06    48   0.829E-03
    7 T=   211. E= -.23794688E+02 F= -.23979195E+02 E0= -.23991876E+02  EK= 0.10911E+00 SP= 0.22E-01 SK= 0.54E-01
       N       E                     dE             d eps       ncg     rms          rms(c)
DAV:   1    -0.237962352149E+02    0.18292E+00   -0.10389E+00    64   0.101E+01    0.756E-01
RMM:   2    -0.244408823398E+02   -0.64465E+00   -0.14738E+00    64   0.772E+00    0.398E+00
RMM:   3    -0.238022338562E+02    0.63865E+00   -0.12045E+00    64   0.690E+00    0.108E+00
RMM:   4    -0.237901162643E+02    0.12118E-01   -0.23240E-01    64   0.316E+00    0.654E-01
RMM:   5    -0.247482378142E+02   -0.95812E+00   -0.32922E+00    64   0.115E+01    0.487E+00
RMM:   6    -0.244206741461E+02    0.32756E+00   -0.53072E-02    64   0.192E+00    0.409E+00
RMM:   7    -0.243321248493E+02    0.88549E-01   -0.13113E-02    64   0.744E-01    0.381E+00
RMM:   8    -0.240461783301E+02    0.28595E+00   -0.16477E-01    64   0.258E+00    0.270E+00
RMM:   9    -0.239440757830E+02    0.10210E+00   -0.58722E-02    64   0.156E+00    0.215E+00
RMM:  10    -0.239986025693E+02   -0.54527E-01   -0.75583E-03    64   0.580E-01    0.242E+00
RMM:  11    -0.239805430480E+02    0.18060E-01   -0.87926E-04    64   0.206E-01    0.232E+00
RMM:  12    -0.238323796194E+02    0.14816E+00   -0.15037E-01    64   0.251E+00    0.129E+00
RMM:  13    -0.238263792892E+02    0.60003E-02   -0.65114E-03    64   0.585E-01    0.121E+00
RMM:  14    -0.237955048064E+02    0.30874E-01   -0.32341E-02    64   0.118E+00    0.807E-01
RMM:  15    -0.237870019068E+02    0.85029E-02   -0.11070E-02    64   0.701E-01    0.641E-01
RMM:  16    -0.237826760136E+02    0.43259E-02   -0.18981E-02    64   0.904E-01    0.511E-01
RMM:  17    -0.237827922744E+02   -0.11626E-03   -0.14938E-03    64   0.279E-01    0.515E-01
RMM:  18    -0.237854268496E+02   -0.26346E-02   -0.56797E-03    64   0.495E-01    0.550E-01
RMM:  19    -0.237875314017E+02   -0.21046E-02   -0.16214E-03    64   0.269E-01    0.587E-01
RMM:  20    -0.237930696680E+02   -0.55383E-02   -0.36120E-03    64   0.392E-01    0.679E-01
RMM:  21    -0.237949252917E+02   -0.18556E-02   -0.55043E-04    64   0.159E-01    0.712E-01
RMM:  22    -0.237828450832E+02    0.12080E-01   -0.54144E-02    64   0.150E+00    0.521E-01
RMM:  23    -0.237842272015E+02   -0.13821E-02   -0.76022E-03    64   0.566E-01    0.485E-01
RMM:  24    -0.237898764190E+02   -0.56492E-02   -0.80631E-03    64   0.572E-01    0.568E-01
RMM:  25    -0.237822090152E+02    0.76674E-02   -0.81048E-03    64   0.596E-01    0.339E-01
RMM:  26    -0.237868263046E+02   -0.46173E-02   -0.41163E-03    64   0.403E-01    0.451E-01
RMM:  27    -0.237828991181E+02    0.39272E-02   -0.22639E-03    64   0.317E-01    0.327E-01
RMM:  28    -0.237830535800E+02   -0.15446E-03   -0.48379E-05    64   0.562E-02    0.320E-01
RMM:  29    -0.237810162883E+02    0.20373E-02   -0.20007E-03    64   0.294E-01    0.242E-01
RMM:  30    -0.237803048803E+02    0.71141E-03   -0.27371E-03    64   0.340E-01    0.223E-01
RMM:  31    -0.237804667077E+02   -0.16183E-03   -0.81477E-04    64   0.189E-01    0.240E-01
RMM:  32    -0.237818455203E+02   -0.13788E-02   -0.26147E-03    64   0.330E-01    0.316E-01
RMM:  33    -0.237819218975E+02   -0.76377E-04   -0.11900E-04    64   0.817E-02    0.321E-01
RMM:  34    -0.237821838090E+02   -0.26191E-03   -0.45623E-05    64   0.464E-02    0.333E-01
RMM:  35    -0.237821586162E+02    0.25193E-04   -0.15053E-06    52   0.108E-02    0.333E-01
RMM:  36    -0.237820474883E+02    0.11113E-03   -0.60398E-06    64   0.153E-02    0.328E-01
RMM:  37    -0.237818453645E+02    0.20212E-03   -0.19616E-02    64   0.907E-01    0.274E-01
RMM:  38    -0.237821573221E+02   -0.31196E-03   -0.63110E-04    64   0.186E-01    0.285E-01
RMM:  39    -0.237823545111E+02   -0.19719E-03   -0.85600E-05    68   0.681E-02    0.296E-01
RMM:  40    -0.237821426913E+02    0.21182E-03   -0.10227E-05    64   0.244E-02    0.284E-01
RMM:  41    -0.237820862155E+02    0.56476E-04   -0.14643E-06    48   0.900E-03    0.281E-01
RMM:  42    -0.237819202676E+02    0.16595E-03   -0.13725E-05    64   0.260E-02    0.271E-01
RMM:  43    -0.237819205592E+02   -0.29165E-06   -0.29173E-07    48   0.468E-03
    8 T=    77. E= -.23642465E+02 F= -.23781921E+02 E0= -.23785818E+02  EK= 0.39740E-01 SP= 0.31E-01 SK= 0.69E-01
       N       E                     dE             d eps       ncg     rms          rms(c)
DAV:   1    -0.239836361693E+02   -0.20172E+00   -0.22912E+00    64   0.163E+01    0.104E+00
RMM:   2    -0.239960317504E+02   -0.12396E-01   -0.15252E-01    64   0.291E+00    0.125E+00
RMM:   3    -0.240173947247E+02   -0.21363E-01   -0.36532E-02    64   0.122E+00    0.166E+00
RMM:   4    -0.239985189950E+02    0.18876E-01   -0.17633E-02    64   0.993E-01    0.102E+00
RMM:   5    -0.239936217231E+02    0.48973E-02   -0.44921E-03    64   0.439E-01    0.851E-01
RMM:   6    -0.239940685823E+02   -0.44686E-03   -0.20636E-04    64   0.110E-01    0.851E-01
RMM:   7    -0.239907604339E+02    0.33081E-02   -0.62588E-04    64   0.136E-01    0.804E-01
RMM:   8    -0.239865773919E+02    0.41830E-02   -0.10446E-03    64   0.183E-01    0.751E-01
RMM:   9    -0.239799245276E+02    0.66529E-02   -0.32635E-03    64   0.326E-01    0.688E-01
RMM:  10    -0.239769756819E+02    0.29488E-02   -0.10755E-03    64   0.199E-01    0.685E-01
RMM:  11    -0.239797809658E+02   -0.28053E-02   -0.27616E-04    64   0.104E-01    0.681E-01
RMM:  12    -0.239870744485E+02   -0.72935E-02   -0.34331E-03    64   0.339E-01    0.711E-01
RMM:  13    -0.239955882569E+02   -0.85138E-02   -0.38887E-03    64   0.372E-01    0.790E-01
RMM:  14    -0.240025578675E+02   -0.69696E-02   -0.24433E-03    64   0.312E-01    0.854E-01
RMM:  15    -0.239960327029E+02    0.65252E-02   -0.10139E-03    64   0.198E-01    0.795E-01
RMM:  16    -0.239959600791E+02    0.72624E-04   -0.18119E-05    64   0.307E-02    0.792E-01
RMM:  17    -0.239920257919E+02    0.39343E-02   -0.68522E-04    64   0.150E-01    0.739E-01
RMM:  18    -0.239805332325E+02    0.11493E-01   -0.62677E-03    64   0.461E-01    0.593E-01
RMM:  19    -0.239767494086E+02    0.37838E-02   -0.17468E-03    64   0.257E-01    0.550E-01
RMM:  20    -0.239611086571E+02    0.15641E-01   -0.17095E-02    64   0.788E-01    0.400E-01
RMM:  21    -0.239617929786E+02   -0.68432E-03   -0.38598E-04    64   0.161E-01    0.409E-01
RMM:  22    -0.239593441578E+02    0.24488E-02   -0.22956E-03    64   0.306E-01    0.287E-01
RMM:  23    -0.239643790748E+02   -0.50349E-02   -0.37649E-03    64   0.369E-01    0.485E-01
RMM:  24    -0.239611673588E+02    0.32117E-02   -0.10938E-02    64   0.631E-01    0.445E-01
RMM:  25    -0.239596282520E+02    0.15391E-02   -0.24448E-04    64   0.135E-01    0.276E-01
RMM:  26    -0.239606366941E+02   -0.10084E-02   -0.53636E-04    64   0.130E-01    0.356E-01
RMM:  27    -0.239595305304E+02    0.11062E-02   -0.59258E-04    64   0.167E-01    0.155E-01
RMM:  28    -0.239594172873E+02    0.11324E-03   -0.59203E-04    64   0.151E-01    0.700E-02
RMM:  29    -0.239594754610E+02   -0.58174E-04   -0.26630E-05    64   0.453E-02    0.610E-02
RMM:  30    -0.239594341834E+02    0.41278E-04   -0.34956E-05    64   0.381E-02    0.168E-02
RMM:  31    -0.239594457463E+02   -0.11563E-04   -0.13413E-05    64   0.232E-02    0.163E-02
RMM:  32    -0.239594456209E+02    0.12541E-06   -0.28274E-06    56   0.113E-02
    9 T=   304. E= -.23657093E+02 F= -.23959446E+02 E0= -.23967358E+02  EK= 0.15717E+00 SP= 0.40E-01 SK= 0.10E+00
       N       E                     dE             d eps       ncg     rms          rms(c)
DAV:   1    -0.238791317891E+02    0.80314E-01   -0.78868E-01    64   0.965E+00    0.705E-01
RMM:   2    -0.239003592896E+02   -0.21228E-01   -0.99831E-02    64   0.231E+00    0.153E+00
RMM:   3    -0.239650152488E+02   -0.64656E-01   -0.16793E-01    64   0.231E+00    0.128E+00
RMM:   4    -0.239775657929E+02   -0.12551E-01   -0.16060E-02    64   0.759E-01    0.137E+00
RMM:   5    -0.239254159975E+02    0.52150E-01   -0.42155E-02    64   0.107E+00    0.110E+00
RMM:   6    -0.239017781010E+02    0.23638E-01   -0.17382E-02    64   0.725E-01    0.109E+00
RMM:   7    -0.239000619065E+02    0.17162E-02   -0.97001E-04    68   0.209E-01    0.107E+00
RMM:   8    -0.238960770146E+02    0.39849E-02   -0.42222E-04    64   0.145E-01    0.101E+00
RMM:   9    -0.238831742168E+02    0.12903E-01   -0.51837E-03    64   0.489E-01    0.573E-01
RMM:  10    -0.238806336574E+02    0.25406E-02   -0.15745E-02    64   0.736E-01    0.374E-01
RMM:  11    -0.238807593114E+02   -0.12565E-03   -0.61857E-03    64   0.454E-01    0.330E-01
RMM:  12    -0.238814119904E+02   -0.65268E-03   -0.37036E-03    64   0.352E-01    0.328E-01
RMM:  13    -0.238821579861E+02   -0.74600E-03   -0.42366E-03    64   0.382E-01    0.327E-01
RMM:  14    -0.238803448688E+02    0.18131E-02   -0.16976E-03    64   0.269E-01    0.230E-01
RMM:  15    -0.238786276109E+02    0.17173E-02   -0.32609E-03    64   0.353E-01    0.113E-01
RMM:  16    -0.238783444374E+02    0.28317E-03   -0.56554E-04    64   0.156E-01    0.810E-02
RMM:  17    -0.238781336911E+02    0.21075E-03   -0.29519E-04    64   0.106E-01    0.733E-02
RMM:  18    -0.238779529425E+02    0.18075E-03   -0.24573E-04    64   0.937E-02    0.760E-02
RMM:  19    -0.238776320633E+02    0.32088E-03   -0.44127E-04    64   0.123E-01    0.875E-02
RMM:  20    -0.238774795994E+02    0.15246E-03   -0.92578E-05    64   0.593E-02    0.929E-02
RMM:  21    -0.238773962923E+02    0.83307E-04   -0.22456E-05    64   0.303E-02    0.960E-02
RMM:  22    -0.238774942583E+02   -0.97966E-04   -0.23543E-05    64   0.302E-02    0.896E-02
RMM:  23    -0.238776103593E+02   -0.11610E-03   -0.41033E-05    64   0.365E-02    0.828E-02
RMM:  24    -0.238778419247E+02   -0.23157E-03   -0.21204E-04    64   0.828E-02    0.719E-02
RMM:  25    -0.238780756507E+02   -0.23373E-03   -0.24273E-04    64   0.886E-02    0.693E-02
RMM:  26    -0.238780678791E+02    0.77716E-05   -0.58145E-06    60   0.223E-02    0.698E-02
RMM:  27    -0.238780304083E+02    0.37471E-04   -0.74955E-06    56   0.155E-02    0.703E-02
RMM:  28    -0.238780078001E+02    0.22608E-04   -0.25147E-06    52   0.930E-03    0.707E-02
RMM:  29    -0.238782266943E+02   -0.21889E-03   -0.20940E-04    64   0.797E-02    0.704E-02
RMM:  30    -0.238790134106E+02   -0.78672E-03   -0.15323E-03    64   0.218E-01    0.107E-01
RMM:  31    -0.238795650066E+02   -0.55160E-03   -0.49500E-04    64   0.128E-01    0.137E-01
RMM:  32    -0.238795494468E+02    0.15560E-04   -0.19425E-05    64   0.327E-02    0.136E-01
RMM:  33    -0.238795322770E+02    0.17170E-04   -0.11123E-06    48   0.833E-03    0.136E-01
RMM:  34    -0.238795243910E+02    0.78860E-05   -0.22394E-07    48   0.388E-03    0.135E-01
RMM:  35    -0.238795167061E+02    0.76849E-05   -0.76946E-08    44   0.222E-03    0.135E-01
RMM:  36    -0.238795796254E+02   -0.62919E-04   -0.35026E-06    56   0.110E-02    0.138E-01
RMM:  37    -0.238796012837E+02   -0.21658E-04   -0.73315E-07    48   0.590E-03    0.140E-01
RMM:  38    -0.238796190033E+02   -0.17720E-04   -0.52346E-07    48   0.466E-03    0.140E-01
RMM:  39    -0.238796612115E+02   -0.42208E-04   -0.30404E-06    52   0.124E-02    0.144E-01
RMM:  40    -0.238796611871E+02    0.24365E-07   -0.19176E-07    48   0.398E-03
   10 T=    48. E= -.23671364E+02 F= -.23879661E+02 E0= -.23883912E+02  EK= 0.24619E-01 SP= 0.53E-01 SK= 0.13E+00
