 vasp.5.4.4.18Apr17-6-g9f103f2a35 (build Jul 12 2018 13:43:46) complex           
 executed on             LinuxGNU date 2019.06.22  02:17:32
 running on    1 total cores
 distrk:  each k-point on    1 cores,    1 groups
 distr:  one band on NCORES_PER_BAND=   1 cores,    1 groups


--------------------------------------------------------------------------------------------------------


 INCAR:
 POTCAR:    PAW_PBE H 15Jun2001                   
 POTCAR:    PAW_PBE C 08Apr2002                   
 POTCAR:    PAW_PBE H 15Jun2001                   
   VRHFIN =H: ultrasoft test                                                    
   LEXCH  = PE                                                                  
   EATOM  =    12.4884 eV,    0.9179 Ry                                         
                                                                                
   TITEL  = PAW_PBE H 15Jun2001                                                 
   LULTRA =        F    use ultrasoft PP ?                                      
   IUNSCR =        0    unscreen: 0-lin 1-nonlin 2-no                           
   RPACOR =    0.000    partial core radius                                     
   POMASS =    1.000; ZVAL   =    1.000    mass and valenz                      
   RCORE  =    1.100    outmost cutoff radius                                   
   RWIGS  =    0.700; RWIGS  =    0.370    wigner-seitz radius (au A)           
   ENMAX  =  250.000; ENMIN  =  200.000 eV                                      
   RCLOC  =    0.701    cutoff for local pot                                    
   LCOR   =        T    correct aug charges                                     
   LPAW   =        T    paw PP                                                  
   EAUG   =  400.000                                                            
   RMAX   =    1.123    core radius for proj-oper                               
   RAUG   =    1.200    factor for augmentation sphere                          
   RDEP   =    1.112    radius for radial grids                                 
   RDEPT  =    0.926    core radius for aug-charge                              
                                                                                
   Atomic configuration                                                         
    2 entries                                                                   
     n  l   j            E        occ.                                          
     1  0  0.50        -6.4927   1.0000                                         
     2  1  0.50        -3.4015   0.0000                                         
   Description                                                                  
     l       E           TYP  RCUT    TYP  RCUT                                 
     0     -6.4927494     23  1.100                                             
     0      6.8029130     23  1.100                                             
     1     -4.0817478     23  1.100                                             
  local pseudopotential read in
  atomic valenz-charges read in
  non local Contribution for L=           0  read in
    real space projection operators read in
  non local Contribution for L=           0  read in
    real space projection operators read in
  non local Contribution for L=           1  read in
    real space projection operators read in
    PAW grid and wavefunctions read in

   number of l-projection  operators is LMAX  =           3
   number of lm-projection operators is LMMAX =           5

 POTCAR:    PAW_PBE C 08Apr2002                   
   VRHFIN =C: s2p2                                                              
   LEXCH  = PE                                                                  
   EATOM  =   147.1560 eV,   10.8157 Ry                                         
                                                                                
   TITEL  = PAW_PBE C 08Apr2002                                                 
   LULTRA =        F    use ultrasoft PP ?                                      
   IUNSCR =        1    unscreen: 0-lin 1-nonlin 2-no                           
   RPACOR =    1.200    partial core radius                                     
   POMASS =   12.011; ZVAL   =    4.000    mass and valenz                      
   RCORE  =    1.500    outmost cutoff radius                                   
   RWIGS  =    1.630; RWIGS  =    0.863    wigner-seitz radius (au A)           
   ENMAX  =  400.000; ENMIN  =  300.000 eV                                      
   ICORE  =        2    local potential                                         
   LCOR   =        T    correct aug charges                                     
   LPAW   =        T    paw PP                                                  
   EAUG   =  644.873                                                            
   DEXC   =    0.000                                                            
   RMAX   =    1.529    core radius for proj-oper                               
   RAUG   =    1.300    factor for augmentation sphere                          
   RDEP   =    1.501    radius for radial grids                                 
   RDEPT  =    1.300    core radius for aug-charge                              
                                                                                
   Atomic configuration                                                         
    4 entries                                                                   
     n  l   j            E        occ.                                          
     1  0  0.50      -273.3789   2.0000                                         
     2  0  0.50       -13.7508   2.0000                                         
     2  1  0.50        -5.2854   2.0000                                         
     3  2  1.50        -5.4423   0.0000                                         
   Description                                                                  
     l       E           TYP  RCUT    TYP  RCUT                                 
     0    -13.7508458     23  1.200                                             
     0     -8.2022199     23  1.200                                             
     1     -5.2854383     23  1.500                                             
     1     34.0145650     23  1.500                                             
     2     -5.4423304      7  1.500                                             
  local pseudopotential read in
  partial core-charges read in
  partial kinetic energy density read in
  atomic valenz-charges read in
  non local Contribution for L=           0  read in
    real space projection operators read in
  non local Contribution for L=           0  read in
    real space projection operators read in
  non local Contribution for L=           1  read in
    real space projection operators read in
  non local Contribution for L=           1  read in
    real space projection operators read in
    PAW grid and wavefunctions read in

   number of l-projection  operators is LMAX  =           4
   number of lm-projection operators is LMMAX =           8


 ----------------------------------------------------------------------------- 
|                                                                             |
|  ADVICE TO THIS USER RUNNING 'VASP/VAMP'   (HEAR YOUR MASTER'S VOICE ...):  |
|                                                                             |
|      You have a (more or less) 'small supercell' and for smaller cells      |
|      it is recommended  to use the reciprocal-space projection scheme!      |
|      The real space optimization is not  efficient for small cells and it   |
|      is also less accurate ...                                              |
|      Therefore set LREAL=.FALSE. in the  INCAR file                         |
|                                                                             |
 ----------------------------------------------------------------------------- 


 ----------------------------------------------------------------------------- 
|                                                                             |
|           W    W    AA    RRRRR   N    N  II  N    N   GGGG   !!!           |
|           W    W   A  A   R    R  NN   N  II  NN   N  G    G  !!!           |
|           W    W  A    A  R    R  N N  N  II  N N  N  G       !!!           |
|           W WW W  AAAAAA  RRRRR   N  N N  II  N  N N  G  GGG   !            |
|           WW  WW  A    A  R   R   N   NN  II  N   NN  G    G                |
|           W    W  A    A  R    R  N    N  II  N    N   GGGG   !!!           |
|                                                                             |
|     The real-space-projection scheme for the treatment of the nonlocal      |
|     pseudopotentials has been switched on -- but on file POTCAR I have      |
|     not found any entries signalling me that you have ever performed a      |
|     real-space optimization of all nonlocal projectors! BE WARNED that      |
|     a calculation using the real-space-projection scheme together with      |
|     nonlocal projectors which were not real-space-optimized (according      |
|     to the plane-wave-cutoff used in this calculation) might give more      |
|     or less inaccurate results                                              |
|     I hope you know what you are doing                                      |
|                                                                             |
 ----------------------------------------------------------------------------- 

  PAW_PBE H 15Jun2001                   :
 energy of atom  1       EATOM=  -12.4884
 kinetic energy error for atom=    0.0098 (will be added to EATOM!!)
  PAW_PBE C 08Apr2002                   :
 energy of atom  2       EATOM= -147.1560
 kinetic energy error for atom=    0.0288 (will be added to EATOM!!)


 POSCAR:  H  C                                   
  positions in cartesian coordinates
  No initial velocities read in
 exchange correlation table for  LEXCH =        8
   RHO(1)=    0.500       N(1)  =     2000
   RHO(2)=  100.500       N(2)  =     4000



--------------------------------------------------------------------------------------------------------


 ion  position               nearest neighbor table
   1  0.538  0.407  0.361-   5 1.12
   2  0.394  0.480  0.438-   5 1.11
   3  0.552  0.565  0.443-   5 1.13
   4  0.529  0.416  0.539-   5 1.13
   5  0.503  0.467  0.445-   2 1.11   1 1.12   3 1.13   4 1.13


IMPORTANT INFORMATION: All symmetrisations will be switched off!
NOSYMM: (Re-)initialisation of all symmetry stuff for point group C_1.




Automatic generation of k-mesh.
 generate k-points for:    2    2    2
Space group operators:
 irot       det(A)        alpha          n_x          n_y          n_z        tau_x        tau_y        tau_z
    1     1.000000     0.000000     1.000000     0.000000     0.000000     0.000000     0.000000     0.000000
 
 Subroutine IBZKPT returns following result:
 ===========================================
 
 Found      4 irreducible k-points:
 
 Following reciprocal coordinates:
            Coordinates               Weight
  0.250000  0.250000  0.250000      2.000000
 -0.250000  0.250000  0.250000      2.000000
  0.250000 -0.250000  0.250000      2.000000
 -0.250000 -0.250000  0.250000      2.000000
 
 Following cartesian coordinates:
            Coordinates               Weight
  0.024439  0.024010  0.025272      2.000000
 -0.024439  0.025063  0.024254      2.000000
  0.024439 -0.025063  0.024486      2.000000
 -0.024439 -0.024010  0.023469      2.000000
 


--------------------------------------------------------------------------------------------------------




 Dimension of arrays:
   k-points           NKPTS =      4   k-points in BZ     NKDIM =      4   number of bands    NBANDS=      8
   number of dos      NEDOS =    301   number of ions     NIONS =      5
   non local maximal  LDIM  =      4   non local SUM 2l+1 LMDIM =      8
   total plane-waves  NPLWV = 343000
   max r-space proj   IRMAX =    761   max aug-charges    IRDMAX=   3985
   dimension x,y,z NGX =    70 NGY =   70 NGZ =   70
   dimension x,y,z NGXF=   140 NGYF=  140 NGZF=  140
   support grid    NGXF=   140 NGYF=  140 NGZF=  140
   ions per type =               4   1
   NGX,Y,Z   is equivalent  to a cutoff of  11.38, 11.42, 11.34 a.u.
   NGXF,Y,Z  is equivalent  to a cutoff of  22.75, 22.84, 22.68 a.u.

 SYSTEM =  unknown system                          
 POSCAR =   H  C                                   

 Startparameter for this run:
   NWRITE =      2    write-flag & timer
   PREC   = a         normal or accurate (medium, high low for compatibility)
   ISTART =      0    job   : 0-new  1-cont  2-samecut
   ICHARG =      2    charge: 1-file 2-atom 10-const
   ISPIN  =      1    spin polarized calculation?
   LNONCOLLINEAR =      F non collinear calculations
   LSORBIT =      F    spin-orbit coupling
   INIWAV =      1    electr: 0-lowe 1-rand  2-diag
   LASPH  =      F    aspherical Exc in radial PAW
   METAGGA=      F    non-selfconsistent MetaGGA calc.

 Electronic Relaxation 1
   ENCUT  =  400.0 eV  29.40 Ry    5.42 a.u.  16.68 16.62 16.73*2*pi/ulx,y,z
   ENINI  =  400.0     initial cutoff
   ENAUG  =  644.9 eV  augmentation charge cutoff
   NELM   =     60;   NELMIN=  2; NELMDL= -5     # of ELM steps 
   EDIFF  = 0.1E-05   stopping-criterion for ELM
   LREAL  =      T    real-space projection
   NLSPLINE    = F    spline interpolate recip. space projectors
   LCOMPAT=      F    compatible to vasp.4.4
   GGA_COMPAT  = T    GGA compatible to vasp.4.4-vasp.4.6
   LMAXPAW     = -100 max onsite density
   LMAXMIX     =    2 max onsite mixed and CHGCAR
   VOSKOWN=      0    Vosko Wilk Nusair interpolation
   ROPT   =    0.00000   0.00000
 Ionic relaxation
   EDIFFG = 0.1E-04   stopping-criterion for IOM
   NSW    =     10    number of steps for IOM
   NBLOCK =      1;   KBLOCK =      1    inner block; outer block 
   IBRION =      0    ionic relax: 0-MD 1-quasi-New 2-CG
   NFREE  =      0    steps in history (QN), initial steepest desc. (CG)
   ISIF   =      2    stress and relaxation
   IWAVPR =     12    prediction:  0-non 1-charg 2-wave 3-comb
   ISYM   =      0    0-nonsym 1-usesym 2-fastsym
   LCORR  =      T    Harris-Foulkes like correction to forces

   POTIM  = 2.0000    time-step for ionic-motion
   TEIN   =   50.0    initial temperature
   TEBEG  =   50.0;   TEEND  =  50.0 temperature during run
   SMASS  =   0.00    Nose mass-parameter (am)
   estimated Nose-frequenzy (Omega)   =  0.79E+14 period in steps = 40.00 mass=   0.123E-29a.u.
   SCALEE = 1.0000    scale energy and forces
   NPACO  =    256;   APACO  = 16.0  distance and # of slots for P.C.
   PSTRESS=    0.0 pullay stress

  Mass of Ions in am
   POMASS =   1.00 12.01
  Ionic Valenz
   ZVAL   =   1.00  4.00
  Atomic Wigner-Seitz radii
   RWIGS  =  -1.00 -1.00
  virtual crystal weights 
   VCA    =   1.00  1.00
   NELECT =       8.0000    total number of electrons
   NUPDOWN=      -1.0000    fix difference up-down

 DOS related values:
   EMIN   =  10.00;   EMAX   =-10.00  energy-range for DOS
   EFERMI =   0.00
   ISMEAR =     1;   SIGMA  =   0.20  broadening in eV -4-tet -1-fermi 0-gaus

 Electronic relaxation 2 (details)
   IALGO  =     68    algorithm
   LDIAG  =      T    sub-space diagonalisation (order eigenvalues)
   LSUBROT=      F    optimize rotation matrix (better conditioning)
   TURBO    =      0    0=normal 1=particle mesh
   IRESTART =      0    0=no restart 2=restart with 2 vectors
   NREBOOT  =      0    no. of reboots
   NMIN     =      0    reboot dimension
   EREF     =   0.00    reference energy to select bands
   IMIX   =      4    mixing-type and parameters
     AMIX     =   0.40;   BMIX     =  1.00
     AMIX_MAG =   1.60;   BMIX_MAG =  1.00
     AMIN     =   0.10
     WC   =   100.;   INIMIX=   1;  MIXPRE=   1;  MAXMIX=  50

 Intra band minimization:
   WEIMIN = 0.0010     energy-eigenvalue tresh-hold
   EBREAK =  0.31E-07  absolut break condition
   DEPER  =   0.30     relativ break condition  

   TIME   =   0.40     timestep for ELM

  volume/ion in A,a.u.               =     213.84      1443.08
  Fermi-wavevector in a.u.,A,eV,Ry     =   0.320197  0.605085  1.394953  0.102526
  Thomas-Fermi vector in A             =   1.206598

 Write flags
   LWAVE        =      F    write WAVECAR
   LDOWNSAMPLE  =      F    k-point downsampling of WAVECAR
   LCHARG       =      F    write CHGCAR
   LVTOT        =      F    write LOCPOT, total local potential
   LVHAR        =      F    write LOCPOT, Hartree potential only
   LELF         =      F    write electronic localiz. function (ELF)
   LORBIT       =      0    0 simple, 1 ext, 2 COOP (PROOUT), +10 PAW based schemes


 Dipole corrections
   LMONO  =      F    monopole corrections only (constant potential shift)
   LDIPOL =      F    correct potential (dipole corrections)
   IDIPOL =      0    1-x, 2-y, 3-z, 4-all directions 
   EPSILON=  1.0000000 bulk dielectric constant

 Exchange correlation treatment:
   GGA     =    --    GGA type
   LEXCH   =     8    internal setting for exchange type
   VOSKOWN=      0    Vosko Wilk Nusair interpolation
   LHFCALC =     F    Hartree Fock is set to
   LHFONE  =     F    Hartree Fock one center treatment
   AEXX    =    0.0000 exact exchange contribution

 Linear response parameters
   LEPSILON=     F    determine dielectric tensor
   LRPA    =     F    only Hartree local field effects (RPA)
   LNABLA  =     F    use nabla operator in PAW spheres
   LVEL    =     F    velocity operator in full k-point grid
   LINTERFAST=   F  fast interpolation
   KINTER  =     0    interpolate to denser k-point grid
   CSHIFT  =0.1000    complex shift for real part using Kramers Kronig
   OMEGAMAX=  -1.0    maximum frequency
   DEG_THRESHOLD= 0.2000000E-02 threshold for treating states as degnerate
   RTIME   =   -0.100 relaxation time in fs
  (WPLASMAI=    0.000 imaginary part of plasma frequency in eV, 0.658/RTIME)
   DFIELD  = 0.0000000 0.0000000 0.0000000 field for delta impulse in time

 Orbital magnetization related:
   ORBITALMAG=     F  switch on orbital magnetization
   LCHIMAG   =     F  perturbation theory with respect to B field
   DQ        =  0.001000  dq finite difference perturbation B field
   LLRAUG    =     F  two centre corrections for induced B field



--------------------------------------------------------------------------------------------------------


 molecular dynamics for ions
   using nose mass (canonical ensemble)
 charge density and potential will be updated during run
 non-spin polarized calculation
 RMM-DIIS sequential band-by-band and
  variant of blocked Davidson during initial phase
 perform sub-space diagonalisation
    before iterative eigenvector-optimisation
 modified Broyden-mixing scheme, WC =      100.0
 initial mixing is a Kerker type mixing with AMIX =  0.4000 and BMIX =      1.0000
 Hartree-type preconditioning will be used
 using additional bands            4
 real space projection scheme for non local part
 use partial core corrections
 calculate Harris-corrections to forces   (improved forces if not selfconsistent)
 use gradient corrections 
 use of overlap-Matrix (Vanderbilt PP)
 Methfessel and Paxton  Order N= 1 SIGMA  =   0.20


--------------------------------------------------------------------------------------------------------


  energy-cutoff  :      400.00
  volume of cell :     1069.21
      direct lattice vectors                 reciprocal lattice vectors
    10.229421839  0.000000000  0.000000000     0.097757236 -0.002105886  0.002034993
     0.219493154 10.189079398  0.000000000    -0.000000000  0.098144294  0.001570927
    -0.217082705 -0.164197834 10.258326179     0.000000000  0.000000000  0.097481790

  length of vectors
    10.229421839 10.191443284 10.261936553     0.097801089  0.098156865  0.097481790



 k-points in units of 2pi/SCALE and weight: read from INCAR                         
   0.02443931  0.02400960  0.02527193       0.250
  -0.02443931  0.02506255  0.02425443       0.250
   0.02443931 -0.02506255  0.02448646       0.250
  -0.02443931 -0.02400960  0.02346897       0.250

 k-points in reciprocal lattice and weights: read from INCAR                         
   0.25000000  0.25000000  0.25000000       0.250
  -0.25000000  0.25000000  0.25000000       0.250
   0.25000000 -0.25000000  0.25000000       0.250
  -0.25000000 -0.25000000  0.25000000       0.250

 position of ions in fractional coordinates (direct lattice) 
   0.53839199  0.40663941  0.36079227
   0.39442313  0.47960599  0.43834014
   0.55245273  0.56537351  0.44282192
   0.52867347  0.41578356  0.53937520
   0.50288890  0.46749860  0.44510746

 position of ions in cartesian coordinates  (Angst):
   5.51837161  4.08403991  3.70112478
   4.04483472  4.81476900  4.49663610
   5.67923869  5.68792523  4.54261167
   5.38219655  4.14788745  5.53308669
   5.15025034  4.69029465  4.56605755



--------------------------------------------------------------------------------------------------------


 k-point  1 :   0.2500 0.2500 0.2500  plane waves:   19420
 k-point  2 :  -0.2500 0.2500 0.2500  plane waves:   19426
 k-point  3 :   0.2500-0.2500 0.2500  plane waves:   19419
 k-point  4 :  -0.2500-0.2500 0.2500  plane waves:   19437

 maximum and minimum number of plane-waves per node :     19437    19419

 maximum number of plane-waves:     19437
 maximum index in each direction: 
   IXMAX=   16   IYMAX=   16   IZMAX=   16
   IXMIN=  -16   IYMIN=  -16   IZMIN=  -16


 serial   3D FFT for wavefunctions
 parallel 3D FFT for charge:
    minimum data exchange during FFTs selected (reduces bandwidth)


 total amount of memory used by VASP MPI-rank0   303869. kBytes
=======================================================================

   base      :      30000. kBytes
   nonlr-proj:        158. kBytes
   fftplans  :      94700. kBytes
   grid      :     169030. kBytes
   one-center:         15. kBytes
   wavefun   :       9966. kBytes

     INWAV:  cpu time    0.0000: real time    0.0000
 Broyden mixing: mesh for mixing (old mesh)
   NGX = 33   NGY = 33   NGZ = 33
  (NGX  =140   NGY  =140   NGZ  =140)
  gives a total of  35937 points

 initial charge density was supplied:
 charge density of overlapping atoms calculated
 number of electron       8.0000000 magnetization 
 keeping initial charge density in first step


--------------------------------------------------------------------------------------------------------


 Maximum index for non-local projection operator          697
 Maximum index for augmentation-charges         3668 (set IRDMAX)


--------------------------------------------------------------------------------------------------------


 First call to EWALD:  gamma=   0.173
 Maximum number of real-space cells 3x 3x 3
 Maximum number of reciprocal cells 3x 3x 3

    FEWALD:  cpu time    0.0007: real time    0.0007


--------------------------------------- Iteration      1(   1)  ---------------------------------------


    POTLOK:  cpu time    1.7832: real time    1.7876
    SETDIJ:  cpu time    0.0066: real time    0.0066
     EDDAV:  cpu time    2.9664: real time    2.9734
       DOS:  cpu time    0.0003: real time    0.0003
    --------------------------------------------
      LOOP:  cpu time    4.7564: real time    4.7678

 eigenvalue-minimisations  :    96
 total energy-change (2. order) : 0.1536596E+02  (-0.1808525E+03)
 number of electron       8.0000000 magnetization 
 augmentation part        8.0000000 magnetization 

 Free energy of the ion-electron system (eV)
  ---------------------------------------------------
  alpha Z        PSCENC =         0.22657014
  Ewald energy   TEWEN  =       125.38293558
  -Hartree energ DENC   =      -243.46398040
  -exchange      EXHF   =         0.00000000
  -V(xc)+E(xc)   XCENC  =        21.86144018
  PAW double counting   =       117.05815612     -117.66307307
  entropy T*S    EENTRO =         0.00962361
  eigenvalues    EBANDS =       -85.08746327
  atomic energy  EATOM  =       197.04175453
  Solvation  Ediel_sol  =         0.00000000
  ---------------------------------------------------
  free energy    TOTEN  =        15.36596342 eV

  energy without entropy =       15.35633981  energy(sigma->0) =       15.36275555


--------------------------------------------------------------------------------------------------------




--------------------------------------- Iteration      1(   2)  ---------------------------------------


     EDDAV:  cpu time    2.2550: real time    2.2605
       DOS:  cpu time    0.0002: real time    0.0002
    --------------------------------------------
      LOOP:  cpu time    2.2552: real time    2.2607

 eigenvalue-minimisations  :    64
 total energy-change (2. order) :-0.3775652E+02  (-0.3774996E+02)
 number of electron       8.0000000 magnetization 
 augmentation part        8.0000000 magnetization 

 Free energy of the ion-electron system (eV)
  ---------------------------------------------------
  alpha Z        PSCENC =         0.22657014
  Ewald energy   TEWEN  =       125.38293558
  -Hartree energ DENC   =      -243.46398040
  -exchange      EXHF   =         0.00000000
  -V(xc)+E(xc)   XCENC  =        21.86144018
  PAW double counting   =       117.05815612     -117.66307307
  entropy T*S    EENTRO =         0.00974213
  eigenvalues    EBANDS =      -122.84410662
  atomic energy  EATOM  =       197.04175453
  Solvation  Ediel_sol  =         0.00000000
  ---------------------------------------------------
  free energy    TOTEN  =       -22.39056141 eV

  energy without entropy =      -22.40030354  energy(sigma->0) =      -22.39380879


--------------------------------------------------------------------------------------------------------




--------------------------------------- Iteration      1(   3)  ---------------------------------------


     EDDAV:  cpu time    2.2500: real time    2.2554
       DOS:  cpu time    0.0002: real time    0.0002
    --------------------------------------------
      LOOP:  cpu time    2.2502: real time    2.2556

 eigenvalue-minimisations  :    64
 total energy-change (2. order) :-0.4558072E+01  (-0.4571639E+01)
 number of electron       8.0000000 magnetization 
 augmentation part        8.0000000 magnetization 

 Free energy of the ion-electron system (eV)
  ---------------------------------------------------
  alpha Z        PSCENC =         0.22657014
  Ewald energy   TEWEN  =       125.38293558
  -Hartree energ DENC   =      -243.46398040
  -exchange      EXHF   =         0.00000000
  -V(xc)+E(xc)   XCENC  =        21.86144018
  PAW double counting   =       117.05815612     -117.66307307
  entropy T*S    EENTRO =         0.02864647
  eigenvalues    EBANDS =      -127.42108253
  atomic energy  EATOM  =       197.04175453
  Solvation  Ediel_sol  =         0.00000000
  ---------------------------------------------------
  free energy    TOTEN  =       -26.94863299 eV

  energy without entropy =      -26.97727946  energy(sigma->0) =      -26.95818181


--------------------------------------------------------------------------------------------------------




--------------------------------------- Iteration      1(   4)  ---------------------------------------


     EDDAV:  cpu time    4.0567: real time    4.0663
       DOS:  cpu time    0.0003: real time    0.0003
    --------------------------------------------
      LOOP:  cpu time    4.0569: real time    4.0666

 eigenvalue-minimisations  :   128
 total energy-change (2. order) :-0.1969006E+00  (-0.1968116E+00)
 number of electron       8.0000000 magnetization 
 augmentation part        8.0000000 magnetization 

 Free energy of the ion-electron system (eV)
  ---------------------------------------------------
  alpha Z        PSCENC =         0.22657014
  Ewald energy   TEWEN  =       125.38293558
  -Hartree energ DENC   =      -243.46398040
  -exchange      EXHF   =         0.00000000
  -V(xc)+E(xc)   XCENC  =        21.86144018
  PAW double counting   =       117.05815612     -117.66307307
  entropy T*S    EENTRO =         0.02915361
  eigenvalues    EBANDS =      -127.61849032
  atomic energy  EATOM  =       197.04175453
  Solvation  Ediel_sol  =         0.00000000
  ---------------------------------------------------
  free energy    TOTEN  =       -27.14553364 eV

  energy without entropy =      -27.17468725  energy(sigma->0) =      -27.15525151


--------------------------------------------------------------------------------------------------------




--------------------------------------- Iteration      1(   5)  ---------------------------------------


     EDDAV:  cpu time    3.1176: real time    3.1250
       DOS:  cpu time    0.0002: real time    0.0002
    CHARGE:  cpu time    0.2352: real time    0.2357
    MIXING:  cpu time    0.0415: real time    0.0416
    --------------------------------------------
      LOOP:  cpu time    3.3946: real time    3.4026

 eigenvalue-minimisations  :    96
 total energy-change (2. order) :-0.7180605E-04  (-0.7180821E-04)
 number of electron       8.0000002 magnetization 
 augmentation part        0.2150069 magnetization 

 Broyden mixing:
  rms(total) = 0.82225E+00    rms(broyden)= 0.82203E+00
  rms(prec ) = 0.11659E+01
  weight for this iteration     100.00

 Free energy of the ion-electron system (eV)
  ---------------------------------------------------
  alpha Z        PSCENC =         0.22657014
  Ewald energy   TEWEN  =       125.38293558
  -Hartree energ DENC   =      -243.46398040
  -exchange      EXHF   =         0.00000000
  -V(xc)+E(xc)   XCENC  =        21.86144018
  PAW double counting   =       117.05815612     -117.66307307
  entropy T*S    EENTRO =         0.02915387
  eigenvalues    EBANDS =      -127.61856238
  atomic energy  EATOM  =       197.04175453
  Solvation  Ediel_sol  =         0.00000000
  ---------------------------------------------------
  free energy    TOTEN  =       -27.14560544 eV

  energy without entropy =      -27.17475931  energy(sigma->0) =      -27.15532340


--------------------------------------------------------------------------------------------------------




--------------------------------------- Iteration      1(   6)  ---------------------------------------


    POTLOK:  cpu time    1.8701: real time    1.8745
    SETDIJ:  cpu time    0.0068: real time    0.0068
    EDDIAG:  cpu time    0.4833: real time    0.4845
  RMM-DIIS:  cpu time    1.5904: real time    1.5942
    ORTHCH:  cpu time    0.0124: real time    0.0124
       DOS:  cpu time    0.0002: real time    0.0002
    CHARGE:  cpu time    0.2077: real time    0.2082
    MIXING:  cpu time    0.0436: real time    0.0437
    --------------------------------------------
      LOOP:  cpu time    4.2145: real time    4.2245

 eigenvalue-minimisations  :    64
 total energy-change (2. order) : 0.2596534E+01  (-0.4680636E+00)
 number of electron       8.0000002 magnetization 
 augmentation part        0.1894194 magnetization 

 Broyden mixing:
  rms(total) = 0.40413E+00    rms(broyden)= 0.40403E+00
  rms(prec ) = 0.52457E+00
  weight for this iteration     100.00

 eigenvalues of (default mixing * dielectric matrix)
  average eigenvalue GAMMA=   1.2795
  1.2795

 Free energy of the ion-electron system (eV)
  ---------------------------------------------------
  alpha Z        PSCENC =         0.22657014
  Ewald energy   TEWEN  =       125.38293558
  -Hartree energ DENC   =      -262.15267500
  -exchange      EXHF   =         0.00000000
  -V(xc)+E(xc)   XCENC  =        22.99648632
  PAW double counting   =       224.51818165     -225.28424170
  entropy T*S    EENTRO =         0.03052401
  eigenvalues    EBANDS =      -107.30860702
  atomic energy  EATOM  =       197.04175453
  Solvation  Ediel_sol  =         0.00000000
  ---------------------------------------------------
  free energy    TOTEN  =       -24.54907150 eV

  energy without entropy =      -24.57959551  energy(sigma->0) =      -24.55924617


--------------------------------------------------------------------------------------------------------




--------------------------------------- Iteration      1(   7)  ---------------------------------------


    POTLOK:  cpu time    1.8986: real time    1.9031
    SETDIJ:  cpu time    0.0066: real time    0.0067
    EDDIAG:  cpu time    0.4891: real time    0.4903
  RMM-DIIS:  cpu time    1.5506: real time    1.5543
    ORTHCH:  cpu time    0.0132: real time    0.0132
       DOS:  cpu time    0.0002: real time    0.0002
    CHARGE:  cpu time    0.2184: real time    0.2189
    MIXING:  cpu time    0.0446: real time    0.0447
    --------------------------------------------
      LOOP:  cpu time    4.2214: real time    4.2314

 eigenvalue-minimisations  :    64
 total energy-change (2. order) : 0.4369263E+00  (-0.9530712E-01)
 number of electron       8.0000002 magnetization 
 augmentation part        0.1800723 magnetization 

 Broyden mixing:
  rms(total) = 0.21906E+00    rms(broyden)= 0.21899E+00
  rms(prec ) = 0.26800E+00
  weight for this iteration     100.00

 eigenvalues of (default mixing * dielectric matrix)
  average eigenvalue GAMMA=   1.6897
  1.4326  1.9468

 Free energy of the ion-electron system (eV)
  ---------------------------------------------------
  alpha Z        PSCENC =         0.22657014
  Ewald energy   TEWEN  =       125.38293558
  -Hartree energ DENC   =      -272.77045576
  -exchange      EXHF   =         0.00000000
  -V(xc)+E(xc)   XCENC  =        23.78544509
  PAW double counting   =       328.84726702     -329.64475745
  entropy T*S    EENTRO =         0.03209953
  eigenvalues    EBANDS =       -97.01300388
  atomic energy  EATOM  =       197.04175453
  Solvation  Ediel_sol  =         0.00000000
  ---------------------------------------------------
  free energy    TOTEN  =       -24.11214520 eV

  energy without entropy =      -24.14424473  energy(sigma->0) =      -24.12284505


--------------------------------------------------------------------------------------------------------




--------------------------------------- Iteration      1(   8)  ---------------------------------------


    POTLOK:  cpu time    1.9170: real time    1.9215
    SETDIJ:  cpu time    0.0065: real time    0.0065
    EDDIAG:  cpu time    0.4683: real time    0.4694
  RMM-DIIS:  cpu time    1.6163: real time    1.6202
    ORTHCH:  cpu time    0.0131: real time    0.0132
       DOS:  cpu time    0.0002: real time    0.0002
    CHARGE:  cpu time    0.2274: real time    0.2279
    MIXING:  cpu time    0.0473: real time    0.0474
    --------------------------------------------
      LOOP:  cpu time    4.2961: real time    4.3062

 eigenvalue-minimisations  :    64
 total energy-change (2. order) : 0.1252239E+00  (-0.1310794E-01)
 number of electron       8.0000002 magnetization 
 augmentation part        0.1787953 magnetization 

 Broyden mixing:
  rms(total) = 0.76645E-01    rms(broyden)= 0.76586E-01
  rms(prec ) = 0.11117E+00
  weight for this iteration     100.00

 eigenvalues of (default mixing * dielectric matrix)
  average eigenvalue GAMMA=   1.4237
  2.2524  1.4118  0.6069

 Free energy of the ion-electron system (eV)
  ---------------------------------------------------
  alpha Z        PSCENC =         0.22657014
  Ewald energy   TEWEN  =       125.38293558
  -Hartree energ DENC   =      -277.42687186
  -exchange      EXHF   =         0.00000000
  -V(xc)+E(xc)   XCENC  =        24.24211061
  PAW double counting   =       406.07564800     -406.84771861
  entropy T*S    EENTRO =         0.03241144
  eigenvalues    EBANDS =       -92.71376117
  atomic energy  EATOM  =       197.04175453
  Solvation  Ediel_sol  =         0.00000000
  ---------------------------------------------------
  free energy    TOTEN  =       -23.98692135 eV

  energy without entropy =      -24.01933278  energy(sigma->0) =      -23.99772516


--------------------------------------------------------------------------------------------------------




--------------------------------------- Iteration      1(   9)  ---------------------------------------


    POTLOK:  cpu time    1.9035: real time    1.9081
    SETDIJ:  cpu time    0.0066: real time    0.0066
    EDDIAG:  cpu time    0.4590: real time    0.4601
  RMM-DIIS:  cpu time    1.6647: real time    1.6686
    ORTHCH:  cpu time    0.0129: real time    0.0129
       DOS:  cpu time    0.0002: real time    0.0002
    CHARGE:  cpu time    0.2270: real time    0.2275
    MIXING:  cpu time    0.0501: real time    0.0502
    --------------------------------------------
      LOOP:  cpu time    4.3240: real time    4.3344

 eigenvalue-minimisations  :    64
 total energy-change (2. order) : 0.2130408E-01  (-0.2204034E-02)
 number of electron       8.0000002 magnetization 
 augmentation part        0.1784416 magnetization 

 Broyden mixing:
  rms(total) = 0.34191E-01    rms(broyden)= 0.34181E-01
  rms(prec ) = 0.57134E-01
  weight for this iteration     100.00

 eigenvalues of (default mixing * dielectric matrix)
  average eigenvalue GAMMA=   1.3063
  2.1700  1.3795  0.8378  0.8378

 Free energy of the ion-electron system (eV)
  ---------------------------------------------------
  alpha Z        PSCENC =         0.22657014
  Ewald energy   TEWEN  =       125.38293558
  -Hartree energ DENC   =      -278.82417552
  -exchange      EXHF   =         0.00000000
  -V(xc)+E(xc)   XCENC  =        24.35672926
  PAW double counting   =       421.48200494     -422.25028860
  entropy T*S    EENTRO =         0.03298686
  eigenvalues    EBANDS =       -91.41413446
  atomic energy  EATOM  =       197.04175453
  Solvation  Ediel_sol  =         0.00000000
  ---------------------------------------------------
  free energy    TOTEN  =       -23.96561727 eV

  energy without entropy =      -23.99860413  energy(sigma->0) =      -23.97661289


--------------------------------------------------------------------------------------------------------




--------------------------------------- Iteration      1(  10)  ---------------------------------------


    POTLOK:  cpu time    1.8666: real time    1.8711
    SETDIJ:  cpu time    0.0064: real time    0.0065
    EDDIAG:  cpu time    0.4727: real time    0.4738
  RMM-DIIS:  cpu time    1.6901: real time    1.6941
    ORTHCH:  cpu time    0.0131: real time    0.0131
       DOS:  cpu time    0.0002: real time    0.0002
    CHARGE:  cpu time    0.2166: real time    0.2171
    MIXING:  cpu time    0.0461: real time    0.0462
    --------------------------------------------
      LOOP:  cpu time    4.3118: real time    4.3221

 eigenvalue-minimisations  :    64
 total energy-change (2. order) : 0.5062887E-03  (-0.1491604E-02)
 number of electron       8.0000002 magnetization 
 augmentation part        0.1776939 magnetization 

 Broyden mixing:
  rms(total) = 0.45094E-01    rms(broyden)= 0.45016E-01
  rms(prec ) = 0.64707E-01
  weight for this iteration     100.00

 eigenvalues of (default mixing * dielectric matrix)
  average eigenvalue GAMMA=   1.4260
  2.1118  2.1118  1.2569  0.8246  0.8246

 Free energy of the ion-electron system (eV)
  ---------------------------------------------------
  alpha Z        PSCENC =         0.22657014
  Ewald energy   TEWEN  =       125.38293558
  -Hartree energ DENC   =      -280.06865296
  -exchange      EXHF   =         0.00000000
  -V(xc)+E(xc)   XCENC  =        24.40421434
  PAW double counting   =       416.98105029     -417.75350440
  entropy T*S    EENTRO =         0.03391383
  eigenvalues    EBANDS =       -90.21339231
  atomic energy  EATOM  =       197.04175453
  Solvation  Ediel_sol  =         0.00000000
  ---------------------------------------------------
  free energy    TOTEN  =       -23.96511098 eV

  energy without entropy =      -23.99902480  energy(sigma->0) =      -23.97641559


--------------------------------------------------------------------------------------------------------




--------------------------------------- Iteration      1(  11)  ---------------------------------------


    POTLOK:  cpu time    1.8259: real time    1.8302
    SETDIJ:  cpu time    0.0064: real time    0.0065
    EDDIAG:  cpu time    0.4845: real time    0.4857
  RMM-DIIS:  cpu time    1.6756: real time    1.6796
    ORTHCH:  cpu time    0.0129: real time    0.0129
       DOS:  cpu time    0.0002: real time    0.0002
    CHARGE:  cpu time    0.2225: real time    0.2230
    MIXING:  cpu time    0.0471: real time    0.0472
    --------------------------------------------
      LOOP:  cpu time    4.2751: real time    4.2852

 eigenvalue-minimisations  :    64
 total energy-change (2. order) : 0.6743794E-02  (-0.5060273E-03)
 number of electron       8.0000002 magnetization 
 augmentation part        0.1774417 magnetization 

 Broyden mixing:
  rms(total) = 0.16163E-01    rms(broyden)= 0.16080E-01
  rms(prec ) = 0.25568E-01
  weight for this iteration     100.00

 eigenvalues of (default mixing * dielectric matrix)
  average eigenvalue GAMMA=   1.5386
  3.0490  2.5037  1.1344  1.1344  0.7052  0.7052

 Free energy of the ion-electron system (eV)
  ---------------------------------------------------
  alpha Z        PSCENC =         0.22657014
  Ewald energy   TEWEN  =       125.38293558
  -Hartree energ DENC   =      -281.12594583
  -exchange      EXHF   =         0.00000000
  -V(xc)+E(xc)   XCENC  =        24.45112647
  PAW double counting   =       414.51909194     -415.28925302
  entropy T*S    EENTRO =         0.03317108
  eigenvalues    EBANDS =       -89.19781807
  atomic energy  EATOM  =       197.04175453
  Solvation  Ediel_sol  =         0.00000000
  ---------------------------------------------------
  free energy    TOTEN  =       -23.95836718 eV

  energy without entropy =      -23.99153827  energy(sigma->0) =      -23.96942421


--------------------------------------------------------------------------------------------------------




--------------------------------------- Iteration      1(  12)  ---------------------------------------


    POTLOK:  cpu time    1.7797: real time    1.7839
    SETDIJ:  cpu time    0.0066: real time    0.0066
    EDDIAG:  cpu time    0.4981: real time    0.4993
  RMM-DIIS:  cpu time    1.6579: real time    1.6618
    ORTHCH:  cpu time    0.0124: real time    0.0124
       DOS:  cpu time    0.0002: real time    0.0002
    CHARGE:  cpu time    0.2113: real time    0.2118
    MIXING:  cpu time    0.0490: real time    0.0491
    --------------------------------------------
      LOOP:  cpu time    4.2153: real time    4.2252

 eigenvalue-minimisations  :    64
 total energy-change (2. order) : 0.9505833E-03  (-0.7213240E-04)
 number of electron       8.0000002 magnetization 
 augmentation part        0.1774354 magnetization 

 Broyden mixing:
  rms(total) = 0.78326E-02    rms(broyden)= 0.78217E-02
  rms(prec ) = 0.14148E-01
  weight for this iteration     100.00

 eigenvalues of (default mixing * dielectric matrix)
  average eigenvalue GAMMA=   1.6284
  3.2682  2.2045  2.2045  1.3465  0.9694  0.7030  0.7030

 Free energy of the ion-electron system (eV)
  ---------------------------------------------------
  alpha Z        PSCENC =         0.22657014
  Ewald energy   TEWEN  =       125.38293558
  -Hartree energ DENC   =      -281.45898861
  -exchange      EXHF   =         0.00000000
  -V(xc)+E(xc)   XCENC  =        24.46228196
  PAW double counting   =       412.60254260     -413.37064438
  entropy T*S    EENTRO =         0.03320853
  eigenvalues    EBANDS =       -88.87707695
  atomic energy  EATOM  =       197.04175453
  Solvation  Ediel_sol  =         0.00000000
  ---------------------------------------------------
  free energy    TOTEN  =       -23.95741660 eV

  energy without entropy =      -23.99062513  energy(sigma->0) =      -23.96848611


--------------------------------------------------------------------------------------------------------




--------------------------------------- Iteration      1(  13)  ---------------------------------------


    POTLOK:  cpu time    1.7140: real time    1.7180
    SETDIJ:  cpu time    0.0065: real time    0.0065
    EDDIAG:  cpu time    0.5009: real time    0.5021
  RMM-DIIS:  cpu time    1.6628: real time    1.6667
    ORTHCH:  cpu time    0.0134: real time    0.0134
       DOS:  cpu time    0.0002: real time    0.0002
    CHARGE:  cpu time    0.2108: real time    0.2113
    MIXING:  cpu time    0.0482: real time    0.0483
    --------------------------------------------
      LOOP:  cpu time    4.1568: real time    4.1666

 eigenvalue-minimisations  :    64
 total energy-change (2. order) :-0.7231069E-02  (-0.2943331E-03)
 number of electron       8.0000002 magnetization 
 augmentation part        0.1775870 magnetization 

 Broyden mixing:
  rms(total) = 0.11192E-01    rms(broyden)= 0.11182E-01
  rms(prec ) = 0.15102E-01
  weight for this iteration     100.00

 eigenvalues of (default mixing * dielectric matrix)
  average eigenvalue GAMMA=   1.8188
  4.7903  2.8136  2.3435  1.1378  1.1378  0.9222  0.7027  0.7027

 Free energy of the ion-electron system (eV)
  ---------------------------------------------------
  alpha Z        PSCENC =         0.22657014
  Ewald energy   TEWEN  =       125.38293558
  -Hartree energ DENC   =      -281.71855564
  -exchange      EXHF   =         0.00000000
  -V(xc)+E(xc)   XCENC  =        24.46880079
  PAW double counting   =       413.51694573     -414.28308049
  entropy T*S    EENTRO =         0.03329992
  eigenvalues    EBANDS =       -88.63331822
  atomic energy  EATOM  =       197.04175453
  Solvation  Ediel_sol  =         0.00000000
  ---------------------------------------------------
  free energy    TOTEN  =       -23.96464767 eV

  energy without entropy =      -23.99794759  energy(sigma->0) =      -23.97574764


--------------------------------------------------------------------------------------------------------




--------------------------------------- Iteration      1(  14)  ---------------------------------------


    POTLOK:  cpu time    1.6955: real time    1.6995
    SETDIJ:  cpu time    0.0066: real time    0.0067
    EDDIAG:  cpu time    0.4767: real time    0.4778
  RMM-DIIS:  cpu time    1.6691: real time    1.6730
    ORTHCH:  cpu time    0.0125: real time    0.0125
       DOS:  cpu time    0.0002: real time    0.0002
    CHARGE:  cpu time    0.2299: real time    0.2304
    MIXING:  cpu time    0.0514: real time    0.0515
    --------------------------------------------
      LOOP:  cpu time    4.1419: real time    4.1517

 eigenvalue-minimisations  :    64
 total energy-change (2. order) :-0.2314047E-02  (-0.6764368E-04)
 number of electron       8.0000002 magnetization 
 augmentation part        0.1775005 magnetization 

 Broyden mixing:
  rms(total) = 0.25297E-02    rms(broyden)= 0.25160E-02
  rms(prec ) = 0.44263E-02
  weight for this iteration     100.00

 eigenvalues of (default mixing * dielectric matrix)
  average eigenvalue GAMMA=   2.0193
  5.2246  2.9897  2.6682  2.6682  1.2130  1.0012  1.0012  0.7037  0.7037

 Free energy of the ion-electron system (eV)
  ---------------------------------------------------
  alpha Z        PSCENC =         0.22657014
  Ewald energy   TEWEN  =       125.38293558
  -Hartree energ DENC   =      -281.82994554
  -exchange      EXHF   =         0.00000000
  -V(xc)+E(xc)   XCENC  =        24.46439952
  PAW double counting   =       411.92729118     -412.69525613
  entropy T*S    EENTRO =         0.03326282
  eigenvalues    EBANDS =       -88.51797382
  atomic energy  EATOM  =       197.04175453
  Solvation  Ediel_sol  =         0.00000000
  ---------------------------------------------------
  free energy    TOTEN  =       -23.96696172 eV

  energy without entropy =      -24.00022454  energy(sigma->0) =      -23.97804933


--------------------------------------------------------------------------------------------------------




--------------------------------------- Iteration      1(  15)  ---------------------------------------


    POTLOK:  cpu time    1.6636: real time    1.6676
    SETDIJ:  cpu time    0.0067: real time    0.0068
    EDDIAG:  cpu time    0.4780: real time    0.4791
  RMM-DIIS:  cpu time    1.6855: real time    1.6895
    ORTHCH:  cpu time    0.0134: real time    0.0135
       DOS:  cpu time    0.0002: real time    0.0002
    CHARGE:  cpu time    0.2110: real time    0.2115
    MIXING:  cpu time    0.0511: real time    0.0512
    --------------------------------------------
      LOOP:  cpu time    4.1096: real time    4.1193

 eigenvalue-minimisations  :    64
 total energy-change (2. order) :-0.2959765E-02  (-0.1652389E-03)
 number of electron       8.0000002 magnetization 
 augmentation part        0.1773085 magnetization 

 Broyden mixing:
  rms(total) = 0.69311E-02    rms(broyden)= 0.69295E-02
  rms(prec ) = 0.88556E-02
  weight for this iteration     100.00

 eigenvalues of (default mixing * dielectric matrix)
  average eigenvalue GAMMA=   2.1110
  6.6207  4.0802  2.4605  2.4605  0.7046  0.7046  1.1447  1.1447  0.9553  0.8344

 Free energy of the ion-electron system (eV)
  ---------------------------------------------------
  alpha Z        PSCENC =         0.22657014
  Ewald energy   TEWEN  =       125.38293558
  -Hartree energ DENC   =      -281.88143845
  -exchange      EXHF   =         0.00000000
  -V(xc)+E(xc)   XCENC  =        24.45787439
  PAW double counting   =       411.79330400     -412.56279107
  entropy T*S    EENTRO =         0.03319982
  eigenvalues    EBANDS =       -88.46133042
  atomic energy  EATOM  =       197.04175453
  Solvation  Ediel_sol  =         0.00000000
  ---------------------------------------------------
  free energy    TOTEN  =       -23.96992148 eV

  energy without entropy =      -24.00312130  energy(sigma->0) =      -23.98098809


--------------------------------------------------------------------------------------------------------




--------------------------------------- Iteration      1(  16)  ---------------------------------------


    POTLOK:  cpu time    1.6182: real time    1.6220
    SETDIJ:  cpu time    0.0066: real time    0.0066
    EDDIAG:  cpu time    0.4855: real time    0.4866
  RMM-DIIS:  cpu time    1.7161: real time    1.7202
    ORTHCH:  cpu time    0.0125: real time    0.0126
       DOS:  cpu time    0.0002: real time    0.0002
    CHARGE:  cpu time    0.2226: real time    0.2232
    MIXING:  cpu time    0.0518: real time    0.0519
    --------------------------------------------
      LOOP:  cpu time    4.1135: real time    4.1232

 eigenvalue-minimisations  :    64
 total energy-change (2. order) :-0.8067290E-04  (-0.2168557E-04)
 number of electron       8.0000002 magnetization 
 augmentation part        0.1773345 magnetization 

 Broyden mixing:
  rms(total) = 0.23330E-02    rms(broyden)= 0.23318E-02
  rms(prec ) = 0.30667E-02
  weight for this iteration     100.00

 eigenvalues of (default mixing * dielectric matrix)
  average eigenvalue GAMMA=   2.0860
  6.7235  4.3505  2.4780  2.3089  1.3069  1.3069  0.7045  0.7045  1.0730  1.0730
  0.9163

 Free energy of the ion-electron system (eV)
  ---------------------------------------------------
  alpha Z        PSCENC =         0.22657014
  Ewald energy   TEWEN  =       125.38293558
  -Hartree energ DENC   =      -281.81521708
  -exchange      EXHF   =         0.00000000
  -V(xc)+E(xc)   XCENC  =        24.45631582
  PAW double counting   =       412.40516405     -413.17345197
  entropy T*S    EENTRO =         0.03319970
  eigenvalues    EBANDS =       -88.52727292
  atomic energy  EATOM  =       197.04175453
  Solvation  Ediel_sol  =         0.00000000
  ---------------------------------------------------
  free energy    TOTEN  =       -23.97000216 eV

  energy without entropy =      -24.00320186  energy(sigma->0) =      -23.98106872


--------------------------------------------------------------------------------------------------------




--------------------------------------- Iteration      1(  17)  ---------------------------------------


    POTLOK:  cpu time    1.6136: real time    1.6175
    SETDIJ:  cpu time    0.0066: real time    0.0066
    EDDIAG:  cpu time    0.4892: real time    0.4904
  RMM-DIIS:  cpu time    1.6979: real time    1.7019
    ORTHCH:  cpu time    0.0126: real time    0.0127
       DOS:  cpu time    0.0002: real time    0.0002
    CHARGE:  cpu time    0.2007: real time    0.2012
    MIXING:  cpu time    0.0521: real time    0.0522
    --------------------------------------------
      LOOP:  cpu time    4.0730: real time    4.0827

 eigenvalue-minimisations  :    64
 total energy-change (2. order) :-0.2626431E-03  (-0.5986563E-04)
 number of electron       8.0000002 magnetization 
 augmentation part        0.1775046 magnetization 

 Broyden mixing:
  rms(total) = 0.38981E-02    rms(broyden)= 0.38964E-02
  rms(prec ) = 0.50790E-02
  weight for this iteration     100.00

 eigenvalues of (default mixing * dielectric matrix)
  average eigenvalue GAMMA=   2.2066
  7.3269  4.2356  3.5239  2.4064  2.4064  0.7047  0.7047  1.1622  1.1622  0.9406
  0.9526  0.9526

 Free energy of the ion-electron system (eV)
  ---------------------------------------------------
  alpha Z        PSCENC =         0.22657014
  Ewald energy   TEWEN  =       125.38293558
  -Hartree energ DENC   =      -281.75128607
  -exchange      EXHF   =         0.00000000
  -V(xc)+E(xc)   XCENC  =        24.45516598
  PAW double counting   =       412.73235159     -413.49937659
  entropy T*S    EENTRO =         0.03321369
  eigenvalues    EBANDS =       -88.59159364
  atomic energy  EATOM  =       197.04175453
  Solvation  Ediel_sol  =         0.00000000
  ---------------------------------------------------
  free energy    TOTEN  =       -23.97026480 eV

  energy without entropy =      -24.00347849  energy(sigma->0) =      -23.98133603


--------------------------------------------------------------------------------------------------------




--------------------------------------- Iteration      1(  18)  ---------------------------------------


    POTLOK:  cpu time    1.6630: real time    1.6669
    SETDIJ:  cpu time    0.0065: real time    0.0065
    EDDIAG:  cpu time    0.4799: real time    0.4811
  RMM-DIIS:  cpu time    1.6604: real time    1.6643
    ORTHCH:  cpu time    0.0122: real time    0.0123
       DOS:  cpu time    0.0002: real time    0.0002
    CHARGE:  cpu time    0.1873: real time    0.1877
    MIXING:  cpu time    0.0532: real time    0.0533
    --------------------------------------------
      LOOP:  cpu time    4.0627: real time    4.0722

 eigenvalue-minimisations  :    64
 total energy-change (2. order) :-0.7087993E-04  (-0.1342391E-04)
 number of electron       8.0000002 magnetization 
 augmentation part        0.1774242 magnetization 

 Broyden mixing:
  rms(total) = 0.86725E-03    rms(broyden)= 0.86312E-03
  rms(prec ) = 0.10877E-02
  weight for this iteration     100.00

 eigenvalues of (default mixing * dielectric matrix)
  average eigenvalue GAMMA=   2.2771
  8.2110  5.0909  3.4019  2.6469  2.2885  1.2108  1.2108  1.2612  0.7047  0.7047
  1.0041  1.0041  0.8627

 Free energy of the ion-electron system (eV)
  ---------------------------------------------------
  alpha Z        PSCENC =         0.22657014
  Ewald energy   TEWEN  =       125.38293558
  -Hartree energ DENC   =      -281.83157011
  -exchange      EXHF   =         0.00000000
  -V(xc)+E(xc)   XCENC  =        24.45828500
  PAW double counting   =       412.46473003     -413.23260644
  entropy T*S    EENTRO =         0.03322400
  eigenvalues    EBANDS =       -88.51365840
  atomic energy  EATOM  =       197.04175453
  Solvation  Ediel_sol  =         0.00000000
  ---------------------------------------------------
  free energy    TOTEN  =       -23.97033568 eV

  energy without entropy =      -24.00355968  energy(sigma->0) =      -23.98141035


--------------------------------------------------------------------------------------------------------




--------------------------------------- Iteration      1(  19)  ---------------------------------------


    POTLOK:  cpu time    1.6769: real time    1.6809
    SETDIJ:  cpu time    0.0064: real time    0.0064
    EDDIAG:  cpu time    0.4862: real time    0.4874
  RMM-DIIS:  cpu time    1.5091: real time    1.5126
    ORTHCH:  cpu time    0.0125: real time    0.0125
       DOS:  cpu time    0.0002: real time    0.0002
    CHARGE:  cpu time    0.2201: real time    0.2206
    MIXING:  cpu time    0.0576: real time    0.0578
    --------------------------------------------
      LOOP:  cpu time    3.9690: real time    3.9784

 eigenvalue-minimisations  :    60
 total energy-change (2. order) :-0.1941416E-04  (-0.7388385E-06)
 number of electron       8.0000002 magnetization 
 augmentation part        0.1774135 magnetization 

 Broyden mixing:
  rms(total) = 0.28663E-03    rms(broyden)= 0.28641E-03
  rms(prec ) = 0.38282E-03
  weight for this iteration     100.00

 eigenvalues of (default mixing * dielectric matrix)
  average eigenvalue GAMMA=   2.2910
  8.6179  5.2081  3.8134  2.4964  2.2554  1.7547  1.2455  1.2455  0.7046  0.7046
  1.1965  0.9898  0.9898  0.8518

 Free energy of the ion-electron system (eV)
  ---------------------------------------------------
  alpha Z        PSCENC =         0.22657014
  Ewald energy   TEWEN  =       125.38293558
  -Hartree energ DENC   =      -281.81356424
  -exchange      EXHF   =         0.00000000
  -V(xc)+E(xc)   XCENC  =        24.45689665
  PAW double counting   =       412.30002075     -413.06790425
  entropy T*S    EENTRO =         0.03321881
  eigenvalues    EBANDS =       -88.53028305
  atomic energy  EATOM  =       197.04175453
  Solvation  Ediel_sol  =         0.00000000
  ---------------------------------------------------
  free energy    TOTEN  =       -23.97035509 eV

  energy without entropy =      -24.00357390  energy(sigma->0) =      -23.98142803


--------------------------------------------------------------------------------------------------------




--------------------------------------- Iteration      1(  20)  ---------------------------------------


    POTLOK:  cpu time    1.7374: real time    1.7415
    SETDIJ:  cpu time    0.0065: real time    0.0065
    EDDIAG:  cpu time    0.4704: real time    0.4715
  RMM-DIIS:  cpu time    1.4845: real time    1.4880
    ORTHCH:  cpu time    0.0122: real time    0.0123
       DOS:  cpu time    0.0002: real time    0.0002
    CHARGE:  cpu time    0.2072: real time    0.2077
    MIXING:  cpu time    0.0565: real time    0.0566
    --------------------------------------------
      LOOP:  cpu time    3.9749: real time    3.9843

 eigenvalue-minimisations  :    60
 total energy-change (2. order) :-0.1040004E-04  (-0.3218786E-06)
 number of electron       8.0000002 magnetization 
 augmentation part        0.1773990 magnetization 

 Broyden mixing:
  rms(total) = 0.14221E-03    rms(broyden)= 0.14160E-03
  rms(prec ) = 0.19266E-03
  weight for this iteration     100.00

 eigenvalues of (default mixing * dielectric matrix)
  average eigenvalue GAMMA=   2.3030
  8.7511  5.3839  4.0047  2.7594  2.4360  1.9065  1.5038  1.2831  1.2831  0.7047
  0.7047  1.0451  0.9586  0.9586  0.8623

 Free energy of the ion-electron system (eV)
  ---------------------------------------------------
  alpha Z        PSCENC =         0.22657014
  Ewald energy   TEWEN  =       125.38293558
  -Hartree energ DENC   =      -281.81899770
  -exchange      EXHF   =         0.00000000
  -V(xc)+E(xc)   XCENC  =        24.45708739
  PAW double counting   =       412.28641251     -413.05434041
  entropy T*S    EENTRO =         0.03321876
  eigenvalues    EBANDS =       -88.52500629
  atomic energy  EATOM  =       197.04175453
  Solvation  Ediel_sol  =         0.00000000
  ---------------------------------------------------
  free energy    TOTEN  =       -23.97036549 eV

  energy without entropy =      -24.00358426  energy(sigma->0) =      -23.98143841


--------------------------------------------------------------------------------------------------------




--------------------------------------- Iteration      1(  21)  ---------------------------------------


    POTLOK:  cpu time    1.7618: real time    1.7659
    SETDIJ:  cpu time    0.0065: real time    0.0065
    EDDIAG:  cpu time    0.4771: real time    0.4783
  RMM-DIIS:  cpu time    1.2601: real time    1.2631
    ORTHCH:  cpu time    0.0123: real time    0.0124
       DOS:  cpu time    0.0002: real time    0.0002
    CHARGE:  cpu time    0.2014: real time    0.2019
    MIXING:  cpu time    0.0614: real time    0.0616
    --------------------------------------------
      LOOP:  cpu time    3.7809: real time    3.7898

 eigenvalue-minimisations  :    48
 total energy-change (2. order) :-0.4360509E-05  (-0.3211208E-07)
 number of electron       8.0000002 magnetization 
 augmentation part        0.1773995 magnetization 

 Broyden mixing:
  rms(total) = 0.10977E-03    rms(broyden)= 0.10949E-03
  rms(prec ) = 0.14251E-03
  weight for this iteration     100.00

 eigenvalues of (default mixing * dielectric matrix)
  average eigenvalue GAMMA=   2.2405
  8.7438  5.4361  3.9170  2.9095  2.5425  2.1520  1.4452  1.2901  1.2901  0.7047
  0.7047  1.0588  1.0588  0.9500  0.8228  0.8228

 Free energy of the ion-electron system (eV)
  ---------------------------------------------------
  alpha Z        PSCENC =         0.22657014
  Ewald energy   TEWEN  =       125.38293558
  -Hartree energ DENC   =      -281.81886684
  -exchange      EXHF   =         0.00000000
  -V(xc)+E(xc)   XCENC  =        24.45705897
  PAW double counting   =       412.28184905     -413.04977440
  entropy T*S    EENTRO =         0.03321930
  eigenvalues    EBANDS =       -88.52511617
  atomic energy  EATOM  =       197.04175453
  Solvation  Ediel_sol  =         0.00000000
  ---------------------------------------------------
  free energy    TOTEN  =       -23.97036985 eV

  energy without entropy =      -24.00358915  energy(sigma->0) =      -23.98144295


--------------------------------------------------------------------------------------------------------




--------------------------------------- Iteration      1(  22)  ---------------------------------------


    POTLOK:  cpu time    1.7715: real time    1.7757
    SETDIJ:  cpu time    0.0065: real time    0.0065
    EDDIAG:  cpu time    0.4828: real time    0.4839
  RMM-DIIS:  cpu time    1.2507: real time    1.2537
    ORTHCH:  cpu time    0.0123: real time    0.0124
       DOS:  cpu time    0.0002: real time    0.0002
    --------------------------------------------
      LOOP:  cpu time    3.5240: real time    3.5323

 eigenvalue-minimisations  :    48
 total energy-change (2. order) :-0.7480706E-06  (-0.7234464E-08)
 number of electron       8.0000002 magnetization 
 augmentation part        0.1773995 magnetization 

 Free energy of the ion-electron system (eV)
  ---------------------------------------------------
  alpha Z        PSCENC =         0.22657014
  Ewald energy   TEWEN  =       125.38293558
  -Hartree energ DENC   =      -281.81887055
  -exchange      EXHF   =         0.00000000
  -V(xc)+E(xc)   XCENC  =        24.45705809
  PAW double counting   =       412.29220314     -413.06012542
  entropy T*S    EENTRO =         0.03321916
  eigenvalues    EBANDS =       -88.52511528
  atomic energy  EATOM  =       197.04175453
  Solvation  Ediel_sol  =         0.00000000
  ---------------------------------------------------
  free energy    TOTEN  =       -23.97037060 eV

  energy without entropy =      -24.00358976  energy(sigma->0) =      -23.98144366


--------------------------------------------------------------------------------------------------------




 average (electrostatic) potential at core
  the test charge radii are     0.5201  0.6991
  (the norm of the test charge is              1.0000)
       1 -41.3725       2 -41.3667       3 -41.3016       4 -41.3303       5 -58.1287



 E-fermi :  -8.9717     XC(G=0):  -0.6710     alpha+bet : -0.1970


 k-point     1 :       0.2500    0.2500    0.2500
  band No.  band energies     occupation 
      1     -16.6964      2.00000
      2      -9.2991      2.04275
      3      -9.1395      1.99858
      4      -9.1239      1.95869
      5      -0.3592      0.00000
      6       0.5100      0.00000
      7       0.6302      0.00000
      8       0.6601      0.00000

 k-point     2 :      -0.2500    0.2500    0.2500
  band No.  band energies     occupation 
      1     -16.6964      2.00000
      2      -9.2991      2.04276
      3      -9.1394      1.99849
      4      -9.1239      1.95873
      5      -0.3594      0.00000
      6       0.5086      0.00000
      7       0.6277      0.00000
      8       0.6602      0.00000

 k-point     3 :       0.2500   -0.2500    0.2500
  band No.  band energies     occupation 
      1     -16.6964      2.00000
      2      -9.2990      2.04277
      3      -9.1394      1.99842
      4      -9.1239      1.95867
      5      -0.3583      0.00000
      6       0.5042      0.00000
      7       0.6259      0.00000
      8       0.6606      0.00000

 k-point     4 :      -0.2500   -0.2500    0.2500
  band No.  band energies     occupation 
      1     -16.6964      2.00000
      2      -9.2991      2.04276
      3      -9.1394      1.99839
      4      -9.1240      1.95898
      5      -0.3651      0.00000
      6       0.5218      0.00000
      7       0.6507      0.00000
      8       0.6730      0.00000


--------------------------------------------------------------------------------------------------------


 soft charge-density along one line, spin component           1
         0         1         2         3         4         5         6         7         8         9
 total charge-density along one line

 pseudopotential strength for first ion, spin component:           1
 -2.340  -4.032  -0.001  -0.002   0.001
 -4.032  -6.861  -0.003  -0.004   0.002
 -0.001  -0.003  -0.337   0.002  -0.001
 -0.002  -0.004   0.002  -0.336  -0.001
  0.001   0.002  -0.001  -0.001  -0.338
 total augmentation occupancy for first ion, spin component:           1
  3.530  -0.649   0.221   0.384  -0.181
 -0.649   0.132  -0.043  -0.072   0.033
  0.221  -0.043   0.019   0.021  -0.010
  0.384  -0.072   0.021   0.046  -0.018
 -0.181   0.033  -0.010  -0.018   0.017


------------------------ aborting loop because EDIFF is reached ----------------------------------------


    CHARGE:  cpu time    0.1968: real time    0.1973
    FORLOC:  cpu time    0.1191: real time    0.1194
    FORNL :  cpu time    0.6578: real time    0.6594
    STRESS:  cpu time    2.2080: real time    2.2132
    FORCOR:  cpu time    1.8474: real time    1.8518
    FORHAR:  cpu time    0.6162: real time    0.6177
    MIXING:  cpu time    0.0598: real time    0.0599
    OFIELD:  cpu time    0.0000: real time    0.0000

  FORCE on cell =-STRESS in cart. coord.  units (eV):
  Direction    XX          YY          ZZ          XY          YZ          ZX
  --------------------------------------------------------------------------------------
  Alpha Z     0.22657     0.22657     0.22657
  Ewald      43.23714    40.98552    41.16023     1.66553    -0.82671    -1.99764
  Hartree    94.29969    93.95155    93.56474     0.91160    -0.50859    -0.83399
  E(xc)     -26.89772   -26.90872   -26.90312     0.00981    -0.00571    -0.00881
  Local    -196.42926  -194.06845  -193.94087    -2.63074     1.30734     2.69259
  n-local   -15.82977   -14.94567   -15.35982    -0.28109    -0.05800    -0.05818
  augment     0.12783     0.12763     0.12860     0.00129    -0.00016     0.00073
  Kinetic    99.42710    99.03640    99.46987    -0.03299     0.27839     0.04180
  Fock        0.00000     0.00000     0.00000     0.00000     0.00000     0.00000
  -------------------------------------------------------------------------------------
  Total      -1.83841    -1.59516    -1.65380    -0.35660     0.18656    -0.16350
  in kB      -2.75481    -2.39031    -2.47817    -0.53436     0.27956    -0.24500
  external pressure =       -2.54 kB  Pullay stress =        0.00 kB

  kinetic pressure (ideal gas correction) =      0.03 kB
  total pressure  =     -2.52 kB
  Total+kin.    -2.706      -2.372      -2.468      -0.531       0.278      -0.241

 VOLUME and BASIS-vectors are now :
 -----------------------------------------------------------------------------
  energy-cutoff  :      400.00
  volume of cell :     1069.21
      direct lattice vectors                 reciprocal lattice vectors
    10.229421839  0.000000000  0.000000000     0.097757236 -0.002105886  0.002034993
     0.219493154 10.189079398  0.000000000    -0.000000000  0.098144294  0.001570927
    -0.217082705 -0.164197834 10.258326179     0.000000000  0.000000000  0.097481790

  length of vectors
    10.229421839 10.191443284 10.261936553     0.097801089  0.098156865  0.097481790


 FORCES acting on ions
    electron-ion (+dipol)            ewald-force                    non-local-force                 convergence-correction
 -----------------------------------------------------------------------------------------------
   -.169E+02 0.280E+02 0.398E+02   0.184E+02 -.304E+02 -.434E+02   -.157E+01 0.247E+01 0.369E+01   -.161E-03 0.143E-03 0.307E-03
   0.512E+02 -.599E+01 0.326E+01   -.559E+02 0.648E+01 -.357E+01   0.526E+01 -.449E+00 0.678E+00   0.281E-03 -.723E-04 0.117E-03
   -.237E+02 -.451E+02 0.980E+00   0.257E+02 0.487E+02 -.104E+01   -.260E+01 -.413E+01 0.237E+00   -.195E-03 -.313E-03 0.102E-03
   -.105E+02 0.244E+02 -.434E+02   0.113E+02 -.262E+02 0.469E+02   -.103E+01 0.266E+01 -.475E+01   -.133E-03 0.158E-03 -.195E-03
   -.400E+00 -.127E+01 -.104E+01   0.482E+00 0.139E+01 0.111E+01   -.797E+00 0.174E+01 -.371E+00   -.116E-02 -.610E-03 0.174E-02
 -----------------------------------------------------------------------------------------------
   -.403E+00 -.686E-01 -.394E+00   0.355E-14 0.355E-14 0.000E+00   -.737E+00 0.229E+01 -.516E+00   -.137E-02 -.695E-03 0.207E-02


 POSITION                                       TOTAL-FORCE (eV/Angst)
 -----------------------------------------------------------------------------------
      5.51837      4.08404      3.70112        -0.103077      0.048098      0.174824
      4.04483      4.81477      4.49664         0.576747      0.039409      0.367465
      5.67924      5.68793      4.54261        -0.669687     -0.563630      0.181887
      5.38220      4.14789      5.53309        -0.229720      0.843970     -1.334915
      5.15025      4.69029      4.56606        -0.715664      1.851530     -0.297785
 -----------------------------------------------------------------------------------
    total drift:                               -1.141400      2.219377     -0.908524


--------------------------------------------------------------------------------------------------------



  FREE ENERGIE OF THE ION-ELECTRON SYSTEM (eV)
  ---------------------------------------------------
  free  energy   TOTEN  =       -23.97037060 eV

  energy  without entropy=      -24.00358976  energy(sigma->0) =      -23.98144366



--------------------------------------------------------------------------------------------------------


    POTLOK:  cpu time    1.8377: real time    1.8420


--------------------------------------------------------------------------------------------------------


           RANDOM_SEED =         578492936                0                0
           RANDOM_SEED =         578492936               30                0
   IONSTEP:  cpu time    0.0016: real time    0.0018

  ENERGY OF THE ELECTRON-ION-THERMOSTAT SYSTEM (eV)
  ---------------------------------------------------
% ion-electron   TOTEN  =       -23.970371  see above
  kinetic energy EKIN   =         0.054651
  kin. lattice  EKIN_LAT=         0.000000  (temperature  105.70 K)
  nose potential ES     =         0.000000
  nose kinetic   EPS    =         0.000100
  ---------------------------------------------------
  total energy   ETOTAL =       -23.915620 eV

  maximum distance moved by ions :      0.67E-02


 mean value of Nose-termostat <S>:     1.014 mean value of <T> :   105.699
 mean temperature <T/S>/<1/S>  :   105.699

    WAVPRE:  cpu time    0.4891: real time    0.4956
    FEWALD:  cpu time    0.0004: real time    0.0004
    ORTHCH:  cpu time    0.2490: real time    0.2496
     LOOP+:  cpu time   94.7708: real time   95.0027


--------------------------------------- Iteration      2(   1)  ---------------------------------------


    POTLOK:  cpu time    1.7819: real time    1.7863
    SETDIJ:  cpu time    0.0065: real time    0.0065
     EDDAV:  cpu time    2.4110: real time    2.4174
       DOS:  cpu time    0.0004: real time    0.0004
    CHARGE:  cpu time    0.2179: real time    0.2184
    MIXING:  cpu time    0.0447: real time    0.0448
    --------------------------------------------
      LOOP:  cpu time    4.4625: real time    4.4739

 eigenvalue-minimisations  :    64
 total energy-change (2. order) :-0.4104923E-01  (-0.4295381E+00)
 number of electron       8.0000002 magnetization 
 augmentation part        0.1903857 magnetization 

 Broyden mixing:
  rms(total) = 0.10383E+00    rms(broyden)= 0.10376E+00
  rms(prec ) = 0.13206E+00
  weight for this iteration     100.00

 Free energy of the ion-electron system (eV)
  ---------------------------------------------------
  alpha Z        PSCENC =         0.22657014
  Ewald energy   TEWEN  =       133.99015224
  -Hartree energ DENC   =      -286.76660573
  -exchange      EXHF   =         0.00000000
  -V(xc)+E(xc)   XCENC  =        24.70672503
  PAW double counting   =       412.30565482     -413.07357021
  entropy T*S    EENTRO =         0.01232576
  eigenvalues    EBANDS =       -92.45442567
  atomic energy  EATOM  =       197.04175453
  Solvation  Ediel_sol  =         0.00000000
  ---------------------------------------------------
  free energy    TOTEN  =       -24.01141908 eV

  energy without entropy =      -24.02374484  energy(sigma->0) =      -24.01552767


--------------------------------------------------------------------------------------------------------




--------------------------------------- Iteration      2(   2)  ---------------------------------------


    POTLOK:  cpu time    1.6262: real time    1.6301
    SETDIJ:  cpu time    0.0066: real time    0.0066
    EDDIAG:  cpu time    0.4779: real time    0.4790
  RMM-DIIS:  cpu time    1.6232: real time    1.6271
    ORTHCH:  cpu time    0.0131: real time    0.0131
       DOS:  cpu time    0.0002: real time    0.0002
    CHARGE:  cpu time    0.2184: real time    0.2190
    MIXING:  cpu time    0.0689: real time    0.0690
    --------------------------------------------
      LOOP:  cpu time    4.0345: real time    4.0441

 eigenvalue-minimisations  :    64
 total energy-change (2. order) : 0.1001569E-01  (-0.4645369E-01)
 number of electron       8.0000002 magnetization 
 augmentation part        0.1858872 magnetization 

 Broyden mixing:
  rms(total) = 0.75041E-01    rms(broyden)= 0.75005E-01
  rms(prec ) = 0.10018E+00
  weight for this iteration     100.00

 eigenvalues of (default mixing * dielectric matrix)
  average eigenvalue GAMMA=   2.2649
  8.7898  5.5590  4.2254  2.9097  2.7320  2.3995  2.1052  1.5995  1.5995  0.7047
  0.7047  1.2287  1.2287  1.1782  0.8932  0.9804  0.9804  0.9497

 Free energy of the ion-electron system (eV)
  ---------------------------------------------------
  alpha Z        PSCENC =         0.22657014
  Ewald energy   TEWEN  =       133.99015224
  -Hartree energ DENC   =      -292.30002398
  -exchange      EXHF   =         0.00000000
  -V(xc)+E(xc)   XCENC  =        25.02868081
  PAW double counting   =       453.22423895     -454.03826240
  entropy T*S    EENTRO =         0.02381041
  eigenvalues    EBANDS =       -87.19832409
  atomic energy  EATOM  =       197.04175453
  Solvation  Ediel_sol  =         0.00000000
  ---------------------------------------------------
  free energy    TOTEN  =       -24.00140339 eV

  energy without entropy =      -24.02521380  energy(sigma->0) =      -24.00934019


--------------------------------------------------------------------------------------------------------




--------------------------------------- Iteration      2(   3)  ---------------------------------------


    POTLOK:  cpu time    1.6385: real time    1.6424
    SETDIJ:  cpu time    0.0065: real time    0.0065
    EDDIAG:  cpu time    0.4732: real time    0.4743
  RMM-DIIS:  cpu time    1.6735: real time    1.6775
    ORTHCH:  cpu time    0.0128: real time    0.0129
       DOS:  cpu time    0.0002: real time    0.0002
    CHARGE:  cpu time    0.2105: real time    0.2110
    MIXING:  cpu time    0.0724: real time    0.0726
    --------------------------------------------
      LOOP:  cpu time    4.0877: real time    4.0974

 eigenvalue-minimisations  :    64
 total energy-change (2. order) : 0.4246481E-02  (-0.2474940E-01)
 number of electron       8.0000003 magnetization 
 augmentation part        0.1892730 magnetization 

 Broyden mixing:
  rms(total) = 0.86207E-01    rms(broyden)= 0.86187E-01
  rms(prec ) = 0.11233E+00
  weight for this iteration     100.00

 eigenvalues of (default mixing * dielectric matrix)
  average eigenvalue GAMMA=   2.2185
  8.7900  5.5623  4.2188  2.9168  2.7465  2.4309  2.1102  1.8847  0.7047  0.7047
  1.2603  1.2603  1.3742  1.3742  1.0134  1.0134  1.0089  0.8889  0.8889

 Free energy of the ion-electron system (eV)
  ---------------------------------------------------
  alpha Z        PSCENC =         0.22657014
  Ewald energy   TEWEN  =       133.99015224
  -Hartree energ DENC   =      -288.45117574
  -exchange      EXHF   =         0.00000000
  -V(xc)+E(xc)   XCENC  =        24.84097296
  PAW double counting   =       464.10137788     -464.88287342
  entropy T*S    EENTRO =         0.02704193
  eigenvalues    EBANDS =       -90.89097743
  atomic energy  EATOM  =       197.04175453
  Solvation  Ediel_sol  =         0.00000000
  ---------------------------------------------------
  free energy    TOTEN  =       -23.99715691 eV

  energy without entropy =      -24.02419884  energy(sigma->0) =      -24.00617089


--------------------------------------------------------------------------------------------------------




--------------------------------------- Iteration      2(   4)  ---------------------------------------


    POTLOK:  cpu time    1.6325: real time    1.6364
    SETDIJ:  cpu time    0.0066: real time    0.0067
    EDDIAG:  cpu time    0.4860: real time    0.4871
  RMM-DIIS:  cpu time    1.6867: real time    1.6907
    ORTHCH:  cpu time    0.0126: real time    0.0127
       DOS:  cpu time    0.0002: real time    0.0002
    CHARGE:  cpu time    0.2182: real time    0.2188
    MIXING:  cpu time    0.0704: real time    0.0705
    --------------------------------------------
      LOOP:  cpu time    4.1133: real time    4.1231

 eigenvalue-minimisations  :    64
 total energy-change (2. order) : 0.1345705E-01  (-0.8715802E-03)
 number of electron       8.0000002 magnetization 
 augmentation part        0.1893893 magnetization 

 Broyden mixing:
  rms(total) = 0.39169E-01    rms(broyden)= 0.39148E-01
  rms(prec ) = 0.51891E-01
  weight for this iteration     100.00

 eigenvalues of (default mixing * dielectric matrix)
  average eigenvalue GAMMA=   2.1796
  8.7983  5.5589  4.2621  2.9749  2.7365  2.4686  2.4148  1.7187  1.7187  1.3977
  1.2612  1.2612  0.7047  0.7047  1.0132  1.0132  0.9685  0.9153  0.9153  0.7849

 Free energy of the ion-electron system (eV)
  ---------------------------------------------------
  alpha Z        PSCENC =         0.22657014
[...]
  rms(prec ) = 0.19056E-01
  weight for this iteration     100.00

 eigenvalues of (default mixing * dielectric matrix)
  average eigenvalue GAMMA=   2.5906
 15.9820 15.9820  6.1802  5.0949  5.0949  1.3013  1.3013  0.0025  0.0542  0.1614
  2.8670  2.8670  0.3530  0.3530  1.2051  1.2051  0.9600  0.9600  0.9353  0.9353
  0.6063  0.6063  0.7248  3.2807  3.2807  1.1170  1.4922  1.4922  1.2826  1.9959
  1.9959  2.2627  2.2627  1.9543  1.9543  3.0439  3.0439  2.5871  2.5871  2.2832
  2.2832  2.6737  2.6737  2.7805  2.6778  2.5455  2.5455  2.5217

 Free energy of the ion-electron system (eV)
  ---------------------------------------------------
  alpha Z        PSCENC =         0.22657014
  Ewald energy   TEWEN  =       124.36510976
  -Hartree energ DENC   =      -280.74513690
  -exchange      EXHF   =         0.00000000
  -V(xc)+E(xc)   XCENC  =        24.40423608
  PAW double counting   =       424.21604242     -424.98222880
  entropy T*S    EENTRO =         0.01282951
  eigenvalues    EBANDS =       -88.41875636
  atomic energy  EATOM  =       197.04175453
  Solvation  Ediel_sol  =         0.00000000
  ---------------------------------------------------
  free energy    TOTEN  =       -23.87957963 eV

  energy without entropy =      -23.89240914  energy(sigma->0) =      -23.88385613


--------------------------------------------------------------------------------------------------------




--------------------------------------- Iteration     10(  37)  ---------------------------------------


    POTLOK:  cpu time    1.5323: real time    1.5359
    SETDIJ:  cpu time    0.0064: real time    0.0064
    EDDIAG:  cpu time    0.3088: real time    0.3096
  RMM-DIIS:  cpu time    1.0621: real time    1.0646
    ORTHCH:  cpu time    0.0123: real time    0.0123
       DOS:  cpu time    0.0002: real time    0.0002
    CHARGE:  cpu time    0.1538: real time    0.1541
    MIXING:  cpu time    0.1229: real time    0.1232
    --------------------------------------------
      LOOP:  cpu time    3.1987: real time    3.2063

 eigenvalue-minimisations  :    48
 total energy-change (2. order) :-0.2165827E-04  (-0.7331527E-07)
 number of electron       8.0000001 magnetization 
 augmentation part        0.1775459 magnetization 

 Broyden mixing:
  rms(total) = 0.13951E-01    rms(broyden)= 0.13951E-01
  rms(prec ) = 0.19227E-01
  weight for this iteration     100.00

 eigenvalues of (default mixing * dielectric matrix)
  average eigenvalue GAMMA=   2.7023
 19.8503 19.8503  6.3014  4.7653  4.7653  2.9416  2.9416  0.0133  0.0636  0.3029
  0.3029  1.4535  1.4535  0.2425  0.6270  0.6270  1.0204  1.0204  0.5096  0.5096
  0.5744  1.0004  1.0004  0.8283  2.1222  2.1222  1.2123  1.3407  1.5285  1.5285
  3.2714  3.2714  2.0950  2.0950  1.8871  2.9932  2.9932  3.0396  2.2082  2.2082
  2.5849  2.5849  2.6635  2.6635  2.6387  2.6387  2.7007  2.5272  2.5272

 Free energy of the ion-electron system (eV)
  ---------------------------------------------------
  alpha Z        PSCENC =         0.22657014
  Ewald energy   TEWEN  =       124.36510976
  -Hartree energ DENC   =      -280.74498411
  -exchange      EXHF   =         0.00000000
  -V(xc)+E(xc)   XCENC  =        24.40422374
  PAW double counting   =       424.21672473     -424.98291055
  entropy T*S    EENTRO =         0.01280964
  eigenvalues    EBANDS =       -88.41889917
  atomic energy  EATOM  =       197.04175453
  Solvation  Ediel_sol  =         0.00000000
  ---------------------------------------------------
  free energy    TOTEN  =       -23.87960128 eV

  energy without entropy =      -23.89241093  energy(sigma->0) =      -23.88387116


--------------------------------------------------------------------------------------------------------




--------------------------------------- Iteration     10(  38)  ---------------------------------------


    POTLOK:  cpu time    1.5190: real time    1.5226
    SETDIJ:  cpu time    0.0064: real time    0.0064
    EDDIAG:  cpu time    0.3129: real time    0.3136
  RMM-DIIS:  cpu time    1.1415: real time    1.1442
    ORTHCH:  cpu time    0.0123: real time    0.0123
       DOS:  cpu time    0.0002: real time    0.0002
    CHARGE:  cpu time    0.1468: real time    0.1472
    MIXING:  cpu time    0.1230: real time    0.1233
    --------------------------------------------
      LOOP:  cpu time    3.2621: real time    3.2698

 eigenvalue-minimisations  :    48
 total energy-change (2. order) :-0.1771960E-04  (-0.5234627E-07)
 number of electron       8.0000001 magnetization 
 augmentation part        0.1775460 magnetization 

 Broyden mixing:
  rms(total) = 0.14004E-01    rms(broyden)= 0.14004E-01
  rms(prec ) = 0.19317E-01
  weight for this iteration     100.00

 eigenvalues of (default mixing * dielectric matrix)
  average eigenvalue GAMMA=   2.3381
 10.3867 10.3867  7.0727  4.7166  1.5211  1.5211  3.4769  3.4769  0.0098  0.0693
  3.4888  0.3250  0.3250  0.3726  0.9455  0.9455  0.6477  0.6477  0.6121  1.0433
  1.0433  1.9054  1.9054  0.9608  1.4506  1.4506  1.1464  1.7452  1.7452  2.8702
  2.8702  2.8595  2.6579  2.6579  1.9693  1.9693  2.5678  2.5678  2.6467  2.6467
  2.4052  2.4052  2.0585  2.2827  2.4345

 Free energy of the ion-electron system (eV)
  ---------------------------------------------------
  alpha Z        PSCENC =         0.22657014
  Ewald energy   TEWEN  =       124.36510976
  -Hartree energ DENC   =      -280.74476088
  -exchange      EXHF   =         0.00000000
  -V(xc)+E(xc)   XCENC  =        24.40421588
  PAW double counting   =       424.20851120     -424.97469626
  entropy T*S    EENTRO =         0.01279653
  eigenvalues    EBANDS =       -88.41911991
  atomic energy  EATOM  =       197.04175453
  Solvation  Ediel_sol  =         0.00000000
  ---------------------------------------------------
  free energy    TOTEN  =       -23.87961900 eV

  energy without entropy =      -23.89241554  energy(sigma->0) =      -23.88388451


--------------------------------------------------------------------------------------------------------




--------------------------------------- Iteration     10(  39)  ---------------------------------------


    POTLOK:  cpu time    1.5241: real time    1.5285
    SETDIJ:  cpu time    0.0057: real time    0.0057
    EDDIAG:  cpu time    0.3236: real time    0.3243
  RMM-DIIS:  cpu time    1.1380: real time    1.1407
    ORTHCH:  cpu time    0.0112: real time    0.0112
       DOS:  cpu time    0.0002: real time    0.0002
    CHARGE:  cpu time    0.1495: real time    0.1498
    MIXING:  cpu time    0.1171: real time    0.1174
    --------------------------------------------
      LOOP:  cpu time    3.2692: real time    3.2778

 eigenvalue-minimisations  :    52
 total energy-change (2. order) :-0.4220815E-04  (-0.3040389E-06)
 number of electron       8.0000001 magnetization 
 augmentation part        0.1775468 magnetization 

 Broyden mixing:
  rms(total) = 0.14354E-01    rms(broyden)= 0.14354E-01
  rms(prec ) = 0.19738E-01
  weight for this iteration     100.00

 eigenvalues of (default mixing * dielectric matrix)
  average eigenvalue GAMMA=   2.3258
  8.1391  8.1391  7.8741  3.7855  3.7855  5.0185  3.4111  3.4111  0.0383  0.0383
  0.2296  0.2296  2.6430  2.6430  0.9962  0.9962  0.5817  0.5817  0.6003  0.6003
  1.0894  1.0894  0.9599  1.0814  1.0814  1.3679  1.3679  1.9700  1.9700  1.7214
  1.7214  3.0504  2.0462  2.0462  2.8684  2.8684  2.8314  2.4740  2.4740  2.0932
  2.5037  2.5037  2.6259  2.6259  2.4022  2.4120

 Free energy of the ion-electron system (eV)
  ---------------------------------------------------
  alpha Z        PSCENC =         0.22657014
  Ewald energy   TEWEN  =       124.36510976
  -Hartree energ DENC   =      -280.74476800
  -exchange      EXHF   =         0.00000000
  -V(xc)+E(xc)   XCENC  =        24.40417452
  PAW double counting   =       424.22080739     -424.98699851
  entropy T*S    EENTRO =         0.01275107
  eigenvalues    EBANDS =       -88.41906212
  atomic energy  EATOM  =       197.04175453
  Solvation  Ediel_sol  =         0.00000000
  ---------------------------------------------------
  free energy    TOTEN  =       -23.87966121 eV

  energy without entropy =      -23.89241228  energy(sigma->0) =      -23.88391157


--------------------------------------------------------------------------------------------------------




--------------------------------------- Iteration     10(  40)  ---------------------------------------


    POTLOK:  cpu time    1.5124: real time    1.5160
    SETDIJ:  cpu time    0.0057: real time    0.0057
    EDDIAG:  cpu time    0.3266: real time    0.3274
  RMM-DIIS:  cpu time    1.0519: real time    1.0544
    ORTHCH:  cpu time    0.0111: real time    0.0112
       DOS:  cpu time    0.0002: real time    0.0002
    --------------------------------------------
      LOOP:  cpu time    2.9079: real time    2.9147

 eigenvalue-minimisations  :    48
 total energy-change (2. order) : 0.2436528E-07  (-0.1917592E-07)
 number of electron       8.0000001 magnetization 
 augmentation part        0.1775468 magnetization 

 Free energy of the ion-electron system (eV)
  ---------------------------------------------------
  alpha Z        PSCENC =         0.22657014
  Ewald energy   TEWEN  =       124.36510976
  -Hartree energ DENC   =      -280.74465135
  -exchange      EXHF   =         0.00000000
  -V(xc)+E(xc)   XCENC  =        24.40417228
  PAW double counting   =       424.21951384     -424.98570362
  entropy T*S    EENTRO =         0.01275225
  eigenvalues    EBANDS =       -88.41917903
  atomic energy  EATOM  =       197.04175453
  Solvation  Ediel_sol  =         0.00000000
  ---------------------------------------------------
  free energy    TOTEN  =       -23.87966119 eV

  energy without entropy =      -23.89241344  energy(sigma->0) =      -23.88391194


--------------------------------------------------------------------------------------------------------




 average (electrostatic) potential at core
  the test charge radii are     0.5201  0.6991
  (the norm of the test charge is              1.0000)
       1 -41.5458       2 -40.7499       3 -41.5899       4 -41.5062       5 -58.1825



 E-fermi :  -8.6564     XC(G=0):  -0.6777     alpha+bet : -0.1970


 k-point     1 :       0.2500    0.2500    0.2500
  band No.  band energies     occupation 
      1     -16.6862      2.00000
      2      -9.5582      2.00000
      3      -9.1414      2.00321
      4      -8.8233      1.99672
      5      -0.3731      0.00000
      6       0.4870      0.00000
      7       0.6333      0.00000
      8       0.6580      0.00000

 k-point     2 :      -0.2500    0.2500    0.2500
  band No.  band energies     occupation 
      1     -16.6862      2.00000
      2      -9.5581      2.00000
      3      -9.1414      2.00321
      4      -8.8233      1.99682
      5      -0.3734      0.00000
      6       0.4942      0.00000
      7       0.6233      0.00000
      8       0.6555      0.00000

 k-point     3 :       0.2500   -0.2500    0.2500
  band No.  band energies     occupation 
      1     -16.6862      2.00000
      2      -9.5581      2.00000
      3      -9.1414      2.00322
      4      -8.8233      1.99678
      5      -0.3722      0.00000
      6       0.4917      0.00000
      7       0.6236      0.00000
      8       0.6498      0.00000

 k-point     4 :      -0.2500   -0.2500    0.2500
  band No.  band energies     occupation 
      1     -16.6862      2.00000
      2      -9.5582      2.00000
      3      -9.1414      2.00322
      4      -8.8233      1.99681
      5      -0.3799      0.00000
      6       0.5264      0.00000
      7       0.6400      0.00000
      8       0.6527      0.00000


--------------------------------------------------------------------------------------------------------


 soft charge-density along one line, spin component           1
         0         1         2         3         4         5         6         7         8         9
 total charge-density along one line

 pseudopotential strength for first ion, spin component:           1
 -2.342  -4.035  -0.001  -0.001   0.001
 -4.035  -6.868  -0.003  -0.004   0.002
 -0.001  -0.003  -0.337   0.002  -0.001
 -0.001  -0.004   0.002  -0.336  -0.001
  0.001   0.002  -0.001  -0.001  -0.338
 total augmentation occupancy for first ion, spin component:           1
  3.324  -0.563   0.282   0.270  -0.180
 -0.563   0.109  -0.047  -0.049   0.031
  0.282  -0.047   0.030   0.019  -0.014
  0.270  -0.049   0.019   0.026  -0.012
 -0.180   0.031  -0.014  -0.012   0.018


------------------------ aborting loop because EDIFF is reached ----------------------------------------


    CHARGE:  cpu time    0.1504: real time    0.1507
    FORLOC:  cpu time    0.1143: real time    0.1145
    FORNL :  cpu time    0.5216: real time    0.5229
    STRESS:  cpu time    1.7804: real time    1.7846
    FORCOR:  cpu time    1.6719: real time    1.6758
    FORHAR:  cpu time    0.5308: real time    0.5320
    MIXING:  cpu time    0.1208: real time    0.1211
    OFIELD:  cpu time    0.0000: real time    0.0000

  FORCE on cell =-STRESS in cart. coord.  units (eV):
  Direction    XX          YY          ZZ          XY          YZ          ZX
  --------------------------------------------------------------------------------------
  Alpha Z     0.22657     0.22657     0.22657
  Ewald      36.91058    47.23082    40.22368     0.50680     3.46974     0.46290
  Hartree    93.81885    94.58215    92.41122     0.07138     0.60726     0.21830
  E(xc)     -26.84260   -26.83512   -26.86468    -0.00429     0.01908     0.00948
  Local    -191.43647  -199.40086  -191.57682    -0.37025    -3.29478    -0.73124
  n-local   -15.38926   -15.19645   -14.23099    -0.11305    -0.09852    -0.03912
  augment     0.14885     0.12260     0.13117    -0.00125    -0.00441     0.00025
  Kinetic    98.94259    98.38284    99.76995     0.17940    -0.91017    -0.42360
  Fock        0.00000     0.00000     0.00000     0.00000     0.00000     0.00000
  -------------------------------------------------------------------------------------
  Total      -3.62089    -0.88744     0.09009     0.26875    -0.21182    -0.50303
  in kB      -5.42580    -1.32980     0.13500     0.40272    -0.31740    -0.75377
  external pressure =       -2.21 kB  Pullay stress =        0.00 kB

  kinetic pressure (ideal gas correction) =      0.09 kB
  total pressure  =     -2.12 kB
  Total+kin.    -5.210      -1.315       0.165       0.426      -0.318      -0.689

 VOLUME and BASIS-vectors are now :
 -----------------------------------------------------------------------------
  energy-cutoff  :      400.00
  volume of cell :     1069.21
      direct lattice vectors                 reciprocal lattice vectors
    10.229421839  0.000000000  0.000000000     0.097757236 -0.002105886  0.002034993
     0.219493154 10.189079398  0.000000000    -0.000000000  0.098144294  0.001570927
    -0.217082705 -0.164197834 10.258326179     0.000000000  0.000000000  0.097481790

  length of vectors
    10.229421839 10.191443284 10.261936553     0.097801089  0.098156865  0.097481790


 FORCES acting on ions
    electron-ion (+dipol)            ewald-force                    non-local-force                 convergence-correction
 -----------------------------------------------------------------------------------------------
   -.180E+02 0.307E+02 0.380E+02   0.198E+02 -.335E+02 -.419E+02   -.164E+01 0.324E+01 0.327E+01   -.189E-01 0.138E-02 -.158E-01
   0.473E+02 -.415E+01 0.482E+01   -.489E+02 0.430E+01 -.497E+01   0.388E+01 -.384E+00 0.382E+00   -.135E-01 0.857E-02 -.111E-01
   -.210E+02 -.478E+02 -.165E+01   0.232E+02 0.527E+02 0.164E+01   -.223E+01 -.478E+01 -.129E+00   -.206E-01 0.148E-01 -.111E-01
   -.963E+01 0.234E+02 -.452E+02   0.104E+02 -.256E+02 0.494E+02   -.722E+00 0.259E+01 -.437E+01   -.184E-01 0.244E-02 -.466E-02
   0.392E+01 -.212E+01 0.423E+01   -.457E+01 0.206E+01 -.423E+01   -.277E+01 0.122E+01 0.628E-01   -.315E+00 0.129E+00 -.205E+00
 -----------------------------------------------------------------------------------------------
   0.266E+01 -.344E-01 0.203E+00   0.000E+00 -.355E-14 0.000E+00   -.349E+01 0.188E+01 -.787E+00   -.387E+00 0.156E+00 -.247E+00


 POSITION                                       TOTAL-FORCE (eV/Angst)
 -----------------------------------------------------------------------------------
      5.54214      4.03647      3.75743         0.161867      0.419529     -0.615277
      3.96731      4.79317      4.44587         2.300743     -0.226106      0.223864
      5.60264      5.69731      4.60152         0.021025      0.116450     -0.154381
      5.36513      4.18879      5.53181         0.052689      0.406556     -0.143237
      5.16252      4.69187      4.56080        -3.746545      1.288427     -0.141428
 -----------------------------------------------------------------------------------
    total drift:                               -1.210221      2.004857     -0.830458


--------------------------------------------------------------------------------------------------------



  FREE ENERGIE OF THE ION-ELECTRON SYSTEM (eV)
  ---------------------------------------------------
  free  energy   TOTEN  =       -23.87966119 eV

  energy  without entropy=      -23.89241344  energy(sigma->0) =      -23.88391194

 d Force =-0.1175126E+00[-0.180E+00,-0.550E-01]  d Energy =-0.7978443E-01-0.377E-01
 d Force = 0.5798412E+01[ 0.555E+01, 0.605E+01]  d Ewald  = 0.5791792E+01 0.662E-02


--------------------------------------------------------------------------------------------------------


    POTLOK:  cpu time    1.5882: real time    1.5919


--------------------------------------------------------------------------------------------------------


           RANDOM_SEED =         578492936               30                0
   IONSTEP:  cpu time    0.0001: real time    0.0001

  ENERGY OF THE ELECTRON-ION-THERMOSTAT SYSTEM (eV)
  ---------------------------------------------------
% ion-electron   TOTEN  =       -23.879661  see above
  kinetic energy EKIN   =         0.024619
  kin. lattice  EKIN_LAT=         0.000000  (temperature   47.61 K)
  nose potential ES     =         0.053177
  nose kinetic   EPS    =         0.130501
  ---------------------------------------------------
  total energy   ETOTAL =       -23.671364 eV

  maximum distance moved by ions :      0.32E-02


 mean value of Nose-termostat <S>:     3.581 mean value of <T> :    47.615
 mean temperature <T/S>/<1/S>  :    47.615

    WAVPRE:  cpu time    0.4607: real time    0.4689
    FEWALD:  cpu time    0.0003: real time    0.0003
    ORTHCH:  cpu time    0.1971: real time    0.1976
 Prediction of Wavefunctions ALPHA= 1.168 BETA=-0.811
    POTLOK:  cpu time    1.5017: real time    1.5053
    EDDIAG:  cpu time    0.3372: real time    0.3380
     LOOP+:  cpu time  146.3442: real time  146.7042
    4ORBIT:  cpu time    0.0000: real time    0.0000

 total amount of memory used by VASP MPI-rank0   323801. kBytes
=======================================================================

   base      :      30000. kBytes
   nonlr-proj:        158. kBytes
   fftplans  :      94700. kBytes
   grid      :     169030. kBytes
   one-center:         15. kBytes
   wavefun   :      29898. kBytes

  
  
 General timing and accounting informations for this job:
 ========================================================
  
                  Total CPU time used (sec):     1183.780
                            User time (sec):     1161.840
                          System time (sec):       21.940
                         Elapsed time (sec):     1189.311
  
                   Maximum memory used (kb):      504112.
                   Average memory used (kb):           0.
  
                          Minor page faults:      3340274
                          Major page faults:            0
                 Voluntary context switches:          423
