<?xml version="1.0" encoding="ISO-8859-1"?>
<modeling>
 <generator>
  <i name="program" type="string">vasp </i>
  <i name="version" type="string">5.4.4.18Apr17-6-g9f103f2a35  </i>
  <i name="subversion" type="string">(build Jul 12 2018 13:43:46) complex            parallel </i>
  <i name="platform" type="string">LinuxGNU </i>
  <i name="date" type="string">2019 06 22 </i>
  <i name="time" type="string">02:17:32 </i>
 </generator>
 <incar>
  <i type="int" name="ISTART">     0</i>
  <i type="string" name="PREC">a</i>
  <i type="string" name="ALGO">fast</i>
  <i type="int" name="MAXMIX">    50</i>
  <i type="int" name="ICHARG">     2</i>
  <i type="int" name="IBRION">     0</i>
  <i name="EDIFF">      0.00000100</i>
  <i type="int" name="NSW">    10</i>
  <i type="int" name="ISIF">     2</i>
  <i type="int" name="ISYM">     0</i>
  <i type="int" name="NBLOCK">     1</i>
  <i type="int" name="KBLOCK">   100</i>
  <i name="ENCUT">    400.00000000</i>
  <i name="POTIM">      2.00000000</i>
  <i name="TEBEG">     50.00000000</i>
  <i name="TEEND">     50.00000000</i>
  <i name="SMASS">      0.00000000</i>
  <i type="logical" name="LREAL"> T  </i>
  <i type="int" name="ISMEAR">     1</i>
  <i name="SIGMA">      0.20000000</i>
  <i name="KSPACING">      0.50000000</i>
  <i type="logical" name="KGAMMA"> F  </i>
  <i name="PSTRESS">      0.00000000</i>
  <i type="logical" name="LWAVE"> F  </i>
  <i type="logical" name="LCHARG"> F  </i>
  <v type="int" name="KPOINT_BSE">    -1     0     0     0</v>
 </incar>
 <structure name="primitive_cell" >
  <crystal>
   <varray name="basis" >
    <v>      10.22942184       0.00000000       0.00000000 </v>
    <v>       0.21949315      10.18907940       0.00000000 </v>
    <v>      -0.21708270      -0.16419783      10.25832618 </v>
   </varray>
   <i name="volume">   1069.20883514 </i>
   <varray name="rec_basis" >
    <v>       0.09775724      -0.00210589       0.00203499 </v>
    <v>      -0.00000000       0.09814429       0.00157093 </v>
    <v>       0.00000000       0.00000000       0.09748179 </v>
   </varray>
  </crystal>
  <varray name="positions" >
   <v>      -0.46160801       0.40663941       0.36079227 </v>
   <v>      -0.49711110       0.46749860       0.44510746 </v>
   <v>      -0.44754727      -0.43462649       0.44282192 </v>
   <v>       0.39442313       0.47960599       0.43834014 </v>
   <v>      -0.47132653       0.41578356      -0.46062480 </v>
  </varray>
 </structure>
 <varray name="primitive_index" >
  <v type="int" >        1 </v>
  <v type="int" >        5 </v>
  <v type="int" >        3 </v>
  <v type="int" >        2 </v>
  <v type="int" >        4 </v>
 </varray>
 <kpoints>
  <generation param="Monkhorst-Pack">
   <v type="int" name="divisions">       2        2        2 </v>
   <v name="usershift">      0.00000000       0.00000000       0.00000000 </v>
   <v name="genvec1">      0.50000000       0.00000000      -0.00000000 </v>
   <v name="genvec2">      0.00000000       0.50000000       0.00000000 </v>
   <v name="genvec3">      0.00000000       0.00000000       0.50000000 </v>
   <v name="shift">      0.50000000       0.50000000       0.50000000 </v>
  </generation>
  <varray name="kpointlist" >
   <v>       0.25000000       0.25000000       0.25000000 </v>
   <v>      -0.25000000       0.25000000       0.25000000 </v>
   <v>       0.25000000      -0.25000000       0.25000000 </v>
   <v>      -0.25000000      -0.25000000       0.25000000 </v>
  </varray>
  <varray name="weights" >
   <v>       0.25000000 </v>
   <v>       0.25000000 </v>
   <v>       0.25000000 </v>
   <v>       0.25000000 </v>
  </varray>
 </kpoints>
 <parameters>
  <separator name="general" >
   <i type="string" name="SYSTEM">unknown system</i>
   <i type="logical" name="LCOMPAT"> F  </i>
  </separator>
  <separator name="electronic" >
   <i type="string" name="PREC">a</i>
   <i name="ENMAX">    400.00000000</i>
   <i name="ENAUG">    644.87300000</i>
   <i name="EDIFF">      0.00000100</i>
   <i type="int" name="IALGO">    68</i>
   <i type="int" name="IWAVPR">    12</i>
   <i type="int" name="NBANDS">     8</i>
   <i name="NELECT">      8.00000000</i>
   <i type="int" name="TURBO">     0</i>
   <i type="int" name="IRESTART">     0</i>
   <i type="int" name="NREBOOT">     0</i>
   <i type="int" name="NMIN">     0</i>
   <i name="EREF">      0.00000000</i>
   <separator name="electronic smearing" >
    <i type="int" name="ISMEAR">     1</i>
    <i name="SIGMA">      0.20000000</i>
    <i name="KSPACING">      0.50000000</i>
    <i type="logical" name="KGAMMA"> F  </i>
   </separator>
   <separator name="electronic projectors" >
    <i type="logical" name="LREAL"> T  </i>
    <v name="ROPT">      0.00000000      0.00000000</v>
    <i type="int" name="LMAXPAW">  -100</i>
    <i type="int" name="LMAXMIX">     2</i>
    <i type="logical" name="NLSPLINE"> F  </i>
   </separator>
   <separator name="electronic startup" >
    <i type="int" name="ISTART">     0</i>
    <i type="int" name="ICHARG">     2</i>
    <i type="int" name="INIWAV">     1</i>
   </separator>
   <separator name="electronic spin" >
    <i type="int" name="ISPIN">     1</i>
    <i type="logical" name="LNONCOLLINEAR"> F  </i>
    <v name="MAGMOM">      1.00000000      1.00000000      1.00000000      1.00000000      1.00000000</v>
    <i name="NUPDOWN">     -1.00000000</i>
    <i type="logical" name="LSORBIT"> F  </i>
    <v name="SAXIS">      0.00000000      0.00000000      1.00000000</v>
    <i type="logical" name="LSPIRAL"> F  </i>
    <v name="QSPIRAL">      0.00000000      0.00000000      0.00000000</v>
    <i type="logical" name="LZEROZ"> F  </i>
   </separator>
   <separator name="electronic exchange-correlation" >
    <i type="logical" name="LASPH"> F  </i>
    <i type="logical" name="LMETAGGA"> F  </i>
   </separator>
   <separator name="electronic convergence" >
    <i type="int" name="NELM">    60</i>
    <i type="int" name="NELMDL">    -5</i>
    <i type="int" name="NELMIN">     2</i>
    <i name="ENINI">    400.00000000</i>
    <separator name="electronic convergence detail" >
     <i type="logical" name="LDIAG"> T  </i>
     <i type="logical" name="LSUBROT"> F  </i>
     <i name="WEIMIN">      0.00100000</i>
     <i name="EBREAK">      0.00000003</i>
     <i name="DEPER">      0.30000000</i>
     <i type="int" name="NRMM">     4</i>
     <i name="TIME">      0.40000000</i>
    </separator>
   </separator>
   <separator name="electronic mixer" >
    <i name="AMIX">      0.40000000</i>
    <i name="BMIX">      1.00000000</i>
    <i name="AMIN">      0.10000000</i>
    <i name="AMIX_MAG">      1.60000000</i>
    <i name="BMIX_MAG">      1.00000000</i>
    <separator name="electronic mixer details" >
     <i type="int" name="IMIX">     4</i>
     <i type="logical" name="MIXFIRST"> F  </i>
     <i type="int" name="MAXMIX">    50</i>
     <i name="WC">    100.00000000</i>
     <i type="int" name="INIMIX">     1</i>
     <i type="int" name="MIXPRE">     1</i>
     <i type="int" name="MREMOVE">     5</i>
    </separator>
   </separator>
   <separator name="electronic dipolcorrection" >
    <i type="logical" name="LDIPOL"> F  </i>
    <i type="logical" name="LMONO"> F  </i>
    <i type="int" name="IDIPOL">     0</i>
    <i name="EPSILON">      1.00000000</i>
    <v name="DIPOL">   -100.00000000   -100.00000000   -100.00000000</v>
    <i name="EFIELD">      0.00000000</i>
   </separator>
  </separator>
  <separator name="grids" >
   <i type="int" name="NGX">    70</i>
   <i type="int" name="NGY">    70</i>
   <i type="int" name="NGZ">    70</i>
   <i type="int" name="NGXF">   140</i>
   <i type="int" name="NGYF">   140</i>
   <i type="int" name="NGZF">   140</i>
   <i type="logical" name="ADDGRID"> F  </i>
  </separator>
  <separator name="ionic" >
   <i type="int" name="NSW">    10</i>
   <i type="int" name="IBRION">     0</i>
   <i type="int" name="MDALGO">     0</i>
   <i type="int" name="ISIF">     2</i>
   <i name="PSTRESS">      0.00000000</i>
   <i name="EDIFFG">      0.00001000</i>
   <i type="int" name="NFREE">     0</i>
   <i name="POTIM">      2.00000000</i>
   <i name="SMASS">      0.00154574</i>
   <i name="SCALEE">      1.00000000</i>
  </separator>
  <separator name="ionic md" >
   <i name="TEBEG">     50.00000000</i>
   <i name="TEEND">     50.00000000</i>
   <i type="int" name="NBLOCK">     1</i>
   <i type="int" name="KBLOCK">     1</i>
   <i type="int" name="NPACO">   256</i>
   <i name="APACO">     16.00000000</i>
  </separator>
  <separator name="symmetry" >
   <i type="int" name="ISYM">     0</i>
   <i name="SYMPREC">      0.00001000</i>
  </separator>
  <separator name="dos" >
   <i type="int" name="LORBIT">     0</i>
   <v name="RWIGS">     -1.00000000     -1.00000000</v>
   <i type="int" name="NEDOS">   301</i>
   <i name="EMIN">     10.00000000</i>
   <i name="EMAX">    -10.00000000</i>
   <i name="EFERMI">      0.00000000</i>
  </separator>
  <separator name="writing" >
   <i type="int" name="NWRITE">     2</i>
   <i type="logical" name="LWAVE"> F  </i>
   <i type="logical" name="LDOWNSAMPLE"> F  </i>
   <i type="logical" name="LCHARG"> F  </i>
   <i type="logical" name="LPARD"> F  </i>
   <i type="logical" name="LVTOT"> F  </i>
   <i type="logical" name="LVHAR"> F  </i>
   <i type="logical" name="LELF"> F  </i>
   <i type="logical" name="LOPTICS"> F  </i>
   <v name="STM">      0.00000000      0.00000000      0.00000000      0.00000000      0.00000000      0.00000000      0.00000000</v>
  </separator>
  <separator name="performance" >
   <i type="int" name="NPAR">     1</i>
   <i type="int" name="NSIM">     4</i>
   <i type="int" name="NBLK">    -1</i>
   <i type="logical" name="LPLANE"> T  </i>
   <i type="logical" name="LSCALAPACK"> T  </i>
   <i type="logical" name="LSCAAWARE"> F  </i>
   <i type="logical" name="LSCALU"> F  </i>
   <i type="logical" name="LASYNC"> F  </i>
   <i type="logical" name="LORBITALREAL"> F  </i>
  </separator>
  <separator name="miscellaneous" >
   <i type="int" name="IDIOT">     3</i>
   <i type="int" name="ISPECIAL">     0</i>
   <i type="logical" name="LMUSIC"> F  </i>
   <v name="POMASS">      1.00000000     12.01100000</v>
   <v name="DARWINR">      0.00000000      0.00000000</v>
   <v name="DARWINV">      1.00000000      1.00000000</v>
   <i type="logical" name="LCORR"> T  </i>
  </separator>
  <i type="logical" name="GGA_COMPAT"> T  </i>
  <i type="logical" name="LBERRY"> F  </i>
  <i type="int" name="ICORELEVEL">     0</i>
  <i type="logical" name="LDAU"> F  </i>
  <i type="int" name="I_CONSTRAINED_M">     0</i>
  <separator name="electronic exchange-correlation" >
   <i type="string" name="GGA">--</i>
   <i type="int" name="VOSKOWN">     0</i>
   <i type="logical" name="LHFCALC"> F  </i>
   <i type="string" name="PRECFOCK"></i>
   <i type="logical" name="LSYMGRAD"> F  </i>
   <i type="logical" name="LHFONE"> F  </i>
   <i type="logical" name="LRHFCALC"> F  </i>
   <i type="logical" name="LTHOMAS"> F  </i>
   <i type="logical" name="LMODELHF"> F  </i>
   <i name="ENCUT4O">     -1.00000000</i>
   <i type="int" name="EXXOEP">     0</i>
   <i type="int" name="FOURORBIT">     0</i>
   <i name="AEXX">      0.00000000</i>
   <i name="HFALPHA">      0.00000000</i>
   <i name="MCALPHA">      0.00000000</i>
   <i name="ALDAX">      1.00000000</i>
   <i name="AGGAX">      1.00000000</i>
   <i name="ALDAC">      1.00000000</i>
   <i name="AGGAC">      1.00000000</i>
   <i type="int" name="NKREDX">     1</i>
   <i type="int" name="NKREDY">     1</i>
   <i type="int" name="NKREDZ">     1</i>
   <i type="logical" name="SHIFTRED"> F  </i>
   <i type="logical" name="ODDONLY"> F  </i>
   <i type="logical" name="EVENONLY"> F  </i>
   <i type="int" name="LMAXFOCK">     0</i>
   <i type="int" name="NMAXFOCKAE">     0</i>
   <i type="logical" name="LFOCKAEDFT"> F  </i>
   <i name="HFSCREEN">      0.00000000</i>
   <i name="HFSCREENC">      0.00000000</i>
   <i type="int" name="NBANDSGWLOW">     0</i>
  </separator>
  <separator name="vdW DFT" >
   <i type="logical" name="LUSE_VDW"> F  </i>
   <i name="Zab_VDW">     -0.84910000</i>
   <i name="PARAM1">      0.12340000</i>
   <i name="PARAM2">      1.00000000</i>
   <i name="PARAM3">      0.00000000</i>
  </separator>
  <separator name="model GW" >
   <i type="int" name="MODEL_GW">     0</i>
   <i name="MODEL_EPS0">    128.30506022</i>
   <i name="MODEL_ALPHA">      1.00000000</i>
  </separator>
  <separator name="linear response parameters" >
   <i type="logical" name="LEPSILON"> F  </i>
   <i type="logical" name="LRPA"> F  </i>
   <i type="logical" name="LNABLA"> F  </i>
   <i type="logical" name="LVEL"> F  </i>
   <i type="int" name="KINTER">     0</i>
   <i name="CSHIFT">      0.10000000</i>
   <i name="OMEGAMAX">     -1.00000000</i>
   <i name="DEG_THRESHOLD">      0.00200000</i>
   <i name="RTIME">     -0.10000000</i>
   <i name="WPLASMAI">      0.00000000</i>
   <v name="DFIELD">      0.00000000      0.00000000      0.00000000</v>
   <v name="WPLASMA">      0.00000000      0.00000000      0.00000000      0.00000000      0.00000000      0.00000000      0.00000000      0.00000000      0.00000000</v>
  </separator>
  <separator name="orbital magnetization" >
   <i type="logical" name="NUCIND"> F  </i>
   <v name="MAGPOS">      0.00000000      0.00000000      0.00000000</v>
   <i type="logical" name="LNICSALL"> T  </i>
   <i type="logical" name="ORBITALMAG"> F  </i>
   <i type="logical" name="LMAGBLOCH"> F  </i>
   <i type="logical" name="LCHIMAG"> F  </i>
   <i type="logical" name="LGAUGE"> T  </i>
   <i type="int" name="MAGATOM">     0</i>
   <v name="MAGDIPOL">      0.00000000      0.00000000      0.00000000</v>
   <v name="AVECCONST">      0.00000000      0.00000000      0.00000000</v>
  </separator>
  <separator name="response functions" >
   <i type="logical" name="LADDER"> F  </i>
   <i type="logical" name="LRPAFORCE"> F  </i>
   <i type="logical" name="LFXC"> F  </i>
   <i type="logical" name="LHARTREE"> T  </i>
   <i type="int" name="IBSE">     0</i>
   <v type="int" name="KPOINT">    -1     0     0     0</v>
   <i type="logical" name="LTCTE"> F  </i>
   <i type="logical" name="LTETE"> F  </i>
   <i type="logical" name="LTRIPLET"> F  </i>
   <i type="logical" name="LFXCEPS"> F  </i>
   <i type="logical" name="LFXHEG"> F  </i>
   <i type="int" name="NATURALO">     2</i>
   <i type="logical" name="L2ORDER"> F  </i>
   <i type="logical" name="LMP2LT"> F  </i>
   <i type="logical" name="LUSEW"> F  </i>
   <i name="ENCUTGW">     -2.00000000</i>
   <i name="ENCUTGWSOFT">     -2.00000000</i>
   <i name="ENCUTLF">     -1.00000000</i>
   <i type="int" name="LMAXMP2">    -1</i>
   <i name="SCISSOR">      0.00000000</i>
   <i type="int" name="NOMEGA">     0</i>
   <i type="int" name="NOMEGAR">     0</i>
   <i type="int" name="NBANDSGW">    -1</i>
   <i type="int" name="NBANDSO">    -1</i>
   <i type="int" name="NBANDSV">    -1</i>
   <i type="int" name="NELM">     1</i>
   <i type="int" name="NELMHF">     1</i>
   <i type="int" name="DIM">     3</i>
   <i type="int" name="ANTIRES">     0</i>
   <i name="OMEGAMAX">    -30.00000000</i>
   <i name="OMEGAMIN">    -30.00000000</i>
   <i name="OMEGATL">   -200.00000000</i>
   <i type="int" name="OMEGAGRID">   140</i>
   <i name="CSHIFT">     -0.10000000</i>
   <i type="logical" name="SELFENERGY"> F  </i>
   <i type="logical" name="LSPECTRAL"> F  </i>
   <i type="logical" name="LSPECTRALGW"> F  </i>
   <i type="logical" name="LSINGLES"> F  </i>
   <i type="logical" name="LFERMIGW"> F  </i>
   <i type="logical" name="ODDONLYGW"> F  </i>
   <i type="logical" name="EVENONLYGW"> F  </i>
   <i type="int" name="NKREDLFX">     1</i>
   <i type="int" name="NKREDLFY">     1</i>
   <i type="int" name="NKREDLFZ">     1</i>
   <i type="int" name="MAXMEM">  2800</i>
   <i type="int" name="TELESCOPE">     0</i>
   <i type="int" name="TAUPAR">     1</i>
   <i type="int" name="OMEGAPAR">    -1</i>
   <i name="LAMBDA">      1.00000000</i>
  </separator>
  <separator name="External order field" >
   <i name="OFIELD_KAPPA">      0.00000000</i>
   <v name="OFIELD_K">      0.00000000      0.00000000      0.00000000</v>
   <i name="OFIELD_Q6_NEAR">      0.00000000</i>
   <i name="OFIELD_Q6_FAR">      0.00000000</i>
   <i name="OFIELD_A">      0.00000000</i>
  </separator>
 </parameters>
 <atominfo>
  <atoms>       5 </atoms>
  <types>       2 </types>
  <array name="atoms" >
   <dimension dim="1">ion</dimension>
   <field type="string">element</field>
   <field type="int">atomtype</field>
   <set>
    <rc><c>H </c><c>   1</c></rc>
    <rc><c>H </c><c>   1</c></rc>
    <rc><c>H </c><c>   1</c></rc>
    <rc><c>H </c><c>   1</c></rc>
    <rc><c>C </c><c>   2</c></rc>
   </set>
  </array>
  <array name="atomtypes" >
   <dimension dim="1">type</dimension>
   <field type="int">atomspertype</field>
   <field type="string">element</field>
   <field>mass</field>
   <field>valence</field>
   <field type="string">pseudopotential</field>
   <set>
    <rc><c>   4</c><c>H </c><c>      1.00000000</c><c>      1.00000000</c><c>  PAW_PBE H 15Jun2001                   </c></rc>
    <rc><c>   1</c><c>C </c><c>     12.01100000</c><c>      4.00000000</c><c>  PAW_PBE C 08Apr2002                   </c></rc>
   </set>
  </array>
 </atominfo>
 <structure name="initialpos" >
  <crystal>
   <varray name="basis" >
    <v>      10.22942184       0.00000000       0.00000000 </v>
    <v>       0.21949315      10.18907940       0.00000000 </v>
    <v>      -0.21708270      -0.16419783      10.25832618 </v>
   </varray>
   <i name="volume">   1069.20883514 </i>
   <varray name="rec_basis" >
    <v>       0.09775724      -0.00210589       0.00203499 </v>
    <v>      -0.00000000       0.09814429       0.00157093 </v>
    <v>       0.00000000       0.00000000       0.09748179 </v>
   </varray>
  </crystal>
  <varray name="positions" >
   <v>       0.53839199       0.40663941       0.36079227 </v>
   <v>       0.39442313       0.47960599       0.43834014 </v>
   <v>       0.55245273       0.56537351       0.44282192 </v>
   <v>       0.52867347       0.41578356       0.53937520 </v>
   <v>       0.50288890       0.46749860       0.44510746 </v>
  </varray>
  <varray name="velocities" >
   <v>       0.00176451       0.00129246      -0.00034718 </v>
   <v>       0.00246960      -0.00072050      -0.00004243 </v>
   <v>      -0.00070029       0.00133536      -0.00043847 </v>
   <v>      -0.00140316      -0.00073576      -0.00131038 </v>
   <v>      -0.00017739      -0.00009754       0.00017804 </v>
  </varray>
 </structure>
 <calculation>
  <scstep>
   <time name="dav">    2.97    2.97</time>
   <time name="total">    4.76    4.77</time>
   <energy>
    <i name="alphaZ">      0.22657014 </i>
    <i name="ewald">    125.38293558 </i>
    <i name="hartreedc">   -243.46398040 </i>
    <i name="XCdc">     21.86144018 </i>
    <i name="pawpsdc">    117.05815612 </i>
    <i name="pawaedc">   -117.66307307 </i>
    <i name="eentropy">      0.00962361 </i>
    <i name="bandstr">    -85.08746327 </i>
    <i name="atom">    197.04175453 </i>
    <i name="e_fr_energy">     15.36596342 </i>
    <i name="e_wo_entrp">     15.35633981 </i>
    <i name="e_0_energy">     15.36275555 </i>
   </energy>
  </scstep>
  <scstep>
   <time name="dav">    2.26    2.26</time>
   <time name="total">    2.26    2.26</time>
   <energy>
    <i name="e_fr_energy">    -22.39056141 </i>
    <i name="e_wo_entrp">    -22.40030354 </i>
    <i name="e_0_energy">    -22.39380879 </i>
   </energy>
  </scstep>
  <scstep>
   <time name="dav">    2.25    2.26</time>
   <time name="total">    2.25    2.26</time>
   <energy>
    <i name="e_fr_energy">    -26.94863299 </i>
    <i name="e_wo_entrp">    -26.97727946 </i>
    <i name="e_0_energy">    -26.95818181 </i>
   </energy>
  </scstep>
  <scstep>
   <time name="dav">    4.06    4.07</time>
   <time name="total">    4.06    4.07</time>
   <energy>
    <i name="e_fr_energy">    -27.14553364 </i>
    <i name="e_wo_entrp">    -27.17468725 </i>
    <i name="e_0_energy">    -27.15525151 </i>
   </energy>
  </scstep>
  <scstep>
   <time name="dav">    3.12    3.13</time>
   <time name="total">    3.39    3.40</time>
   <energy>
    <i name="e_fr_energy">    -27.14560544 </i>
    <i name="e_wo_entrp">    -27.17475931 </i>
    <i name="e_0_energy">    -27.15532340 </i>
   </energy>
  </scstep>
  <scstep>
   <time name="diag">    0.48    0.48</time>
   <time name="diis">    1.59    1.59</time>
   <time name="orth">    0.01    0.01</time>
   <time name="total">    4.21    4.22</time>
   <energy>
    <i name="e_fr_energy">    -24.54907150 </i>
    <i name="e_wo_entrp">    -24.57959551 </i>
    <i name="e_0_energy">    -24.55924617 </i>
   </energy>
  </scstep>
  <scstep>
   <time name="diag">    0.49    0.49</time>
   <time name="diis">    1.55    1.55</time>
   <time name="orth">    0.01    0.01</time>
   <time name="total">    4.22    4.23</time>
   <energy>
    <i name="e_fr_energy">    -24.11214520 </i>
    <i name="e_wo_entrp">    -24.14424473 </i>
    <i name="e_0_energy">    -24.12284505 </i>
   </energy>
  </scstep>
  <scstep>
   <time name="diag">    0.47    0.47</time>
   <time name="diis">    1.62    1.62</time>
   <time name="orth">    0.01    0.01</time>
   <time name="total">    4.30    4.31</time>
   <energy>
    <i name="e_fr_energy">    -23.98692135 </i>
    <i name="e_wo_entrp">    -24.01933278 </i>
    <i name="e_0_energy">    -23.99772516 </i>
   </energy>
  </scstep>
  <scstep>
   <time name="diag">    0.46    0.46</time>
   <time name="diis">    1.66    1.67</time>
   <time name="orth">    0.01    0.01</time>
   <time name="total">    4.32    4.33</time>
   <energy>
    <i name="e_fr_energy">    -23.96561727 </i>
    <i name="e_wo_entrp">    -23.99860413 </i>
    <i name="e_0_energy">    -23.97661289 </i>
   </energy>
  </scstep>
  <scstep>
   <time name="diag">    0.47    0.47</time>
   <time name="diis">    1.69    1.69</time>
   <time name="orth">    0.01    0.01</time>
   <time name="total">    4.31    4.32</time>
   <energy>
    <i name="e_fr_energy">    -23.96511098 </i>
    <i name="e_wo_entrp">    -23.99902480 </i>
    <i name="e_0_energy">    -23.97641559 </i>
   </energy>
  </scstep>
  <scstep>
   <time name="diag">    0.48    0.49</time>
   <time name="diis">    1.68    1.68</time>
   <time name="orth">    0.01    0.01</time>
   <time name="total">    4.28    4.29</time>
   <energy>
    <i name="e_fr_energy">    -23.95836718 </i>
    <i name="e_wo_entrp">    -23.99153827 </i>
    <i name="e_0_energy">    -23.96942421 </i>
   </energy>
  </scstep>
  <scstep>
   <time name="diag">    0.50    0.50</time>
   <time name="diis">    1.66    1.66</time>
   <time name="orth">    0.01    0.01</time>
   <time name="total">    4.22    4.23</time>
   <energy>
    <i name="e_fr_energy">    -23.95741660 </i>
    <i name="e_wo_entrp">    -23.99062513 </i>
    <i name="e_0_energy">    -23.96848611 </i>
   </energy>
  </scstep>
  <scstep>
   <time name="diag">    0.50    0.50</time>
   <time name="diis">    1.66    1.67</time>
   <time name="orth">    0.01    0.01</time>
   <time name="total">    4.16    4.17</time>
   <energy>
    <i name="e_fr_energy">    -23.96464767 </i>
    <i name="e_wo_entrp">    -23.99794759 </i>
    <i name="e_0_energy">    -23.97574764 </i>
   </energy>
  </scstep>
  <scstep>
   <time name="diag">    0.48    0.48</time>
   <time name="diis">    1.67    1.67</time>
   <time name="orth">    0.01    0.01</time>
   <time name="total">    4.14    4.15</time>
   <energy>
    <i name="e_fr_energy">    -23.96696172 </i>
    <i name="e_wo_entrp">    -24.00022454 </i>
    <i name="e_0_energy">    -23.97804933 </i>
   </energy>
  </scstep>
  <scstep>
   <time name="diag">    0.48    0.48</time>
   <time name="diis">    1.69    1.69</time>
   <time name="orth">    0.01    0.01</time>
   <time name="total">    4.11    4.12</time>
   <energy>
    <i name="e_fr_energy">    -23.96992148 </i>
    <i name="e_wo_entrp">    -24.00312130 </i>
    <i name="e_0_energy">    -23.98098809 </i>
   </energy>
  </scstep>
  <scstep>
   <time name="diag">    0.49    0.49</time>
   <time name="diis">    1.72    1.72</time>
   <time name="orth">    0.01    0.01</time>
   <time name="total">    4.11    4.12</time>
   <energy>
    <i name="e_fr_energy">    -23.97000216 </i>
    <i name="e_wo_entrp">    -24.00320186 </i>
    <i name="e_0_energy">    -23.98106872 </i>
   </energy>
  </scstep>
  <scstep>
   <time name="diag">    0.49    0.49</time>
   <time name="diis">    1.70    1.70</time>
   <time name="orth">    0.01    0.01</time>
   <time name="total">    4.07    4.08</time>
   <energy>
    <i name="e_fr_energy">    -23.97026480 </i>
    <i name="e_wo_entrp">    -24.00347849 </i>
    <i name="e_0_energy">    -23.98133603 </i>
   </energy>
  </scstep>
  <scstep>
   <time name="diag">    0.48    0.48</time>
   <time name="diis">    1.66    1.66</time>
   <time name="orth">    0.01    0.01</time>
   <time name="total">    4.06    4.07</time>
   <energy>
    <i name="e_fr_energy">    -23.97033568 </i>
    <i name="e_wo_entrp">    -24.00355968 </i>
    <i name="e_0_energy">    -23.98141035 </i>
   </energy>
  </scstep>
  <scstep>
   <time name="diag">    0.49    0.49</time>
   <time name="diis">    1.51    1.51</time>
   <time name="orth">    0.01    0.01</time>
   <time name="total">    3.97    3.98</time>
   <energy>
    <i name="e_fr_energy">    -23.97035509 </i>
    <i name="e_wo_entrp">    -24.00357390 </i>
    <i name="e_0_energy">    -23.98142803 </i>
   </energy>
  </scstep>
  <scstep>
   <time name="diag">    0.47    0.47</time>
   <time name="diis">    1.48    1.49</time>
   <time name="orth">    0.01    0.01</time>
   <time name="total">    3.97    3.98</time>
   <energy>
    <i name="e_fr_energy">    -23.97036549 </i>
    <i name="e_wo_entrp">    -24.00358426 </i>
    <i name="e_0_energy">    -23.98143841 </i>
   </energy>
  </scstep>
  <scstep>
   <time name="diag">    0.48    0.48</time>
   <time name="diis">    1.26    1.26</time>
   <time name="orth">    0.01    0.01</time>
   <time name="total">    3.78    3.79</time>
   <energy>
    <i name="e_fr_energy">    -23.97036985 </i>
    <i name="e_wo_entrp">    -24.00358915 </i>
    <i name="e_0_energy">    -23.98144295 </i>
   </energy>
  </scstep>
  <scstep>
   <time name="diag">    0.48    0.48</time>
   <time name="diis">    1.25    1.25</time>
   <time name="orth">    0.01    0.01</time>
   <time name="total">    3.52    3.53</time>
   <energy>
    <i name="alphaZ">      0.22657014 </i>
    <i name="ewald">    125.38293558 </i>
    <i name="hartreedc">   -281.81887055 </i>
    <i name="XCdc">     24.45705809 </i>
    <i name="pawpsdc">    412.29220314 </i>
    <i name="pawaedc">   -413.06012542 </i>
    <i name="eentropy">      0.03321916 </i>
    <i name="bandstr">    -88.52511528 </i>
    <i name="atom">    197.04175453 </i>
    <i name="e_fr_energy">    -23.97037060 </i>
    <i name="e_wo_entrp">    -24.00358976 </i>
    <i name="e_0_energy">    -23.98144366 </i>
   </energy>
  </scstep>
  <structure>
   <crystal>
    <varray name="basis" >
     <v>      10.22942184       0.00000000       0.00000000 </v>
     <v>       0.21949315      10.18907940       0.00000000 </v>
     <v>      -0.21708270      -0.16419783      10.25832618 </v>
    </varray>
    <i name="volume">   1069.20883514 </i>
    <varray name="rec_basis" >
     <v>       0.09775724      -0.00210589       0.00203499 </v>
     <v>      -0.00000000       0.09814429       0.00157093 </v>
     <v>       0.00000000       0.00000000       0.09748179 </v>
    </varray>
   </crystal>
   <varray name="positions" >
    <v>       0.53839199       0.40663941       0.36079227 </v>
    <v>       0.39442313       0.47960599       0.43834014 </v>
    <v>       0.55245273       0.56537351       0.44282192 </v>
    <v>       0.52867347       0.41578356       0.53937520 </v>
    <v>       0.50288890       0.46749860       0.44510746 </v>
   </varray>
  </structure>
  <varray name="forces" >
   <v>      -0.10307660       0.04809839       0.17482445 </v>
   <v>       0.57674717       0.03940926       0.36746500 </v>
   <v>      -0.66968675      -0.56363008       0.18188694 </v>
   <v>      -0.22972014       0.84397023      -1.33491495 </v>
   <v>      -0.71566411       1.85152966      -0.29778533 </v>
  </varray>
  <varray name="stress" >
   <v>      -2.75480756      -0.53435851      -0.24499707 </v>
   <v>      -0.53435851      -2.39030666       0.27956065 </v>
   <v>      -0.24499707       0.27956066      -2.47816902 </v>
  </varray>
  <energy>
   <i name="e_fr_energy">    -23.97037060 </i>
   <i name="e_wo_entrp">    -23.98144366 </i>
   <i name="e_0_energy">      0.03321916 </i>
   <i name="kinetic">      0.05465072 </i>
   <i name="lattice kinetic">      0.00000000 </i>
   <i name="nosepot">      0.00000000 </i>
   <i name="nosekinetic">      0.00009963 </i>
   <i name="total">    -23.91562025 </i>
  </energy>
  <dos>
   <i name="efermi">     -8.97173375 </i>
   <total>
    <array>
     <dimension dim="1">gridpoints</dimension>
     <dimension dim="2">spin</dimension>
     <field>energy</field>
     <field>total</field>
     <field>integrated</field>
     <set>
      <set comment="spin 1">
       <r>   -18.6964     0.0000     0.0000 </r>
       <r>   -18.6252     0.0000     0.0000 </r>
       <r>   -18.5540     0.0000     0.0000 </r>
       <r>   -18.4827     0.0000     0.0000 </r>
       <r>   -18.4115     0.0000     0.0000 </r>
       <r>   -18.3403    -0.0000    -0.0000 </r>
       <r>   -18.2690    -0.0000    -0.0000 </r>
       <r>   -18.1978    -0.0000    -0.0000 </r>
       <r>   -18.1266    -0.0000    -0.0000 </r>
       <r>   -18.0553    -0.0000    -0.0000 </r>
       <r>   -17.9841    -0.0000    -0.0000 </r>
       <r>   -17.9129    -0.0000    -0.0000 </r>
       <r>   -17.8417    -0.0000    -0.0000 </r>
       <r>   -17.7704    -0.0000    -0.0000 </r>
       <r>   -17.6992    -0.0000    -0.0000 </r>
       <r>   -17.6280    -0.0000    -0.0000 </r>
       <r>   -17.5567    -0.0000    -0.0000 </r>
       <r>   -17.4855    -0.0000    -0.0000 </r>
       <r>   -17.4143    -0.0001    -0.0000 </r>
       <r>   -17.3430    -0.0006    -0.0000 </r>
       <r>   -17.2718    -0.0045    -0.0004 </r>
       <r>   -17.2006    -0.0245    -0.0021 </r>
       <r>   -17.1293    -0.0976    -0.0091 </r>
       <r>   -17.0581    -0.2688    -0.0282 </r>
       <r>   -16.9869    -0.4382    -0.0594 </r>
       <r>   -16.9156    -0.0768    -0.0649 </r>
       <r>   -16.8444     1.6667     0.0538 </r>
       <r>   -16.7732     4.8636     0.4003 </r>
       <r>   -16.7020     7.7604     0.9530 </r>
       <r>   -16.6307     8.0155     1.5240 </r>
       <r>   -16.5595     5.4012     1.9087 </r>
       <r>   -16.4883     2.0914     2.0577 </r>
       <r>   -16.4170     0.0852     2.0638 </r>
       <r>   -16.3458    -0.4376     2.0326 </r>
       <r>   -16.2746    -0.3024     2.0111 </r>
       <r>   -16.2033    -0.1174     2.0027 </r>
       <r>   -16.1321    -0.0310     2.0005 </r>
       <r>   -16.0609    -0.0059     2.0001 </r>
       <r>   -15.9896    -0.0008     2.0000 </r>
       <r>   -15.9184    -0.0001     2.0000 </r>
       <r>   -15.8472    -0.0000     2.0000 </r>
       <r>   -15.7759    -0.0000     2.0000 </r>
       <r>   -15.7047    -0.0000     2.0000 </r>
       <r>   -15.6335    -0.0000     2.0000 </r>
       <r>   -15.5623    -0.0000     2.0000 </r>
       <r>   -15.4910    -0.0000     2.0000 </r>
       <r>   -15.4198    -0.0000     2.0000 </r>
       <r>   -15.3486     0.0000     2.0000 </r>
       <r>   -15.2773     0.0000     2.0000 </r>
       <r>   -15.2061     0.0000     2.0000 </r>
       <r>   -15.1349     0.0000     2.0000 </r>
       <r>   -15.0636     0.0000     2.0000 </r>
       <r>   -14.9924     0.0000     2.0000 </r>
       <r>   -14.9212     0.0000     2.0000 </r>
       <r>   -14.8499     0.0000     2.0000 </r>
       <r>   -14.7787     0.0000     2.0000 </r>
       <r>   -14.7075     0.0000     2.0000 </r>
       <r>   -14.6362     0.0000     2.0000 </r>
       <r>   -14.5650     0.0000     2.0000 </r>
       <r>   -14.4938     0.0000     2.0000 </r>
       <r>   -14.4226     0.0000     2.0000 </r>
       <r>   -14.3513     0.0000     2.0000 </r>
       <r>   -14.2801     0.0000     2.0000 </r>
       <r>   -14.2089     0.0000     2.0000 </r>
       <r>   -14.1376     0.0000     2.0000 </r>
       <r>   -14.0664     0.0000     2.0000 </r>
       <r>   -13.9952     0.0000     2.0000 </r>
       <r>   -13.9239     0.0000     2.0000 </r>
       <r>   -13.8527     0.0000     2.0000 </r>
       <r>   -13.7815     0.0000     2.0000 </r>
       <r>   -13.7102     0.0000     2.0000 </r>
       <r>   -13.6390     0.0000     2.0000 </r>
       <r>   -13.5678     0.0000     2.0000 </r>
       <r>   -13.4965     0.0000     2.0000 </r>
       <r>   -13.4253     0.0000     2.0000 </r>
       <r>   -13.3541     0.0000     2.0000 </r>
       <r>   -13.2829     0.0000     2.0000 </r>
       <r>   -13.2116     0.0000     2.0000 </r>
       <r>   -13.1404     0.0000     2.0000 </r>
       <r>   -13.0692     0.0000     2.0000 </r>
       <r>   -12.9979     0.0000     2.0000 </r>
       <r>   -12.9267     0.0000     2.0000 </r>
       <r>   -12.8555     0.0000     2.0000 </r>
       <r>   -12.7842     0.0000     2.0000 </r>
       <r>   -12.7130     0.0000     2.0000 </r>
       <r>   -12.6418     0.0000     2.0000 </r>
       <r>   -12.5705     0.0000     2.0000 </r>
       <r>   -12.4993     0.0000     2.0000 </r>
       <r>   -12.4281     0.0000     2.0000 </r>
       <r>   -12.3568     0.0000     2.0000 </r>
       <r>   -12.2856     0.0000     2.0000 </r>
       <r>   -12.2144     0.0000     2.0000 </r>
       <r>   -12.1432     0.0000     2.0000 </r>
       <r>   -12.0719     0.0000     2.0000 </r>
       <r>   -12.0007     0.0000     2.0000 </r>
       <r>   -11.9295     0.0000     2.0000 </r>
       <r>   -11.8582     0.0000     2.0000 </r>
       <r>   -11.7870     0.0000     2.0000 </r>
       <r>   -11.7158     0.0000     2.0000 </r>
       <r>   -11.6445     0.0000     2.0000 </r>
       <r>   -11.5733     0.0000     2.0000 </r>
       <r>   -11.5021     0.0000     2.0000 </r>
       <r>   -11.4308     0.0000     2.0000 </r>
       <r>   -11.3596     0.0000     2.0000 </r>
       <r>   -11.2884     0.0000     2.0000 </r>
       <r>   -11.2171     0.0000     2.0000 </r>
       <r>   -11.1459     0.0000     2.0000 </r>
       <r>   -11.0747     0.0000     2.0000 </r>
       <r>   -11.0035     0.0000     2.0000 </r>
       <r>   -10.9322    -0.0000     2.0000 </r>
       <r>   -10.8610    -0.0000     2.0000 </r>
       <r>   -10.7898    -0.0000     2.0000 </r>
       <r>   -10.7185    -0.0000     2.0000 </r>
       <r>   -10.6473    -0.0000     2.0000 </r>
       <r>   -10.5761    -0.0000     2.0000 </r>
       <r>   -10.5048    -0.0000     2.0000 </r>
       <r>   -10.4336    -0.0000     2.0000 </r>
       <r>   -10.3624    -0.0000     2.0000 </r>
       <r>   -10.2911    -0.0000     2.0000 </r>
       <r>   -10.2199    -0.0000     2.0000 </r>
       <r>   -10.1487    -0.0000     2.0000 </r>
       <r>   -10.0774    -0.0000     2.0000 </r>
       <r>   -10.0062    -0.0001     2.0000 </r>
       <r>    -9.9350    -0.0008     1.9999 </r>
       <r>    -9.8638    -0.0060     1.9995 </r>
       <r>    -9.7925    -0.0316     1.9973 </r>
       <r>    -9.7213    -0.1229     1.9885 </r>
       <r>    -9.6501    -0.3374     1.9645 </r>
       <r>    -9.5788    -0.5913     1.9224 </r>
       <r>    -9.5076    -0.3764     1.8955 </r>
       <r>    -9.4364     1.2361     1.9836 </r>
       <r>    -9.3651     4.9310     2.3348 </r>
       <r>    -9.2939    10.3910     3.0750 </r>
       <r>    -9.2227    16.1112     4.2226 </r>
       <r>    -9.1514    19.5213     5.6131 </r>
       <r>    -9.0802    18.1039     6.9027 </r>
       <r>    -9.0090    12.0423     7.7605 </r>
       <r>    -8.9377     4.9501     8.1131 </r>
       <r>    -8.8665     0.4466     8.1449 </r>
       <r>    -8.7953    -0.9170     8.0796 </r>
       <r>    -8.7240    -0.7136     8.0288 </r>
       <r>    -8.6528    -0.2990     8.0075 </r>
       <r>    -8.5816    -0.0846     8.0014 </r>
       <r>    -8.5104    -0.0172     8.0002 </r>
       <r>    -8.4391    -0.0026     8.0000 </r>
       <r>    -8.3679    -0.0003     8.0000 </r>
       <r>    -8.2967    -0.0000     8.0000 </r>
       <r>    -8.2254    -0.0000     8.0000 </r>
       <r>    -8.1542    -0.0000     8.0000 </r>
       <r>    -8.0830    -0.0000     8.0000 </r>
       <r>    -8.0117    -0.0000     8.0000 </r>
       <r>    -7.9405    -0.0000     8.0000 </r>
       <r>    -7.8693    -0.0000     8.0000 </r>
       <r>    -7.7980     0.0000     8.0000 </r>
       <r>    -7.7268     0.0000     8.0000 </r>
       <r>    -7.6556     0.0000     8.0000 </r>
       <r>    -7.5843     0.0000     8.0000 </r>
       <r>    -7.5131     0.0000     8.0000 </r>
       <r>    -7.4419     0.0000     8.0000 </r>
       <r>    -7.3707     0.0000     8.0000 </r>
       <r>    -7.2994     0.0000     8.0000 </r>
       <r>    -7.2282     0.0000     8.0000 </r>
       <r>    -7.1570     0.0000     8.0000 </r>
       <r>    -7.0857     0.0000     8.0000 </r>
       <r>    -7.0145     0.0000     8.0000 </r>
       <r>    -6.9433     0.0000     8.0000 </r>
       <r>    -6.8720     0.0000     8.0000 </r>
       <r>    -6.8008     0.0000     8.0000 </r>
       <r>    -6.7296     0.0000     8.0000 </r>
       <r>    -6.6583     0.0000     8.0000 </r>
       <r>    -6.5871     0.0000     8.0000 </r>
       <r>    -6.5159     0.0000     8.0000 </r>
       <r>    -6.4446     0.0000     8.0000 </r>
       <r>    -6.3734     0.0000     8.0000 </r>
       <r>    -6.3022     0.0000     8.0000 </r>
       <r>    -6.2310     0.0000     8.0000 </r>
       <r>    -6.1597     0.0000     8.0000 </r>
       <r>    -6.0885     0.0000     8.0000 </r>
       <r>    -6.0173     0.0000     8.0000 </r>
       <r>    -5.9460     0.0000     8.0000 </r>
       <r>    -5.8748     0.0000     8.0000 </r>
       <r>    -5.8036     0.0000     8.0000 </r>
       <r>    -5.7323     0.0000     8.0000 </r>
       <r>    -5.6611     0.0000     8.0000 </r>
       <r>    -5.5899     0.0000     8.0000 </r>
       <r>    -5.5186     0.0000     8.0000 </r>
       <r>    -5.4474     0.0000     8.0000 </r>
       <r>    -5.3762     0.0000     8.0000 </r>
       <r>    -5.3049     0.0000     8.0000 </r>
       <r>    -5.2337     0.0000     8.0000 </r>
       <r>    -5.1625     0.0000     8.0000 </r>
       <r>    -5.0913     0.0000     8.0000 </r>
       <r>    -5.0200     0.0000     8.0000 </r>
       <r>    -4.9488     0.0000     8.0000 </r>
       <r>    -4.8776     0.0000     8.0000 </r>
       <r>    -4.8063     0.0000     8.0000 </r>
       <r>    -4.7351     0.0000     8.0000 </r>
       <r>    -4.6639     0.0000     8.0000 </r>
       <r>    -4.5926     0.0000     8.0000 </r>
       <r>    -4.5214     0.0000     8.0000 </r>
       <r>    -4.4502     0.0000     8.0000 </r>
       <r>    -4.3789     0.0000     8.0000 </r>
       <r>    -4.3077     0.0000     8.0000 </r>
       <r>    -4.2365     0.0000     8.0000 </r>
       <r>    -4.1652     0.0000     8.0000 </r>
       <r>    -4.0940     0.0000     8.0000 </r>
       <r>    -4.0228     0.0000     8.0000 </r>
       <r>    -3.9516     0.0000     8.0000 </r>
       <r>    -3.8803     0.0000     8.0000 </r>
       <r>    -3.8091     0.0000     8.0000 </r>
       <r>    -3.7379     0.0000     8.0000 </r>
       <r>    -3.6666     0.0000     8.0000 </r>
       <r>    -3.5954     0.0000     8.0000 </r>
       <r>    -3.5242     0.0000     8.0000 </r>
       <r>    -3.4529     0.0000     8.0000 </r>
       <r>    -3.3817     0.0000     8.0000 </r>
       <r>    -3.3105     0.0000     8.0000 </r>
       <r>    -3.2392     0.0000     8.0000 </r>
       <r>    -3.1680     0.0000     8.0000 </r>
       <r>    -3.0968     0.0000     8.0000 </r>
       <r>    -3.0255     0.0000     8.0000 </r>
       <r>    -2.9543     0.0000     8.0000 </r>
       <r>    -2.8831     0.0000     8.0000 </r>
       <r>    -2.8119     0.0000     8.0000 </r>
       <r>    -2.7406     0.0000     8.0000 </r>
       <r>    -2.6694     0.0000     8.0000 </r>
       <r>    -2.5982     0.0000     8.0000 </r>
       <r>    -2.5269     0.0000     8.0000 </r>
       <r>    -2.4557     0.0000     8.0000 </r>
       <r>    -2.3845     0.0000     8.0000 </r>
       <r>    -2.3132     0.0000     8.0000 </r>
       <r>    -2.2420     0.0000     8.0000 </r>
       <r>    -2.1708     0.0000     8.0000 </r>
       <r>    -2.0995     0.0000     8.0000 </r>
       <r>    -2.0283    -0.0000     8.0000 </r>
       <r>    -1.9571    -0.0000     8.0000 </r>
       <r>    -1.8858    -0.0000     8.0000 </r>
       <r>    -1.8146    -0.0000     8.0000 </r>
       <r>    -1.7434    -0.0000     8.0000 </r>
       <r>    -1.6722    -0.0000     8.0000 </r>
       <r>    -1.6009    -0.0000     8.0000 </r>
       <r>    -1.5297    -0.0000     8.0000 </r>
       <r>    -1.4585    -0.0000     8.0000 </r>
       <r>    -1.3872    -0.0000     8.0000 </r>
       <r>    -1.3160    -0.0000     8.0000 </r>
       <r>    -1.2448    -0.0000     8.0000 </r>
       <r>    -1.1735    -0.0000     8.0000 </r>
       <r>    -1.1023    -0.0000     8.0000 </r>
       <r>    -1.0311    -0.0003     8.0000 </r>
       <r>    -0.9598    -0.0024     7.9998 </r>
       <r>    -0.8886    -0.0143     7.9988 </r>
       <r>    -0.8174    -0.0637     7.9943 </r>
       <r>    -0.7461    -0.2004     7.9800 </r>
       <r>    -0.6749    -0.4026     7.9513 </r>
       <r>    -0.6037    -0.3106     7.9292 </r>
       <r>    -0.5324     0.8894     7.9925 </r>
       <r>    -0.4612     3.6980     8.2559 </r>
       <r>    -0.3900     6.9830     8.7533 </r>
       <r>    -0.3188     8.3007     9.3446 </r>
       <r>    -0.2475     6.4910     9.8070 </r>
       <r>    -0.1763     3.1249    10.0296 </r>
       <r>    -0.1051     0.5671    10.0700 </r>
       <r>    -0.0338    -0.3893    10.0422 </r>
       <r>     0.0374    -0.4224    10.0121 </r>
       <r>     0.1086    -0.3512     9.9871 </r>
       <r>     0.1799    -0.5159     9.9504 </r>
       <r>     0.2511    -0.7518     9.8968 </r>
       <r>     0.3223    -0.2737     9.8773 </r>
       <r>     0.3936     2.2166    10.0352 </r>
       <r>     0.4648     7.5391    10.5722 </r>
       <r>     0.5360    14.6023    11.6124 </r>
       <r>     0.6073    20.0717    13.0421 </r>
       <r>     0.6785    20.3408    14.4910 </r>
       <r>     0.7497    14.8536    15.5491 </r>
       <r>     0.8209     7.1205    16.0563 </r>
       <r>     0.8922     1.4404    16.1589 </r>
       <r>     0.9634    -0.7796    16.1033 </r>
       <r>     1.0346    -0.8602    16.0421 </r>
       <r>     1.1059    -0.4199    16.0121 </r>
       <r>     1.1771    -0.1341    16.0026 </r>
       <r>     1.2483    -0.0306    16.0004 </r>
       <r>     1.3196    -0.0051    16.0001 </r>
       <r>     1.3908    -0.0006    16.0000 </r>
       <r>     1.4620    -0.0001    16.0000 </r>
       <r>     1.5333    -0.0000    16.0000 </r>
       <r>     1.6045    -0.0000    16.0000 </r>
       <r>     1.6757    -0.0000    16.0000 </r>
       <r>     1.7470    -0.0000    16.0000 </r>
       <r>     1.8182    -0.0000    16.0000 </r>
       <r>     1.8894    -0.0000    16.0000 </r>
       <r>     1.9606    -0.0000    16.0000 </r>
       <r>     2.0319     0.0000    16.0000 </r>
       <r>     2.1031     0.0000    16.0000 </r>
       <r>     2.1743     0.0000    16.0000 </r>
       <r>     2.2456     0.0000    16.0000 </r>
       <r>     2.3168     0.0000    16.0000 </r>
       <r>     2.3880     0.0000    16.0000 </r>
       <r>     2.4593     0.0000    16.0000 </r>
       <r>     2.5305     0.0000    16.0000 </r>
       <r>     2.6017     0.0000    16.0000 </r>
       <r>     2.6730     0.0000    16.0000 </r>
      </set>
     </set>
    </array>
   </total>
  </dos>
  <time name="totalsc">   94.77   95.00</time>
 </calculation>
 <calculation>
  <scstep>
   <time name="dav">    2.41    2.42</time>
   <time name="total">    4.46    4.47</time>
   <energy>
    <i name="alphaZ">      0.22657014 </i>
    <i name="ewald">    133.99015224 </i>
    <i name="hartreedc">   -286.76660573 </i>
    <i name="XCdc">     24.70672503 </i>
    <i name="pawpsdc">    412.30565482 </i>
    <i name="pawaedc">   -413.07357021 </i>
    <i name="eentropy">      0.01232576 </i>
    <i name="bandstr">    -92.45442567 </i>
    <i name="atom">    197.04175453 </i>
    <i name="e_fr_energy">    -24.01141908 </i>
    <i name="e_wo_entrp">    -24.02374484 </i>
    <i name="e_0_energy">    -24.01552767 </i>
   </energy>
  </scstep>
  <scstep>
   <time name="diag">    0.48    0.48</time>
   <time name="diis">    1.62    1.63</time>
   <time name="orth">    0.01    0.01</time>
   <time name="total">    4.03    4.04</time>
   <energy>
    <i name="e_fr_energy">    -24.00140339 </i>
    <i name="e_wo_entrp">    -24.02521380 </i>
    <i name="e_0_energy">    -24.00934019 </i>
   </energy>
  </scstep>
  <scstep>
   <time name="diag">    0.47    0.47</time>
   <time name="diis">    1.67    1.68</time>
   <time name="orth">    0.01    0.01</time>
   <time name="total">    4.09    4.10</time>
   <energy>
    <i name="e_fr_energy">    -23.99715691 </i>
    <i name="e_wo_entrp">    -24.02419884 </i>
    <i name="e_0_energy">    -24.00617089 </i>
   </energy>
  </scstep>
  <scstep>
   <time name="diag">    0.49    0.49</time>
   <time name="diis">    1.69    1.69</time>
   <time name="orth">    0.01    0.01</time>
   <time name="total">    4.11    4.12</time>
   <energy>
    <i name="e_fr_energy">    -23.98369986 </i>
    <i name="e_wo_entrp">    -24.01160566 </i>
    <i name="e_0_energy">    -23.99300179 </i>
   </energy>
  </scstep>
  <scstep>
   <time name="diag">    0.50    0.50</time>
   <time name="diis">    1.63    1.64</time>
   <time name="orth">    0.01    0.01</time>
   <time name="total">    4.08    4.09</time>
   <energy>
    <i name="e_fr_energy">    -23.98137948 </i>
    <i name="e_wo_entrp">    -24.00879560 </i>
    <i name="e_0_energy">    -23.99051818 </i>
   </energy>
  </scstep>
  <scstep>
   <time name="diag">    0.49    0.49</time>
   <time name="diis">    1.63    1.64</time>
   <time name="orth">    0.01    0.01</time>
   <time name="total">    4.10    4.11</time>
   <energy>
    <i name="e_fr_energy">    -23.98164148 </i>
    <i name="e_wo_entrp">    -24.00942508 </i>
    <i name="e_0_energy">    -23.99090268 </i>
   </energy>
  </scstep>
  <scstep>
   <time name="diag">    0.47    0.48</time>
   <time name="diis">    1.61    1.61</time>
   <time name="orth">    0.01    0.01</time>
   <time name="total">    4.06    4.07</time>
   <energy>
    <i name="e_fr_energy">    -23.98211430 </i>
    <i name="e_wo_entrp">    -24.00987697 </i>
    <i name="e_0_energy">    -23.99136853 </i>
   </energy>
  </scstep>
  <scstep>
   <time name="diag">    0.47    0.47</time>
   <time name="diis">    1.67    1.68</time>
   <time name="orth">    0.01    0.01</time>
   <time name="total">    4.13    4.14</time>
   <energy>
    <i name="e_fr_energy">    -23.98208068 </i>
    <i name="e_wo_entrp">    -24.00971165 </i>
    <i name="e_0_energy">    -23.99129101 </i>
   </energy>
  </scstep>
  <scstep>
   <time name="diag">    0.49    0.49</time>
   <time name="diis">    1.66    1.66</time>
   <time name="orth">    0.01    0.01</time>
   <time name="total">    4.14    4.15</time>
   <energy>
    <i name="e_fr_energy">    -23.98211796 </i>
    <i name="e_wo_entrp">    -24.00972930 </i>
    <i name="e_0_energy">    -23.99132174 </i>
   </energy>
  </scstep>
  <scstep>
   <time name="diag">    0.50    0.50</time>
   <time name="diis">    1.64    1.64</time>
   <time name="orth">    0.01    0.01</time>
   <time name="total">    4.16    4.17</time>
   <energy>
    <i name="e_fr_energy">    -23.98216325 </i>
    <i name="e_wo_entrp">    -24.00968222 </i>
    <i name="e_0_energy">    -23.99133624 </i>
   </energy>
  </scstep>
  <scstep>
   <time name="diag">    0.50    0.50</time>
   <time name="diis">    1.49    1.49</time>
   <time name="orth">    0.01    0.01</time>
   <time name="total">    4.04    4.05</time>
   <energy>
    <i name="e_fr_energy">    -23.98217157 </i>
    <i name="e_wo_entrp">    -24.00966710 </i>
    <i name="e_0_energy">    -23.99133674 </i>
   </energy>
  </scstep>
  <scstep>
   <time name="diag">    0.50    0.50</time>
   <time name="diis">    1.48    1.48</time>
   <time name="orth">    0.01    0.01</time>
   <time name="total">    4.07    4.08</time>
   <energy>
    <i name="e_fr_energy">    -23.98218613 </i>
    <i name="e_wo_entrp">    -24.00961882 </i>
    <i name="e_0_energy">    -23.99133036 </i>
   </energy>
  </scstep>
  <scstep>
   <time name="diag">    0.47    0.48</time>
   <time name="diis">    1.21    1.22</time>
   <time name="orth">    0.01    0.01</time>
   <time name="total">    3.85    3.85</time>
   <energy>
    <i name="e_fr_energy">    -23.98218860 </i>
    <i name="e_wo_entrp">    -24.00959823 </i>
    <i name="e_0_energy">    -23.99132514 </i>
   </energy>
  </scstep>
  <scstep>
   <time name="diag">    0.48    0.48</time>
   <time name="diis">    1.22    1.22</time>
   <time name="orth">    0.01    0.01</time>
   <time name="total">    3.85    3.86</time>
   <energy>
    <i name="e_fr_energy">    -23.98219045 </i>
    <i name="e_wo_entrp">    -24.00955722 </i>
    <i name="e_0_energy">    -23.99131271 </i>
   </energy>
  </scstep>
  <scstep>
   <time name="diag">    0.47    0.47</time>
   <time name="diis">    1.25    1.26</time>
   <time name="orth">    0.01    0.01</time>
   <time name="total">    3.58    3.59</time>
   <energy>
    <i name="alphaZ">      0.22657014 </i>
    <i name="ewald">    133.99015224 </i>
    <i name="hartreedc">   -289.37440026 </i>
    <i name="XCdc">     24.85825727 </i>
    <i name="pawpsdc">    459.96551551 </i>
    <i name="pawaedc">   -460.76365461 </i>
    <i name="eentropy">      0.02736089 </i>
    <i name="bandstr">    -89.95374661 </i>
    <i name="atom">    197.04175453 </i>
    <i name="e_fr_energy">    -23.98219089 </i>
    <i name="e_wo_entrp">    -24.00955178 </i>
    <i name="e_0_energy">    -23.99131119 </i>
   </energy>
  </scstep>
  <structure>
   <crystal>
    <varray name="basis" >
     <v>      10.22942184       0.00000000       0.00000000 </v>
     <v>       0.21949315      10.18907940       0.00000000 </v>
     <v>      -0.21708270      -0.16419783      10.25832618 </v>
    </varray>
    <i name="volume">   1069.20883514 </i>
    <varray name="rec_basis" >
     <v>       0.09775724      -0.00210589       0.00203499 </v>
     <v>      -0.00000000       0.09814429       0.00157093 </v>
     <v>       0.00000000       0.00000000       0.09748179 </v>
    </varray>
   </crystal>
   <varray name="positions" >
    <v>       0.54005032       0.40759530       0.36131570 </v>
    <v>       0.39935354       0.47854159       0.43988849 </v>
    <v>       0.54958290       0.56406330       0.44328116 </v>
    <v>       0.52652709       0.41763818       0.53328157 </v>
    <v>       0.50275798       0.46746231       0.44540408 </v>
   </varray>
  </structure>
  <varray name="forces" >
   <v>       0.11861059       0.09509094       0.06775734 </v>
   <v>      -0.33192938       0.34045681       0.04610096 </v>
   <v>       0.08331446       0.27312829      -0.33703645 </v>
   <v>       0.58656676      -0.68160449       1.02005810 </v>
   <v>      -0.01306354       1.91752218      -1.43506829 </v>
  </varray>
  <varray name="stress" >
   <v>      -0.16330276      -1.07779089       0.87065814 </v>
   <v>      -1.07779089      -0.19864380      -1.19881762 </v>
   <v>       0.87065815      -1.19881763      -0.19028064 </v>
  </varray>
  <energy>
   <i name="e_fr_energy">    -23.98219089 </i>
   <i name="e_wo_entrp">    -23.99131119 </i>
   <i name="e_0_energy">      0.02736089 </i>
   <i name="kinetic">      0.07049943 </i>
   <i name="lattice kinetic">      0.00000000 </i>
   <i name="nosepot">      0.00070816 </i>
   <i name="nosekinetic">      0.00126375 </i>
   <i name="total">    -23.90971955 </i>
  </energy>
  <dos>
   <i name="efermi">     -9.04107586 </i>
   <total>
    <array>
     <dimension dim="1">gridpoints</dimension>
     <dimension dim="2">spin</dimension>
     <field>energy</field>
     <field>total</field>
     <field>integrated</field>
     <set>
      <set comment="spin 1">
       <r>   -18.9790     0.0000     0.0000 </r>
       <r>   -18.9068     0.0000     0.0000 </r>
       <r>   -18.8346     0.0000     0.0000 </r>
       <r>   -18.7623     0.0000     0.0000 </r>
       <r>   -18.6901     0.0000     0.0000 </r>
       <r>   -18.6179    -0.0000    -0.0000 </r>
       <r>   -18.5457    -0.0000    -0.0000 </r>
       <r>   -18.4734    -0.0000    -0.0000 </r>
       <r>   -18.4012    -0.0000    -0.0000 </r>
       <r>   -18.3290    -0.0000    -0.0000 </r>
       <r>   -18.2568    -0.0000    -0.0000 </r>
       <r>   -18.1845    -0.0000    -0.0000 </r>
       <r>   -18.1123    -0.0000    -0.0000 </r>
       <r>   -18.0401    -0.0000    -0.0000 </r>
       <r>   -17.9679    -0.0000    -0.0000 </r>
       <r>   -17.8956    -0.0000    -0.0000 </r>
       <r>   -17.8234    -0.0000    -0.0000 </r>
       <r>   -17.7512    -0.0000    -0.0000 </r>
       <r>   -17.6790    -0.0001    -0.0000 </r>
       <r>   -17.6067    -0.0010    -0.0001 </r>
       <r>   -17.5345    -0.0073    -0.0006 </r>
       <r>   -17.4623    -0.0377    -0.0033 </r>
       <r>   -17.3901    -0.1382    -0.0133 </r>
       <r>   -17.3178    -0.3363    -0.0376 </r>
       <r>   -17.2456    -0.4182    -0.0678 </r>
       <r>   -17.1734     0.3309    -0.0439 </r>
       <r>   -17.1012     2.6910     0.1505 </r>
       <r>   -17.0289     6.1102     0.5918 </r>
       <r>   -16.9567     8.2476     1.1875 </r>
       <r>   -16.8845     7.2268     1.7094 </r>
       <r>   -16.8123     3.9732     1.9964 </r>
       <r>   -16.7400     1.0280     2.0706 </r>
       <r>   -16.6678    -0.2829     2.0502 </r>
       <r>   -16.5956    -0.4084     2.0207 </r>
       <r>   -16.5234    -0.2052     2.0059 </r>
       <r>   -16.4511    -0.0647     2.0012 </r>
       <r>   -16.3789    -0.0142     2.0002 </r>
       <r>   -16.3067    -0.0023     2.0000 </r>
       <r>   -16.2345    -0.0003     2.0000 </r>
       <r>   -16.1622    -0.0000     2.0000 </r>
       <r>   -16.0900    -0.0000     2.0000 </r>
       <r>   -16.0178    -0.0000     2.0000 </r>
       <r>   -15.9456    -0.0000     2.0000 </r>
       <r>   -15.8733    -0.0000     2.0000 </r>
       <r>   -15.8011    -0.0000     2.0000 </r>
       <r>   -15.7289    -0.0000     2.0000 </r>
       <r>   -15.6566     0.0000     2.0000 </r>
       <r>   -15.5844     0.0000     2.0000 </r>
       <r>   -15.5122     0.0000     2.0000 </r>
       <r>   -15.4400     0.0000     2.0000 </r>
       <r>   -15.3677     0.0000     2.0000 </r>
       <r>   -15.2955     0.0000     2.0000 </r>
       <r>   -15.2233     0.0000     2.0000 </r>
       <r>   -15.1511     0.0000     2.0000 </r>
       <r>   -15.0788     0.0000     2.0000 </r>
       <r>   -15.0066     0.0000     2.0000 </r>
       <r>   -14.9344     0.0000     2.0000 </r>
       <r>   -14.8622     0.0000     2.0000 </r>
       <r>   -14.7899     0.0000     2.0000 </r>
       <r>   -14.7177     0.0000     2.0000 </r>
       <r>   -14.6455     0.0000     2.0000 </r>
       <r>   -14.5733     0.0000     2.0000 </r>
       <r>   -14.5010     0.0000     2.0000 </r>
       <r>   -14.4288     0.0000     2.0000 </r>
       <r>   -14.3566     0.0000     2.0000 </r>
       <r>   -14.2844     0.0000     2.0000 </r>
       <r>   -14.2121     0.0000     2.0000 </r>
       <r>   -14.1399     0.0000     2.0000 </r>
       <r>   -14.0677     0.0000     2.0000 </r>
       <r>   -13.9955     0.0000     2.0000 </r>
       <r>   -13.9232     0.0000     2.0000 </r>
       <r>   -13.8510     0.0000     2.0000 </r>
       <r>   -13.7788     0.0000     2.0000 </r>
       <r>   -13.7066     0.0000     2.0000 </r>
       <r>   -13.6343     0.0000     2.0000 </r>
       <r>   -13.5621     0.0000     2.0000 </r>
       <r>   -13.4899     0.0000     2.0000 </r>
       <r>   -13.4177     0.0000     2.0000 </r>
       <r>   -13.3454     0.0000     2.0000 </r>
       <r>   -13.2732     0.0000     2.0000 </r>
       <r>   -13.2010     0.0000     2.0000 </r>
       <r>   -13.1288     0.0000     2.0000 </r>
       <r>   -13.0565     0.0000     2.0000 </r>
       <r>   -12.9843     0.0000     2.0000 </r>
       <r>   -12.9121     0.0000     2.0000 </r>
       <r>   -12.8399     0.0000     2.0000 </r>
       <r>   -12.7676     0.0000     2.0000 </r>
       <r>   -12.6954     0.0000     2.0000 </r>
       <r>   -12.6232     0.0000     2.0000 </r>
       <r>   -12.5509     0.0000     2.0000 </r>
       <r>   -12.4787     0.0000     2.0000 </r>
       <r>   -12.4065     0.0000     2.0000 </r>
       <r>   -12.3343     0.0000     2.0000 </r>
       <r>   -12.2620     0.0000     2.0000 </r>
       <r>   -12.1898     0.0000     2.0000 </r>
       <r>   -12.1176     0.0000     2.0000 </r>
       <r>   -12.0454     0.0000     2.0000 </r>
       <r>   -11.9731     0.0000     2.0000 </r>
       <r>   -11.9009     0.0000     2.0000 </r>
       <r>   -11.8287     0.0000     2.0000 </r>
       <r>   -11.7565     0.0000     2.0000 </r>
       <r>   -11.6842     0.0000     2.0000 </r>
       <r>   -11.6120     0.0000     2.0000 </r>
       <r>   -11.5398     0.0000     2.0000 </r>
       <r>   -11.4676     0.0000     2.0000 </r>
       <r>   -11.3953     0.0000     2.0000 </r>
       <r>   -11.3231     0.0000     2.0000 </r>
       <r>   -11.2509     0.0000     2.0000 </r>
       <r>   -11.1787     0.0000     2.0000 </r>
       <r>   -11.1064    -0.0000     2.0000 </r>
       <r>   -11.0342    -0.0000     2.0000 </r>
       <r>   -10.9620    -0.0000     2.0000 </r>
       <r>   -10.8898    -0.0000     2.0000 </r>
       <r>   -10.8175    -0.0000     2.0000 </r>
       <r>   -10.7453    -0.0000     2.0000 </r>
       <r>   -10.6731    -0.0000     2.0000 </r>
       <r>   -10.6009    -0.0000     2.0000 </r>
       <r>   -10.5286    -0.0000     2.0000 </r>
       <r>   -10.4564    -0.0000     2.0000 </r>
       <r>   -10.3842    -0.0000     2.0000 </r>
       <r>   -10.3120    -0.0000     2.0000 </r>
       <r>   -10.2397    -0.0000     2.0000 </r>
       <r>   -10.1675    -0.0004     2.0000 </r>
       <r>   -10.0953    -0.0029     1.9998 </r>
       <r>   -10.0231    -0.0176     1.9985 </r>
       <r>    -9.9508    -0.0768     1.9929 </r>
       <r>    -9.8786    -0.2349     1.9760 </r>
       <r>    -9.8064    -0.4521     1.9433 </r>
       <r>    -9.7341    -0.3162     1.9205 </r>
       <r>    -9.6619     0.9867     1.9917 </r>
       <r>    -9.5897     3.8238     2.2679 </r>
       <r>    -9.5175     7.1944     2.7875 </r>
       <r>    -9.4452     9.6994     3.4881 </r>
       <r>    -9.3730    11.4175     4.3127 </r>
       <r>    -9.3008    13.1824     5.2648 </r>
       <r>    -9.2286    14.2281     6.2924 </r>
       <r>    -9.1563    12.6731     7.2078 </r>
       <r>    -9.0841     8.3627     7.8118 </r>
       <r>    -9.0119     3.5306     8.0668 </r>
       <r>    -8.9397     0.4325     8.0980 </r>
       <r>    -8.8674    -0.5754     8.0564 </r>
       <r>    -8.7952    -0.4881     8.0212 </r>
       <r>    -8.7230    -0.2147     8.0057 </r>
       <r>    -8.6508    -0.0632     8.0011 </r>
       <r>    -8.5785    -0.0133     8.0002 </r>
       <r>    -8.5063    -0.0021     8.0000 </r>
       <r>    -8.4341    -0.0002     8.0000 </r>
       <r>    -8.3619    -0.0000     8.0000 </r>
       <r>    -8.2896    -0.0000     8.0000 </r>
       <r>    -8.2174    -0.0000     8.0000 </r>
       <r>    -8.1452    -0.0000     8.0000 </r>
       <r>    -8.0730    -0.0000     8.0000 </r>
       <r>    -8.0007    -0.0000     8.0000 </r>
       <r>    -7.9285    -0.0000     8.0000 </r>
       <r>    -7.8563     0.0000     8.0000 </r>
       <r>    -7.7841     0.0000     8.0000 </r>
       <r>    -7.7118     0.0000     8.0000 </r>
       <r>    -7.6396     0.0000     8.0000 </r>
       <r>    -7.5674     0.0000     8.0000 </r>
       <r>    -7.4952     0.0000     8.0000 </r>
       <r>    -7.4229     0.0000     8.0000 </r>
       <r>    -7.3507     0.0000     8.0000 </r>
       <r>    -7.2785     0.0000     8.0000 </r>
       <r>    -7.2063     0.0000     8.0000 </r>
       <r>    -7.1340     0.0000     8.0000 </r>
       <r>    -7.0618     0.0000     8.0000 </r>
       <r>    -6.9896     0.0000     8.0000 </r>
       <r>    -6.9174     0.0000     8.0000 </r>
       <r>    -6.8451     0.0000     8.0000 </r>
       <r>    -6.7729     0.0000     8.0000 </r>
       <r>    -6.7007     0.0000     8.0000 </r>
       <r>    -6.6284     0.0000     8.0000 </r>
       <r>    -6.5562     0.0000     8.0000 </r>
       <r>    -6.4840     0.0000     8.0000 </r>
       <r>    -6.4118     0.0000     8.0000 </r>
       <r>    -6.3395     0.0000     8.0000 </r>
       <r>    -6.2673     0.0000     8.0000 </r>
       <r>    -6.1951     0.0000     8.0000 </r>
       <r>    -6.1229     0.0000     8.0000 </r>
       <r>    -6.0506     0.0000     8.0000 </r>
       <r>    -5.9784     0.0000     8.0000 </r>
       <r>    -5.9062     0.0000     8.0000 </r>
       <r>    -5.8340     0.0000     8.0000 </r>
       <r>    -5.7617     0.0000     8.0000 </r>
       <r>    -5.6895     0.0000     8.0000 </r>
       <r>    -5.6173     0.0000     8.0000 </r>
       <r>    -5.5451     0.0000     8.0000 </r>
       <r>    -5.4728     0.0000     8.0000 </r>
       <r>    -5.4006     0.0000     8.0000 </r>
       <r>    -5.3284     0.0000     8.0000 </r>
       <r>    -5.2562     0.0000     8.0000 </r>
       <r>    -5.1839     0.0000     8.0000 </r>
       <r>    -5.1117     0.0000     8.0000 </r>
       <r>    -5.0395     0.0000     8.0000 </r>
       <r>    -4.9673     0.0000     8.0000 </r>
       <r>    -4.8950     0.0000     8.0000 </r>
       <r>    -4.8228     0.0000     8.0000 </r>
       <r>    -4.7506     0.0000     8.0000 </r>
       <r>    -4.6784     0.0000     8.0000 </r>
       <r>    -4.6061     0.0000     8.0000 </r>
       <r>    -4.5339     0.0000     8.0000 </r>
       <r>    -4.4617     0.0000     8.0000 </r>
       <r>    -4.3895     0.0000     8.0000 </r>
       <r>    -4.3172     0.0000     8.0000 </r>
       <r>    -4.2450     0.0000     8.0000 </r>
       <r>    -4.1728     0.0000     8.0000 </r>
       <r>    -4.1006     0.0000     8.0000 </r>
       <r>    -4.0283     0.0000     8.0000 </r>
       <r>    -3.9561     0.0000     8.0000 </r>
       <r>    -3.8839     0.0000     8.0000 </r>
       <r>    -3.8117     0.0000     8.0000 </r>
       <r>    -3.7394     0.0000     8.0000 </r>
       <r>    -3.6672     0.0000     8.0000 </r>
       <r>    -3.5950     0.0000     8.0000 </r>
       <r>    -3.5227     0.0000     8.0000 </r>
       <r>    -3.4505     0.0000     8.0000 </r>
       <r>    -3.3783     0.0000     8.0000 </r>
       <r>    -3.3061     0.0000     8.0000 </r>
       <r>    -3.2338     0.0000     8.0000 </r>
       <r>    -3.1616     0.0000     8.0000 </r>
       <r>    -3.0894     0.0000     8.0000 </r>
       <r>    -3.0172     0.0000     8.0000 </r>
       <r>    -2.9449     0.0000     8.0000 </r>
       <r>    -2.8727     0.0000     8.0000 </r>
       <r>    -2.8005     0.0000     8.0000 </r>
       <r>    -2.7283     0.0000     8.0000 </r>
       <r>    -2.6560     0.0000     8.0000 </r>
       <r>    -2.5838     0.0000     8.0000 </r>
       <r>    -2.5116     0.0000     8.0000 </r>
       <r>    -2.4394     0.0000     8.0000 </r>
       <r>    -2.3671     0.0000     8.0000 </r>
       <r>    -2.2949     0.0000     8.0000 </r>
       <r>    -2.2227     0.0000     8.0000 </r>
       <r>    -2.1505     0.0000     8.0000 </r>
       <r>    -2.0782     0.0000     8.0000 </r>
       <r>    -2.0060     0.0000     8.0000 </r>
       <r>    -1.9338    -0.0000     8.0000 </r>
       <r>    -1.8616    -0.0000     8.0000 </r>
       <r>    -1.7893    -0.0000     8.0000 </r>
       <r>    -1.7171    -0.0000     8.0000 </r>
       <r>    -1.6449    -0.0000     8.0000 </r>
       <r>    -1.5727    -0.0000     8.0000 </r>
       <r>    -1.5004    -0.0000     8.0000 </r>
       <r>    -1.4282    -0.0000     8.0000 </r>
       <r>    -1.3560    -0.0000     8.0000 </r>
       <r>    -1.2838    -0.0000     8.0000 </r>
       <r>    -1.2115    -0.0000     8.0000 </r>
       <r>    -1.1393    -0.0000     8.0000 </r>
       <r>    -1.0671    -0.0000     8.0000 </r>
       <r>    -0.9949    -0.0002     8.0000 </r>
       <r>    -0.9226    -0.0015     7.9999 </r>
       <r>    -0.8504    -0.0100     7.9992 </r>
       <r>    -0.7782    -0.0488     7.9956 </r>
       <r>    -0.7060    -0.1673     7.9835 </r>
       <r>    -0.6337    -0.3724     7.9566 </r>
       <r>    -0.5615    -0.3729     7.9297 </r>
       <r>    -0.4893     0.6226     7.9747 </r>
       <r>    -0.4170     3.2692     8.2108 </r>
       <r>    -0.3448     6.6592     8.6918 </r>
       <r>    -0.2726     8.3082     9.2918 </r>
       <r>    -0.2004     6.7425     9.7788 </r>
       <r>    -0.1281     3.3642    10.0218 </r>
       <r>    -0.0559     0.6712    10.0703 </r>
       <r>     0.0163    -0.3818    10.0427 </r>
       <r>     0.0885    -0.4631    10.0092 </r>
       <r>     0.1608    -0.4514     9.9766 </r>
       <r>     0.2330    -0.6719     9.9281 </r>
       <r>     0.3052    -0.7553     9.8736 </r>
       <r>     0.3774     0.4478     9.9059 </r>
       <r>     0.4497     4.3741    10.2218 </r>
       <r>     0.5219    11.1851    11.0297 </r>
       <r>     0.5941    18.3197    12.3528 </r>
       <r>     0.6663    21.4027    13.8986 </r>
       <r>     0.7386    17.9398    15.1944 </r>
       <r>     0.8108    10.1963    15.9308 </r>
       <r>     0.8830     3.1312    16.1569 </r>
       <r>     0.9552    -0.3712    16.1301 </r>
       <r>     1.0275    -0.9767    16.0596 </r>
       <r>     1.0997    -0.5662    16.0187 </r>
       <r>     1.1719    -0.1999    16.0043 </r>
       <r>     1.2441    -0.0490    16.0007 </r>
       <r>     1.3164    -0.0087    16.0001 </r>
       <r>     1.3886    -0.0012    16.0000 </r>
       <r>     1.4608    -0.0001    16.0000 </r>
       <r>     1.5330    -0.0000    16.0000 </r>
       <r>     1.6053    -0.0000    16.0000 </r>
       <r>     1.6775    -0.0000    16.0000 </r>
       <r>     1.7497    -0.0000    16.0000 </r>
       <r>     1.8219    -0.0000    16.0000 </r>
       <r>     1.8942    -0.0000    16.0000 </r>
       <r>     1.9664    -0.0000    16.0000 </r>
       <r>     2.0386     0.0000    16.0000 </r>
       <r>     2.1108     0.0000    16.0000 </r>
       <r>     2.1831     0.0000    16.0000 </r>
       <r>     2.2553     0.0000    16.0000 </r>
       <r>     2.3275     0.0000    16.0000 </r>
       <r>     2.3997     0.0000    16.0000 </r>
       <r>     2.4720     0.0000    16.0000 </r>
       <r>     2.5442     0.0000    16.0000 </r>
       <r>     2.6164     0.0000    16.0000 </r>
       <r>     2.6887     0.0000    16.0000 </r>
      </set>
     </set>
    </array>
   </total>
  </dos>
  <time name="totalsc">   69.21   69.39</time>
 </calculation>
 <calculation>
  <scstep>
   <time name="dav">    2.24    2.25</time>
   <time name="total">    4.29    4.30</time>
   <energy>
    <i name="alphaZ">      0.22657014 </i>
    <i name="ewald">    138.35378953 </i>
    <i name="hartreedc">   -293.11239081 </i>
    <i name="XCdc">     25.06011339 </i>
    <i name="pawpsdc">    484.43780864 </i>
    <i name="pawaedc">   -485.25123407 </i>
    <i name="eentropy">      0.01205553 </i>
    <i name="bandstr">    -90.65672388 </i>
    <i name="atom">    197.04175453 </i>
    <i name="e_fr_energy">    -23.88825701 </i>
    <i name="e_wo_entrp">    -23.90031254 </i>
    <i name="e_0_energy">    -23.89227552 </i>
   </energy>
  </scstep>
  <scstep>
   <time name="diag">    0.49    0.49</time>
   <time name="diis">    1.65    1.66</time>
   <time name="orth">    0.01    0.01</time>
   <time name="total">    4.05    4.06</time>
   <energy>
    <i name="e_fr_energy">    -23.87998750 </i>
    <i name="e_wo_entrp">    -23.89165802 </i>
    <i name="e_0_energy">    -23.88387767 </i>
   </energy>
  </scstep>
  <scstep>
   <time name="diag">    0.49    0.49</time>
   <time name="diis">    1.65    1.65</time>
   <time name="orth">    0.01    0.01</time>
   <time name="total">    4.18    4.19</time>
   <energy>
    <i name="e_fr_energy">    -23.87919448 </i>
    <i name="e_wo_entrp">    -23.89081712 </i>
    <i name="e_0_energy">    -23.88306869 </i>
   </energy>
  </scstep>
  <scstep>
   <time name="diag">    0.48    0.48</time>
   <time name="diis">    1.69    1.70</time>
   <time name="orth">    0.01    0.01</time>
   <time name="total">    4.18    4.19</time>
   <energy>
    <i name="e_fr_energy">    -23.87916522 </i>
    <i name="e_wo_entrp">    -23.89078199 </i>
    <i name="e_0_energy">    -23.88303748 </i>
   </energy>
  </scstep>
  <scstep>
   <time name="diag">    0.50    0.50</time>
   <time name="diis">    1.67    1.67</time>
   <time name="orth">    0.01    0.01</time>
   <time name="total">    4.21    4.22</time>
   <energy>
    <i name="e_fr_energy">    -23.87930183 </i>
    <i name="e_wo_entrp">    -23.89092798 </i>
    <i name="e_0_energy">    -23.88317721 </i>
   </energy>
  </scstep>
  <scstep>
   <time name="diag">    0.51    0.51</time>
   <time name="diis">    1.55    1.56</time>
   <time name="orth">    0.01    0.01</time>
   <time name="total">    4.10    4.11</time>
   <energy>
    <i name="e_fr_energy">    -23.87930166 </i>
    <i name="e_wo_entrp">    -23.89092757 </i>
    <i name="e_0_energy">    -23.88317696 </i>
   </energy>
  </scstep>
  <scstep>
   <time name="diag">    0.49    0.49</time>
   <time name="diis">    1.57    1.57</time>
   <time name="orth">    0.01    0.01</time>
   <time name="total">    4.14    4.15</time>
   <energy>
    <i name="e_fr_energy">    -23.87933463 </i>
    <i name="e_wo_entrp">    -23.89096051 </i>
    <i name="e_0_energy">    -23.88320993 </i>
   </energy>
  </scstep>
  <scstep>
   <time name="diag">    0.47    0.47</time>
   <time name="diis">    1.65    1.65</time>
   <time name="orth">    0.01    0.01</time>
   <time name="total">    4.20    4.21</time>
   <energy>
    <i name="e_fr_energy">    -23.87933103 </i>
    <i name="e_wo_entrp">    -23.89095452 </i>
    <i name="e_0_energy">    -23.88320553 </i>
   </energy>
  </scstep>
  <scstep>
   <time name="diag">    0.49    0.49</time>
   <time name="diis">    1.63    1.64</time>
   <time name="orth">    0.01    0.01</time>
   <time name="total">    4.20    4.21</time>
   <energy>
    <i name="e_fr_energy">    -23.87931775 </i>
    <i name="e_wo_entrp">    -23.89093852 </i>
    <i name="e_0_energy">    -23.88319134 </i>
   </energy>
  </scstep>
  <scstep>
   <time name="diag">    0.51    0.51</time>
   <time name="diis">    1.61    1.61</time>
   <time name="orth">    0.01    0.01</time>
   <time name="total">    4.22    4.23</time>
   <energy>
    <i name="e_fr_energy">    -23.87931892 </i>
    <i name="e_wo_entrp">    -23.89093824 </i>
    <i name="e_0_energy">    -23.88319203 </i>
   </energy>
  </scstep>
  <scstep>
   <time name="diag">    0.48    0.48</time>
   <time name="diis">    1.61    1.61</time>
   <time name="orth">    0.01    0.01</time>
   <time name="total">    4.23    4.24</time>
   <energy>
    <i name="e_fr_energy">    -23.87932724 </i>
    <i name="e_wo_entrp">    -23.89094547 </i>
    <i name="e_0_energy">    -23.88319998 </i>
   </energy>
  </scstep>
  <scstep>
   <time name="diag">    0.48    0.48</time>
   <time name="diis">    1.24    1.24</time>
   <time name="orth">    0.01    0.01</time>
   <time name="total">    3.89    3.90</time>
   <energy>
    <i name="e_fr_energy">    -23.87933132 </i>
    <i name="e_wo_entrp">    -23.89094949 </i>
    <i name="e_0_energy">    -23.88320404 </i>
   </energy>
  </scstep>
  <scstep>
   <time name="diag">    0.48    0.49</time>
   <time name="diis">    1.28    1.28</time>
   <time name="orth">    0.01    0.01</time>
   <time name="total">    3.96    3.97</time>
   <energy>
    <i name="e_fr_energy">    -23.87933383 </i>
    <i name="e_wo_entrp">    -23.89095218 </i>
    <i name="e_0_energy">    -23.88320661 </i>
   </energy>
  </scstep>
  <scstep>
   <time name="diag">    0.49    0.49</time>
   <time name="diis">    1.26    1.26</time>
   <time name="orth">    0.01    0.01</time>
   <time name="total">    3.58    3.59</time>
   <energy>
    <i name="alphaZ">      0.22657014 </i>
    <i name="ewald">    138.35378953 </i>
    <i name="hartreedc">   -293.06453574 </i>
    <i name="XCdc">     25.05347198 </i>
    <i name="pawpsdc">    481.78117528 </i>
    <i name="pawaedc">   -482.59588373 </i>
    <i name="eentropy">      0.01161837 </i>
    <i name="bandstr">    -90.68729478 </i>
    <i name="atom">    197.04175453 </i>
    <i name="e_fr_energy">    -23.87933441 </i>
    <i name="e_wo_entrp">    -23.89095278 </i>
    <i name="e_0_energy">    -23.88320720 </i>
   </energy>
  </scstep>
  <structure>
   <crystal>
    <varray name="basis" >
     <v>      10.22942184       0.00000000       0.00000000 </v>
     <v>       0.21949315      10.18907940       0.00000000 </v>
     <v>      -0.21708270      -0.16419783      10.25832618 </v>
    </varray>
    <i name="volume">   1069.20883514 </i>
    <varray name="rec_basis" >
     <v>       0.09775724      -0.00210589       0.00203499 </v>
     <v>      -0.00000000       0.09814429       0.00157093 </v>
     <v>       0.00000000       0.00000000       0.09748179 </v>
    </varray>
   </crystal>
   <varray name="positions" >
    <v>       0.54201771       0.40843580       0.36222639 </v>
    <v>       0.40281306       0.47832764       0.44171876 </v>
    <v>       0.54695474       0.56333461       0.44262477 </v>
    <v>       0.52666244       0.41650637       0.53127506 </v>
    <v>       0.50251370       0.46756504       0.44539758 </v>
   </varray>
  </structure>
  <varray name="forces" >
   <v>      -0.62359161       0.19803751       0.74676937 </v>
   <v>      -3.68608146       0.26362119      -0.29653458 </v>
   <v>       0.22616550       0.58382786       0.14994787 </v>
   <v>      -0.03219902      -0.14012492       1.49467812 </v>
   <v>       1.72254298       1.75718477      -2.18015597 </v>
  </varray>
  <varray name="stress" >
   <v>       3.37633357      -0.67300349       1.51054654 </v>
   <v>      -0.67300349       0.30762275      -0.91633424 </v>
   <v>       1.51054654      -0.91633425       0.06044720 </v>
  </varray>
  <energy>
   <i name="e_fr_energy">    -23.87933441 </i>
   <i name="e_wo_entrp">    -23.88320720 </i>
   <i name="e_0_energy">      0.01161837 </i>
   <i name="kinetic">      0.03870401 </i>
   <i name="lattice kinetic">      0.00000000 </i>
   <i name="nosepot">      0.00251246 </i>
   <i name="nosekinetic">      0.00303966 </i>
   <i name="total">    -23.83507828 </i>
  </energy>
  <dos>
   <i name="efermi">     -8.86719783 </i>
   <total>
    <array>
     <dimension dim="1">gridpoints</dimension>
     <dimension dim="2">spin</dimension>
     <field>energy</field>
     <field>total</field>
     <field>integrated</field>
     <set>
      <set comment="spin 1">
       <r>   -19.1363     0.0000     0.0000 </r>
       <r>   -19.0636     0.0000     0.0000 </r>
       <r>   -18.9908     0.0000     0.0000 </r>
       <r>   -18.9180     0.0000     0.0000 </r>
       <r>   -18.8452     0.0000     0.0000 </r>
       <r>   -18.7724    -0.0000    -0.0000 </r>
       <r>   -18.6997    -0.0000    -0.0000 </r>
       <r>   -18.6269    -0.0000    -0.0000 </r>
       <r>   -18.5541    -0.0000    -0.0000 </r>
       <r>   -18.4813    -0.0000    -0.0000 </r>
       <r>   -18.4086    -0.0000    -0.0000 </r>
       <r>   -18.3358    -0.0000    -0.0000 </r>
       <r>   -18.2630    -0.0000    -0.0000 </r>
       <r>   -18.1902    -0.0000    -0.0000 </r>
       <r>   -18.1174    -0.0000    -0.0000 </r>
       <r>   -18.0447    -0.0000    -0.0000 </r>
       <r>   -17.9719    -0.0000    -0.0000 </r>
       <r>   -17.8991    -0.0000    -0.0000 </r>
       <r>   -17.8263    -0.0002    -0.0000 </r>
       <r>   -17.7536    -0.0014    -0.0001 </r>
       <r>   -17.6808    -0.0096    -0.0008 </r>
       <r>   -17.6080    -0.0474    -0.0043 </r>
       <r>   -17.5352    -0.1652    -0.0163 </r>
       <r>   -17.4624    -0.3716    -0.0433 </r>
       <r>   -17.3897    -0.3721    -0.0704 </r>
       <r>   -17.3169     0.6412    -0.0237 </r>
       <r>   -17.2441     3.3302     0.2186 </r>
       <r>   -17.1713     6.7357     0.7088 </r>
       <r>   -17.0985     8.3087     1.3135 </r>
       <r>   -17.0258     6.6216     1.7954 </r>
       <r>   -16.9530     3.2006     2.0284 </r>
       <r>   -16.8802     0.5723     2.0700 </r>
       <r>   -16.8074    -0.3844     2.0420 </r>
       <r>   -16.7347    -0.3639     2.0156 </r>
       <r>   -16.6619    -0.1586     2.0040 </r>
       <r>   -16.5891    -0.0448     2.0008 </r>
       <r>   -16.5163    -0.0089     2.0001 </r>
       <r>   -16.4435    -0.0013     2.0000 </r>
       <r>   -16.3708    -0.0001     2.0000 </r>
       <r>   -16.2980    -0.0000     2.0000 </r>
       <r>   -16.2252    -0.0000     2.0000 </r>
       <r>   -16.1524    -0.0000     2.0000 </r>
       <r>   -16.0797    -0.0000     2.0000 </r>
       <r>   -16.0069    -0.0000     2.0000 </r>
       <r>   -15.9341    -0.0000     2.0000 </r>
       <r>   -15.8613    -0.0000     2.0000 </r>
       <r>   -15.7885     0.0000     2.0000 </r>
       <r>   -15.7158     0.0000     2.0000 </r>
       <r>   -15.6430     0.0000     2.0000 </r>
       <r>   -15.5702     0.0000     2.0000 </r>
       <r>   -15.4974     0.0000     2.0000 </r>
       <r>   -15.4246     0.0000     2.0000 </r>
       <r>   -15.3519     0.0000     2.0000 </r>
       <r>   -15.2791     0.0000     2.0000 </r>
       <r>   -15.2063     0.0000     2.0000 </r>
       <r>   -15.1335     0.0000     2.0000 </r>
       <r>   -15.0608     0.0000     2.0000 </r>
       <r>   -14.9880     0.0000     2.0000 </r>
       <r>   -14.9152     0.0000     2.0000 </r>
       <r>   -14.8424     0.0000     2.0000 </r>
       <r>   -14.7696     0.0000     2.0000 </r>
       <r>   -14.6969     0.0000     2.0000 </r>
       <r>   -14.6241     0.0000     2.0000 </r>
       <r>   -14.5513     0.0000     2.0000 </r>
       <r>   -14.4785     0.0000     2.0000 </r>
       <r>   -14.4057     0.0000     2.0000 </r>
       <r>   -14.3330     0.0000     2.0000 </r>
       <r>   -14.2602     0.0000     2.0000 </r>
       <r>   -14.1874     0.0000     2.0000 </r>
       <r>   -14.1146     0.0000     2.0000 </r>
       <r>   -14.0419     0.0000     2.0000 </r>
       <r>   -13.9691     0.0000     2.0000 </r>
       <r>   -13.8963     0.0000     2.0000 </r>
       <r>   -13.8235     0.0000     2.0000 </r>
       <r>   -13.7507     0.0000     2.0000 </r>
       <r>   -13.6780     0.0000     2.0000 </r>
       <r>   -13.6052     0.0000     2.0000 </r>
       <r>   -13.5324     0.0000     2.0000 </r>
       <r>   -13.4596     0.0000     2.0000 </r>
       <r>   -13.3869     0.0000     2.0000 </r>
       <r>   -13.3141     0.0000     2.0000 </r>
       <r>   -13.2413     0.0000     2.0000 </r>
       <r>   -13.1685     0.0000     2.0000 </r>
       <r>   -13.0957     0.0000     2.0000 </r>
       <r>   -13.0230     0.0000     2.0000 </r>
       <r>   -12.9502     0.0000     2.0000 </r>
       <r>   -12.8774     0.0000     2.0000 </r>
       <r>   -12.8046     0.0000     2.0000 </r>
       <r>   -12.7318     0.0000     2.0000 </r>
       <r>   -12.6591     0.0000     2.0000 </r>
       <r>   -12.5863     0.0000     2.0000 </r>
[...]
       <r>     0.2390    -0.7100     9.9011 </r>
       <r>     0.3102    -0.2325     9.8845 </r>
       <r>     0.3813     2.1332    10.0363 </r>
       <r>     0.4525     7.1673    10.5463 </r>
       <r>     0.5236    13.9853    11.5413 </r>
       <r>     0.5948    19.5970    12.9356 </r>
       <r>     0.6659    20.4101    14.3877 </r>
       <r>     0.7370    15.4128    15.4843 </r>
       <r>     0.8082     7.7289    16.0342 </r>
       <r>     0.8793     1.7712    16.1602 </r>
       <r>     0.9505    -0.7122    16.1095 </r>
       <r>     1.0216    -0.8946    16.0459 </r>
       <r>     1.0928    -0.4543    16.0135 </r>
       <r>     1.1639    -0.1489    16.0029 </r>
       <r>     1.2351    -0.0347    16.0005 </r>
       <r>     1.3062    -0.0059    16.0001 </r>
       <r>     1.3774    -0.0008    16.0000 </r>
       <r>     1.4485    -0.0001    16.0000 </r>
       <r>     1.5197    -0.0000    16.0000 </r>
       <r>     1.5908    -0.0000    16.0000 </r>
       <r>     1.6620    -0.0000    16.0000 </r>
       <r>     1.7331    -0.0000    16.0000 </r>
       <r>     1.8043    -0.0000    16.0000 </r>
       <r>     1.8754    -0.0000    16.0000 </r>
       <r>     1.9466    -0.0000    16.0000 </r>
       <r>     2.0177     0.0000    16.0000 </r>
       <r>     2.0889     0.0000    16.0000 </r>
       <r>     2.1600     0.0000    16.0000 </r>
       <r>     2.2311     0.0000    16.0000 </r>
       <r>     2.3023     0.0000    16.0000 </r>
       <r>     2.3734     0.0000    16.0000 </r>
       <r>     2.4446     0.0000    16.0000 </r>
       <r>     2.5157     0.0000    16.0000 </r>
       <r>     2.5869     0.0000    16.0000 </r>
       <r>     2.6580     0.0000    16.0000 </r>
      </set>
     </set>
    </array>
   </total>
  </dos>
  <time name="totalsc">  146.34  146.70</time>
  <eigenvalues>
   <array>
    <dimension dim="1">band</dimension>
    <dimension dim="2">kpoint</dimension>
    <dimension dim="3">spin</dimension>
    <field>eigene</field>
    <field>occ</field>
    <set>
     <set comment="spin 1">
      <set comment="kpoint 1">
       <r>  -16.6085    1.0000 </r>
       <r>   -9.3491    1.0000 </r>
       <r>   -9.1856    1.0004 </r>
       <r>   -8.8069    0.9996 </r>
       <r>   -0.3657    0.0000 </r>
       <r>    0.4548    0.0000 </r>
       <r>    0.6371    0.0000 </r>
       <r>    0.6609    0.0000 </r>
      </set>
      <set comment="kpoint 2">
       <r>  -16.6085    1.0000 </r>
       <r>   -9.3490    1.0000 </r>
       <r>   -9.1856    1.0004 </r>
       <r>   -8.8070    0.9996 </r>
       <r>   -0.3665    0.0000 </r>
       <r>    0.4721    0.0000 </r>
       <r>    0.6174    0.0000 </r>
       <r>    0.6560    0.0000 </r>
      </set>
      <set comment="kpoint 3">
       <r>  -16.6085    1.0000 </r>
       <r>   -9.3490    1.0000 </r>
       <r>   -9.1856    1.0004 </r>
       <r>   -8.8070    0.9996 </r>
       <r>   -0.3654    0.0000 </r>
       <r>    0.4622    0.0000 </r>
       <r>    0.6230    0.0000 </r>
       <r>    0.6567    0.0000 </r>
      </set>
      <set comment="kpoint 4">
       <r>  -16.6086    1.0000 </r>
       <r>   -9.3490    1.0000 </r>
       <r>   -9.1857    1.0004 </r>
       <r>   -8.8069    0.9996 </r>
       <r>   -0.3736    0.0000 </r>
       <r>    0.5019    0.0000 </r>
       <r>    0.6370    0.0000 </r>
       <r>    0.6551    0.0000 </r>
      </set>
     </set>
    </set>
   </array>
  </eigenvalues>
  <separator name="orbital magnetization" >
   <v name="MAGDIPOLOUT">      0.00000000      0.00000000      0.00000000</v>
  </separator>
  <dos>
   <i name="efermi">     -8.63892432 </i>
   <total>
    <array>
     <dimension dim="1">gridpoints</dimension>
     <dimension dim="2">spin</dimension>
     <field>energy</field>
     <field>total</field>
     <field>integrated</field>
     <set>
      <set comment="spin 1">
       <r>   -18.6086     0.0000     0.0000 </r>
       <r>   -18.5377     0.0000     0.0000 </r>
       <r>   -18.4668     0.0000     0.0000 </r>
       <r>   -18.3959     0.0000     0.0000 </r>
       <r>   -18.3250     0.0000     0.0000 </r>
       <r>   -18.2541    -0.0000    -0.0000 </r>
       <r>   -18.1832    -0.0000    -0.0000 </r>
       <r>   -18.1123    -0.0000    -0.0000 </r>
       <r>   -18.0414    -0.0000    -0.0000 </r>
       <r>   -17.9705    -0.0000    -0.0000 </r>
       <r>   -17.8996    -0.0000    -0.0000 </r>
       <r>   -17.8287    -0.0000    -0.0000 </r>
       <r>   -17.7578    -0.0000    -0.0000 </r>
       <r>   -17.6869    -0.0000    -0.0000 </r>
       <r>   -17.6160    -0.0000    -0.0000 </r>
       <r>   -17.5451    -0.0000    -0.0000 </r>
       <r>   -17.4742    -0.0000    -0.0000 </r>
       <r>   -17.4033    -0.0000    -0.0000 </r>
       <r>   -17.3324    -0.0001    -0.0000 </r>
       <r>   -17.2615    -0.0005    -0.0000 </r>
       <r>   -17.1906    -0.0038    -0.0003 </r>
       <r>   -17.1197    -0.0211    -0.0018 </r>
       <r>   -17.0488    -0.0862    -0.0079 </r>
       <r>   -16.9779    -0.2466    -0.0254 </r>
       <r>   -16.9070    -0.4314    -0.0560 </r>
       <r>   -16.8361    -0.1738    -0.0683 </r>
       <r>   -16.7652     1.3677     0.0287 </r>
       <r>   -16.6943     4.4316     0.3429 </r>
       <r>   -16.6234     7.4985     0.8745 </r>
       <r>   -16.5525     8.1753     1.4541 </r>
       <r>   -16.4816     5.8643     1.8699 </r>
       <r>   -16.4107     2.5112     2.0479 </r>
       <r>   -16.3398     0.2724     2.0672 </r>
       <r>   -16.2689    -0.4227     2.0373 </r>
       <r>   -16.1980    -0.3360     2.0134 </r>
       <r>   -16.1271    -0.1406     2.0035 </r>
       <r>   -16.0562    -0.0396     2.0007 </r>
       <r>   -15.9853    -0.0080     2.0001 </r>
       <r>   -15.9144    -0.0012     2.0000 </r>
       <r>   -15.8435    -0.0001     2.0000 </r>
       <r>   -15.7726    -0.0000     2.0000 </r>
       <r>   -15.7017    -0.0000     2.0000 </r>
       <r>   -15.6308    -0.0000     2.0000 </r>
       <r>   -15.5599    -0.0000     2.0000 </r>
       <r>   -15.4890    -0.0000     2.0000 </r>
       <r>   -15.4181    -0.0000     2.0000 </r>
       <r>   -15.3472    -0.0000     2.0000 </r>
       <r>   -15.2763     0.0000     2.0000 </r>
       <r>   -15.2054     0.0000     2.0000 </r>
       <r>   -15.1345     0.0000     2.0000 </r>
       <r>   -15.0636     0.0000     2.0000 </r>
       <r>   -14.9927     0.0000     2.0000 </r>
       <r>   -14.9218     0.0000     2.0000 </r>
       <r>   -14.8509     0.0000     2.0000 </r>
       <r>   -14.7800     0.0000     2.0000 </r>
       <r>   -14.7091     0.0000     2.0000 </r>
       <r>   -14.6383     0.0000     2.0000 </r>
       <r>   -14.5674     0.0000     2.0000 </r>
       <r>   -14.4965     0.0000     2.0000 </r>
       <r>   -14.4256     0.0000     2.0000 </r>
       <r>   -14.3547     0.0000     2.0000 </r>
       <r>   -14.2838     0.0000     2.0000 </r>
       <r>   -14.2129     0.0000     2.0000 </r>
       <r>   -14.1420     0.0000     2.0000 </r>
       <r>   -14.0711     0.0000     2.0000 </r>
       <r>   -14.0002     0.0000     2.0000 </r>
       <r>   -13.9293     0.0000     2.0000 </r>
       <r>   -13.8584     0.0000     2.0000 </r>
       <r>   -13.7875     0.0000     2.0000 </r>
       <r>   -13.7166     0.0000     2.0000 </r>
       <r>   -13.6457     0.0000     2.0000 </r>
       <r>   -13.5748     0.0000     2.0000 </r>
       <r>   -13.5039     0.0000     2.0000 </r>
       <r>   -13.4330     0.0000     2.0000 </r>
       <r>   -13.3621     0.0000     2.0000 </r>
       <r>   -13.2912     0.0000     2.0000 </r>
       <r>   -13.2203     0.0000     2.0000 </r>
       <r>   -13.1494     0.0000     2.0000 </r>
       <r>   -13.0785     0.0000     2.0000 </r>
       <r>   -13.0076     0.0000     2.0000 </r>
       <r>   -12.9367     0.0000     2.0000 </r>
       <r>   -12.8658     0.0000     2.0000 </r>
       <r>   -12.7949     0.0000     2.0000 </r>
       <r>   -12.7240     0.0000     2.0000 </r>
       <r>   -12.6531     0.0000     2.0000 </r>
       <r>   -12.5822     0.0000     2.0000 </r>
       <r>   -12.5113     0.0000     2.0000 </r>
       <r>   -12.4404     0.0000     2.0000 </r>
       <r>   -12.3695     0.0000     2.0000 </r>
       <r>   -12.2986     0.0000     2.0000 </r>
       <r>   -12.2277     0.0000     2.0000 </r>
       <r>   -12.1568     0.0000     2.0000 </r>
       <r>   -12.0859     0.0000     2.0000 </r>
       <r>   -12.0150     0.0000     2.0000 </r>
       <r>   -11.9441     0.0000     2.0000 </r>
       <r>   -11.8732     0.0000     2.0000 </r>
       <r>   -11.8023     0.0000     2.0000 </r>
       <r>   -11.7314     0.0000     2.0000 </r>
       <r>   -11.6605     0.0000     2.0000 </r>
       <r>   -11.5896     0.0000     2.0000 </r>
       <r>   -11.5187     0.0000     2.0000 </r>
       <r>   -11.4478     0.0000     2.0000 </r>
       <r>   -11.3769     0.0000     2.0000 </r>
       <r>   -11.3060     0.0000     2.0000 </r>
       <r>   -11.2351     0.0000     2.0000 </r>
       <r>   -11.1642     0.0000     2.0000 </r>
       <r>   -11.0933     0.0000     2.0000 </r>
       <r>   -11.0224     0.0000     2.0000 </r>
       <r>   -10.9515    -0.0000     2.0000 </r>
       <r>   -10.8806    -0.0000     2.0000 </r>
       <r>   -10.8097    -0.0000     2.0000 </r>
       <r>   -10.7388    -0.0000     2.0000 </r>
       <r>   -10.6679    -0.0000     2.0000 </r>
       <r>   -10.5970    -0.0000     2.0000 </r>
       <r>   -10.5261    -0.0000     2.0000 </r>
       <r>   -10.4552    -0.0000     2.0000 </r>
       <r>   -10.3843    -0.0000     2.0000 </r>
       <r>   -10.3135    -0.0000     2.0000 </r>
       <r>   -10.2426    -0.0000     2.0000 </r>
       <r>   -10.1717    -0.0000     2.0000 </r>
       <r>   -10.1008    -0.0000     2.0000 </r>
       <r>   -10.0299    -0.0002     2.0000 </r>
       <r>    -9.9590    -0.0018     1.9999 </r>
       <r>    -9.8881    -0.0112     1.9991 </r>
       <r>    -9.8172    -0.0525     1.9953 </r>
       <r>    -9.7463    -0.1777     1.9827 </r>
       <r>    -9.6754    -0.4071     1.9539 </r>
       <r>    -9.6045    -0.5031     1.9182 </r>
       <r>    -9.5336     0.2511     1.9360 </r>
       <r>    -9.4627     2.6639     2.1249 </r>
       <r>    -9.3918     6.5737     2.5910 </r>
       <r>    -9.3209    10.4445     3.3314 </r>
       <r>    -9.2500    12.4342     4.2130 </r>
       <r>    -9.1791    11.5872     5.0345 </r>
       <r>    -9.1082     8.2615     5.6203 </r>
       <r>    -9.0373     4.3422     5.9281 </r>
       <r>    -8.9664     2.5262     6.1072 </r>
       <r>    -8.8955     4.0123     6.3917 </r>
       <r>    -8.8246     6.9041     6.8812 </r>
       <r>    -8.7537     7.9237     7.4429 </r>
       <r>    -8.6828     5.8889     7.8605 </r>
       <r>    -8.6119     2.6046     8.0451 </r>
       <r>    -8.5410     0.3231     8.0680 </r>
       <r>    -8.4701    -0.4168     8.0385 </r>
       <r>    -8.3992    -0.3442     8.0141 </r>
       <r>    -8.3283    -0.1466     8.0037 </r>
       <r>    -8.2574    -0.0419     8.0007 </r>
       <r>    -8.1865    -0.0086     8.0001 </r>
       <r>    -8.1156    -0.0013     8.0000 </r>
       <r>    -8.0447    -0.0001     8.0000 </r>
       <r>    -7.9738    -0.0000     8.0000 </r>
       <r>    -7.9029    -0.0000     8.0000 </r>
       <r>    -7.8320    -0.0000     8.0000 </r>
       <r>    -7.7611    -0.0000     8.0000 </r>
       <r>    -7.6902    -0.0000     8.0000 </r>
       <r>    -7.6193    -0.0000     8.0000 </r>
       <r>    -7.5484    -0.0000     8.0000 </r>
       <r>    -7.4775     0.0000     8.0000 </r>
       <r>    -7.4066     0.0000     8.0000 </r>
       <r>    -7.3357     0.0000     8.0000 </r>
       <r>    -7.2648     0.0000     8.0000 </r>
       <r>    -7.1939     0.0000     8.0000 </r>
       <r>    -7.1230     0.0000     8.0000 </r>
       <r>    -7.0521     0.0000     8.0000 </r>
       <r>    -6.9812     0.0000     8.0000 </r>
       <r>    -6.9103     0.0000     8.0000 </r>
       <r>    -6.8394     0.0000     8.0000 </r>
       <r>    -6.7685     0.0000     8.0000 </r>
       <r>    -6.6976     0.0000     8.0000 </r>
       <r>    -6.6267     0.0000     8.0000 </r>
       <r>    -6.5558     0.0000     8.0000 </r>
       <r>    -6.4849     0.0000     8.0000 </r>
       <r>    -6.4140     0.0000     8.0000 </r>
       <r>    -6.3431     0.0000     8.0000 </r>
       <r>    -6.2722     0.0000     8.0000 </r>
       <r>    -6.2013     0.0000     8.0000 </r>
       <r>    -6.1304     0.0000     8.0000 </r>
       <r>    -6.0596     0.0000     8.0000 </r>
       <r>    -5.9887     0.0000     8.0000 </r>
       <r>    -5.9178     0.0000     8.0000 </r>
       <r>    -5.8469     0.0000     8.0000 </r>
       <r>    -5.7760     0.0000     8.0000 </r>
       <r>    -5.7051     0.0000     8.0000 </r>
       <r>    -5.6342     0.0000     8.0000 </r>
       <r>    -5.5633     0.0000     8.0000 </r>
       <r>    -5.4924     0.0000     8.0000 </r>
       <r>    -5.4215     0.0000     8.0000 </r>
       <r>    -5.3506     0.0000     8.0000 </r>
       <r>    -5.2797     0.0000     8.0000 </r>
       <r>    -5.2088     0.0000     8.0000 </r>
       <r>    -5.1379     0.0000     8.0000 </r>
       <r>    -5.0670     0.0000     8.0000 </r>
       <r>    -4.9961     0.0000     8.0000 </r>
       <r>    -4.9252     0.0000     8.0000 </r>
       <r>    -4.8543     0.0000     8.0000 </r>
       <r>    -4.7834     0.0000     8.0000 </r>
       <r>    -4.7125     0.0000     8.0000 </r>
       <r>    -4.6416     0.0000     8.0000 </r>
       <r>    -4.5707     0.0000     8.0000 </r>
       <r>    -4.4998     0.0000     8.0000 </r>
       <r>    -4.4289     0.0000     8.0000 </r>
       <r>    -4.3580     0.0000     8.0000 </r>
       <r>    -4.2871     0.0000     8.0000 </r>
       <r>    -4.2162     0.0000     8.0000 </r>
       <r>    -4.1453     0.0000     8.0000 </r>
       <r>    -4.0744     0.0000     8.0000 </r>
       <r>    -4.0035     0.0000     8.0000 </r>
       <r>    -3.9326     0.0000     8.0000 </r>
       <r>    -3.8617     0.0000     8.0000 </r>
       <r>    -3.7908     0.0000     8.0000 </r>
       <r>    -3.7199     0.0000     8.0000 </r>
       <r>    -3.6490     0.0000     8.0000 </r>
       <r>    -3.5781     0.0000     8.0000 </r>
       <r>    -3.5072     0.0000     8.0000 </r>
       <r>    -3.4363     0.0000     8.0000 </r>
       <r>    -3.3654     0.0000     8.0000 </r>
       <r>    -3.2945     0.0000     8.0000 </r>
       <r>    -3.2236     0.0000     8.0000 </r>
       <r>    -3.1527     0.0000     8.0000 </r>
       <r>    -3.0818     0.0000     8.0000 </r>
       <r>    -3.0109     0.0000     8.0000 </r>
       <r>    -2.9400     0.0000     8.0000 </r>
       <r>    -2.8691     0.0000     8.0000 </r>
       <r>    -2.7982     0.0000     8.0000 </r>
       <r>    -2.7273     0.0000     8.0000 </r>
       <r>    -2.6564     0.0000     8.0000 </r>
       <r>    -2.5855     0.0000     8.0000 </r>
       <r>    -2.5146     0.0000     8.0000 </r>
       <r>    -2.4437     0.0000     8.0000 </r>
       <r>    -2.3728     0.0000     8.0000 </r>
       <r>    -2.3019     0.0000     8.0000 </r>
       <r>    -2.2310     0.0000     8.0000 </r>
       <r>    -2.1601     0.0000     8.0000 </r>
       <r>    -2.0892     0.0000     8.0000 </r>
       <r>    -2.0183    -0.0000     8.0000 </r>
       <r>    -1.9474    -0.0000     8.0000 </r>
       <r>    -1.8765    -0.0000     8.0000 </r>
       <r>    -1.8057    -0.0000     8.0000 </r>
       <r>    -1.7348    -0.0000     8.0000 </r>
       <r>    -1.6639    -0.0000     8.0000 </r>
       <r>    -1.5930    -0.0000     8.0000 </r>
       <r>    -1.5221    -0.0000     8.0000 </r>
       <r>    -1.4512    -0.0000     8.0000 </r>
       <r>    -1.3803    -0.0000     8.0000 </r>
       <r>    -1.3094    -0.0000     8.0000 </r>
       <r>    -1.2385    -0.0000     8.0000 </r>
       <r>    -1.1676    -0.0000     8.0000 </r>
       <r>    -1.0967    -0.0000     8.0000 </r>
       <r>    -1.0258    -0.0004     8.0000 </r>
       <r>    -0.9549    -0.0033     7.9997 </r>
       <r>    -0.8840    -0.0189     7.9984 </r>
       <r>    -0.8131    -0.0790     7.9928 </r>
       <r>    -0.7422    -0.2322     7.9763 </r>
       <r>    -0.6713    -0.4240     7.9463 </r>
       <r>    -0.6004    -0.2228     7.9305 </r>
       <r>    -0.5295     1.2051     8.0159 </r>
       <r>    -0.4586     4.1871     8.3128 </r>
       <r>    -0.3877     7.3335     8.8327 </r>
       <r>    -0.3168     8.2319     9.4163 </r>
       <r>    -0.2459     6.0916     9.8482 </r>
       <r>    -0.1750     2.7293    10.0417 </r>
       <r>    -0.1041     0.3719    10.0681 </r>
       <r>    -0.0332    -0.4346    10.0373 </r>
       <r>     0.0377    -0.4526    10.0052 </r>
       <r>     0.1086    -0.4419     9.9739 </r>
       <r>     0.1795    -0.5846     9.9324 </r>
       <r>     0.2504    -0.4517     9.9004 </r>
       <r>     0.3213     0.8373     9.9598 </r>
       <r>     0.3922     4.0260    10.2452 </r>
       <r>     0.4631     9.0163    10.8844 </r>
       <r>     0.5340    14.6698    11.9245 </r>
       <r>     0.6049    18.8104    13.2581 </r>
       <r>     0.6758    18.7997    14.5910 </r>
       <r>     0.7467    13.8579    15.5735 </r>
       <r>     0.8176     6.7481    16.0519 </r>
       <r>     0.8885     1.3979    16.1510 </r>
       <r>     0.9594    -0.7355    16.0989 </r>
       <r>     1.0303    -0.8247    16.0404 </r>
       <r>     1.1012    -0.4048    16.0117 </r>
       <r>     1.1721    -0.1298    16.0025 </r>
       <r>     1.2430    -0.0297    16.0004 </r>
       <r>     1.3139    -0.0050    16.0000 </r>
       <r>     1.3848    -0.0006    16.0000 </r>
       <r>     1.4557    -0.0001    16.0000 </r>
       <r>     1.5266    -0.0000    16.0000 </r>
       <r>     1.5975    -0.0000    16.0000 </r>
       <r>     1.6684    -0.0000    16.0000 </r>
       <r>     1.7393    -0.0000    16.0000 </r>
       <r>     1.8102    -0.0000    16.0000 </r>
       <r>     1.8811    -0.0000    16.0000 </r>
       <r>     1.9520    -0.0000    16.0000 </r>
       <r>     2.0229     0.0000    16.0000 </r>
       <r>     2.0938     0.0000    16.0000 </r>
       <r>     2.1647     0.0000    16.0000 </r>
       <r>     2.2356     0.0000    16.0000 </r>
       <r>     2.3065     0.0000    16.0000 </r>
       <r>     2.3774     0.0000    16.0000 </r>
       <r>     2.4482     0.0000    16.0000 </r>
       <r>     2.5191     0.0000    16.0000 </r>
       <r>     2.5900     0.0000    16.0000 </r>
       <r>     2.6609     0.0000    16.0000 </r>
      </set>
     </set>
    </array>
   </total>
  </dos>
 </calculation>
 <structure name="finalpos" >
  <crystal>
   <varray name="basis" >
    <v>      10.22942184       0.00000000       0.00000000 </v>
    <v>       0.21949315      10.18907940       0.00000000 </v>
    <v>      -0.21708270      -0.16419783      10.25832618 </v>
   </varray>
   <i name="volume">   1069.20883514 </i>
   <varray name="rec_basis" >
    <v>       0.09775724      -0.00210589       0.00203499 </v>
    <v>      -0.00000000       0.09814429       0.00157093 </v>
    <v>       0.00000000       0.00000000       0.09748179 </v>
   </varray>
  </crystal>
  <varray name="positions" >
   <v>       0.54203856       0.40362808       0.36395034 </v>
   <v>       0.38942362       0.47588886       0.43254150 </v>
   <v>       0.54673220       0.56746068       0.44847795 </v>
   <v>       0.52691022       0.42008781       0.53988545 </v>
   <v>       0.50362462       0.46752666       0.44481392 </v>
  </varray>
  <varray name="velocities" >
   <v>       0.00110845       0.00156905      -0.00233096 </v>
   <v>       0.00263663      -0.00151755      -0.00084944 </v>
   <v>       0.00166722       0.00107388      -0.00008657 </v>
   <v>      -0.00000623       0.00029227       0.00063516 </v>
   <v>      -0.00045009      -0.00011803       0.00021912 </v>
  </varray>
 </structure>
</modeling>
