unknown system                          
           1
    10.229422    0.000000    0.000000
     0.219493   10.189079    0.000000
    -0.217083   -0.164198   10.258326
   H    C 
   4   1
Direct configuration=     1
   0.53839199  0.40663941  0.36079227
   0.39442313  0.47960599  0.43834014
   0.55245273  0.56537351  0.44282192
   0.52867347  0.41578356  0.53937520
   0.50288890  0.46749860  0.44510746
Direct configuration=     2
   0.54005032  0.40759530  0.36131570
   0.39935354  0.47854159  0.43988849
   0.54958290  0.56406330  0.44328116
   0.52652709  0.41763818  0.53328157
   0.50275798  0.46746231  0.44540408
Direct configuration=     3
   0.54201771  0.40843580  0.36222639
   0.40281306  0.47832764  0.44171876
   0.54695474  0.56333461  0.44262477
   0.52666244  0.41650637  0.53127506
   0.50251370  0.46756504  0.44539758
Direct configuration=     4
   0.54221164  0.40940762  0.36587973
   0.39301930  0.47846612  0.44240550
   0.54579420  0.56419437  0.44256618
   0.52736696  0.41436714  0.53488144
   0.50335092  0.46757913  0.44474086
Direct configuration=     5
   0.54229742  0.40804318  0.36555540
   0.38628780  0.47647663  0.44242408
   0.54503039  0.56630746  0.44370480
   0.52932505  0.41465406  0.53944048
   0.50380479  0.46765855  0.44429194
Direct configuration=     6
   0.54162507  0.40439737  0.36236020
   0.39055931  0.47587855  0.44164585
   0.54433733  0.56769097  0.44589380
   0.53105794  0.41848559  0.53757506
   0.50341856  0.46757769  0.44459582
Direct configuration=     7
   0.54048365  0.40318356  0.36295437
   0.39946263  0.47468996  0.44115696
   0.54302733  0.56666460  0.44675994
   0.53062196  0.42100942  0.53612291
   0.50291769  0.46765303  0.44463584
Direct configuration=     8
   0.53966351  0.40203210  0.36526141
   0.40625074  0.47629510  0.43828009
   0.54142298  0.56456745  0.44785645
   0.52984693  0.42169039  0.53675155
   0.50261891  0.46773317  0.44453965
Direct configuration=     9
   0.54045131  0.40127728  0.36685502
   0.39369967  0.47785530  0.43566784
   0.54333047  0.56496169  0.44823511
   0.52744311  0.42063118  0.53804126
   0.50363961  0.46772148  0.44448556
Direct configuration=    10
   0.54093011  0.40205903  0.36628130
   0.38678699  0.47740641  0.43339094
   0.54506498  0.56638680  0.44856452
   0.52691646  0.41979554  0.53925028
   0.50407472  0.46764469  0.44459481
