   5   5   0****
  0.2003848E+03  0.1004510E-08  0.9706918E-09  0.1028378E-08  0.2000000E-14
   50.000000000000000     
  CAR 
 unknown system                          
      2.72318861    -18.92897669  301     -9.00681870      1.00000000
    -18.929  0.0000E+00  0.0000E+00
    -18.857  0.0000E+00  0.0000E+00
    -18.785  0.0000E+00  0.0000E+00
    -18.712  0.0000E+00  0.0000E+00
    -18.640  0.0000E+00  0.0000E+00
    -18.568 -0.4314E-27 -0.3114E-28
    -18.496 -0.1338E-24 -0.9685E-26
    -18.424 -0.3197E-22 -0.2317E-23
    -18.352 -0.5872E-20 -0.4261E-21
    -18.279 -0.8289E-18 -0.6025E-19
    -18.207 -0.8988E-16 -0.6547E-17
    -18.135 -0.7482E-14 -0.5465E-15
    -18.063 -0.4625E-12 -0.3393E-13
    -17.991 -0.2258E-10 -0.1664E-11
    -17.919 -0.8425E-09 -0.6247E-10
    -17.846 -0.2402E-07 -0.1796E-08
    -17.774 -0.5219E-06 -0.3947E-07
    -17.702 -0.8624E-05 -0.6619E-06
    -17.630 -0.1079E-03 -0.8451E-05
    -17.558 -0.1017E-02 -0.8183E-04
    -17.485 -0.7146E-02 -0.5976E-03
    -17.413 -0.3689E-01 -0.3260E-02
    -17.341 -0.1358E+00 -0.1306E-01
    -17.269 -0.3328E+00 -0.3709E-01
    -17.197 -0.4211E+00 -0.6748E-01
    -17.125  0.3049E+00 -0.4547E-01
    -17.052  0.2633E+01  0.1446E+00
    -16.980  0.6048E+01  0.5811E+00
    -16.908  0.8234E+01  0.1175E+01
    -16.836  0.7278E+01  0.1701E+01
    -16.764  0.4047E+01  0.1993E+01
    -16.692  0.1076E+01  0.2070E+01
    -16.619 -0.2699E+00  0.2051E+01
    -16.547 -0.4119E+00  0.2021E+01
    -16.475 -0.2099E+00  0.2006E+01
    -16.403 -0.6684E-01  0.2001E+01
    -16.331 -0.1486E-01  0.2000E+01
    -16.259 -0.2402E-02  0.2000E+01
    -16.186 -0.2882E-03  0.2000E+01
    -16.114 -0.2594E-04  0.2000E+01
    -16.042 -0.1764E-05  0.2000E+01
    -15.970 -0.9111E-07  0.2000E+01
    -15.898 -0.3583E-08  0.2000E+01
    -15.825 -0.1076E-09  0.2000E+01
    -15.753 -0.2469E-11  0.2000E+01
    -15.681 -0.4307E-13  0.2000E+01
    -15.609  0.0000E+00  0.2000E+01
    -15.537  0.0000E+00  0.2000E+01
    -15.465  0.0000E+00  0.2000E+01
    -15.392  0.0000E+00  0.2000E+01
    -15.320  0.0000E+00  0.2000E+01
    -15.248  0.0000E+00  0.2000E+01
    -15.176  0.0000E+00  0.2000E+01
    -15.104  0.0000E+00  0.2000E+01
    -15.032  0.0000E+00  0.2000E+01
    -14.959  0.0000E+00  0.2000E+01
    -14.887  0.0000E+00  0.2000E+01
    -14.815  0.0000E+00  0.2000E+01
    -14.743  0.0000E+00  0.2000E+01
    -14.671  0.0000E+00  0.2000E+01
    -14.599  0.0000E+00  0.2000E+01
    -14.526  0.0000E+00  0.2000E+01
    -14.454  0.0000E+00  0.2000E+01
    -14.382  0.0000E+00  0.2000E+01
    -14.310  0.0000E+00  0.2000E+01
    -14.238  0.0000E+00  0.2000E+01
    -14.166  0.0000E+00  0.2000E+01
    -14.093  0.0000E+00  0.2000E+01
    -14.021  0.0000E+00  0.2000E+01
    -13.949  0.0000E+00  0.2000E+01
    -13.877  0.0000E+00  0.2000E+01
    -13.805  0.0000E+00  0.2000E+01
    -13.732  0.0000E+00  0.2000E+01
    -13.660  0.0000E+00  0.2000E+01
    -13.588  0.0000E+00  0.2000E+01
    -13.516  0.0000E+00  0.2000E+01
    -13.444  0.0000E+00  0.2000E+01
    -13.372  0.0000E+00  0.2000E+01
    -13.299  0.0000E+00  0.2000E+01
    -13.227  0.0000E+00  0.2000E+01
    -13.155  0.0000E+00  0.2000E+01
    -13.083  0.0000E+00  0.2000E+01
    -13.011  0.0000E+00  0.2000E+01
    -12.939  0.0000E+00  0.2000E+01
    -12.866  0.0000E+00  0.2000E+01
    -12.794  0.0000E+00  0.2000E+01
    -12.722  0.0000E+00  0.2000E+01
    -12.650  0.0000E+00  0.2000E+01
    -12.578  0.0000E+00  0.2000E+01
    -12.506  0.0000E+00  0.2000E+01
    -12.433  0.0000E+00  0.2000E+01
    -12.361  0.0000E+00  0.2000E+01
    -12.289  0.0000E+00  0.2000E+01
    -12.217  0.0000E+00  0.2000E+01
    -12.145  0.0000E+00  0.2000E+01
    -12.072  0.0000E+00  0.2000E+01
    -12.000  0.0000E+00  0.2000E+01
    -11.928  0.0000E+00  0.2000E+01
    -11.856  0.0000E+00  0.2000E+01
    -11.784  0.0000E+00  0.2000E+01
    -11.712  0.0000E+00  0.2000E+01
    -11.639  0.0000E+00  0.2000E+01
    -11.567  0.0000E+00  0.2000E+01
    -11.495  0.0000E+00  0.2000E+01
    -11.423  0.0000E+00  0.2000E+01
    -11.351  0.0000E+00  0.2000E+01
    -11.279  0.0000E+00  0.2000E+01
    -11.206  0.0000E+00  0.2000E+01
    -11.134 -0.6147E-28  0.2000E+01
    -11.062 -0.2078E-25  0.2000E+01
    -10.990 -0.5416E-23  0.2000E+01
    -10.918 -0.1085E-20  0.2000E+01
    -10.846 -0.1671E-18  0.2000E+01
    -10.773 -0.1976E-16  0.2000E+01
    -10.701 -0.1795E-14  0.2000E+01
    -10.629 -0.1220E-12  0.2000E+01
    -10.557 -0.6463E-11  0.2000E+01
    -10.485 -0.2634E-09  0.2000E+01
    -10.412 -0.8206E-08  0.2000E+01
    -10.340 -0.1951E-06  0.2000E+01
    -10.268 -0.3529E-05  0.2000E+01
    -10.196 -0.4843E-04  0.2000E+01
    -10.124 -0.5014E-03  0.2000E+01
    -10.052 -0.3888E-02  0.2000E+01
     -9.979 -0.2229E-01  0.1998E+01
     -9.907 -0.9241E-01  0.1991E+01
     -9.835 -0.2642E+00  0.1972E+01
     -9.763 -0.4554E+00  0.1939E+01
     -9.691 -0.1690E+00  0.1927E+01
     -9.619  0.1402E+01  0.2028E+01
     -9.546  0.4331E+01  0.2341E+01
     -9.474  0.7225E+01  0.2863E+01
     -9.402  0.8850E+01  0.3501E+01
     -9.330  0.1018E+02  0.4236E+01
     -9.258  0.1265E+02  0.5149E+01
     -9.186  0.1481E+02  0.6218E+01
     -9.113  0.1363E+02  0.7202E+01
     -9.041  0.8838E+01  0.7840E+01
     -8.969  0.3458E+01  0.8089E+01
     -8.897  0.2222E+00  0.8105E+01
     -8.825 -0.6808E+00  0.8056E+01
     -8.752 -0.5027E+00  0.8020E+01
     -8.680 -0.2057E+00  0.8005E+01
     -8.608 -0.5728E-01  0.8001E+01
     -8.536 -0.1151E-01  0.8000E+01
     -8.464 -0.1712E-02  0.8000E+01
     -8.392 -0.1910E-03  0.8000E+01
     -8.319 -0.1609E-04  0.8000E+01
     -8.247 -0.1029E-05  0.8000E+01
     -8.175 -0.5010E-07  0.8000E+01
     -8.103 -0.1862E-08  0.8000E+01
     -8.031 -0.5291E-10  0.8000E+01
     -7.959 -0.1154E-11  0.8000E+01
     -7.886 -0.1846E-13  0.8000E+01
     -7.814  0.0000E+00  0.8000E+01
     -7.742  0.0000E+00  0.8000E+01
     -7.670  0.0000E+00  0.8000E+01
     -7.598  0.0000E+00  0.8000E+01
     -7.526  0.0000E+00  0.8000E+01
     -7.453  0.0000E+00  0.8000E+01
     -7.381  0.0000E+00  0.8000E+01
     -7.309  0.0000E+00  0.8000E+01
     -7.237  0.0000E+00  0.8000E+01
     -7.165  0.0000E+00  0.8000E+01
     -7.092  0.0000E+00  0.8000E+01
     -7.020  0.0000E+00  0.8000E+01
     -6.948  0.0000E+00  0.8000E+01
     -6.876  0.0000E+00  0.8000E+01
     -6.804  0.0000E+00  0.8000E+01
     -6.732  0.0000E+00  0.8000E+01
     -6.659  0.0000E+00  0.8000E+01
     -6.587  0.0000E+00  0.8000E+01
     -6.515  0.0000E+00  0.8000E+01
     -6.443  0.0000E+00  0.8000E+01
     -6.371  0.0000E+00  0.8000E+01
     -6.299  0.0000E+00  0.8000E+01
     -6.226  0.0000E+00  0.8000E+01
     -6.154  0.0000E+00  0.8000E+01
     -6.082  0.0000E+00  0.8000E+01
     -6.010  0.0000E+00  0.8000E+01
     -5.938  0.0000E+00  0.8000E+01
     -5.866  0.0000E+00  0.8000E+01
     -5.793  0.0000E+00  0.8000E+01
     -5.721  0.0000E+00  0.8000E+01
     -5.649  0.0000E+00  0.8000E+01
     -5.577  0.0000E+00  0.8000E+01
     -5.505  0.0000E+00  0.8000E+01
     -5.432  0.0000E+00  0.8000E+01
     -5.360  0.0000E+00  0.8000E+01
     -5.288  0.0000E+00  0.8000E+01
     -5.216  0.0000E+00  0.8000E+01
     -5.144  0.0000E+00  0.8000E+01
     -5.072  0.0000E+00  0.8000E+01
     -4.999  0.0000E+00  0.8000E+01
     -4.927  0.0000E+00  0.8000E+01
     -4.855  0.0000E+00  0.8000E+01
     -4.783  0.0000E+00  0.8000E+01
     -4.711  0.0000E+00  0.8000E+01
     -4.639  0.0000E+00  0.8000E+01
     -4.566  0.0000E+00  0.8000E+01
     -4.494  0.0000E+00  0.8000E+01
     -4.422  0.0000E+00  0.8000E+01
     -4.350  0.0000E+00  0.8000E+01
     -4.278  0.0000E+00  0.8000E+01
     -4.206  0.0000E+00  0.8000E+01
     -4.133  0.0000E+00  0.8000E+01
     -4.061  0.0000E+00  0.8000E+01
     -3.989  0.0000E+00  0.8000E+01
     -3.917  0.0000E+00  0.8000E+01
     -3.845  0.0000E+00  0.8000E+01
     -3.772  0.0000E+00  0.8000E+01
     -3.700  0.0000E+00  0.8000E+01
     -3.628  0.0000E+00  0.8000E+01
     -3.556  0.0000E+00  0.8000E+01
     -3.484  0.0000E+00  0.8000E+01
     -3.412  0.0000E+00  0.8000E+01
     -3.339  0.0000E+00  0.8000E+01
     -3.267  0.0000E+00  0.8000E+01
     -3.195  0.0000E+00  0.8000E+01
     -3.123  0.0000E+00  0.8000E+01
     -3.051  0.0000E+00  0.8000E+01
     -2.979  0.0000E+00  0.8000E+01
     -2.906  0.0000E+00  0.8000E+01
     -2.834  0.0000E+00  0.8000E+01
     -2.762  0.0000E+00  0.8000E+01
     -2.690  0.0000E+00  0.8000E+01
     -2.618  0.0000E+00  0.8000E+01
     -2.546  0.0000E+00  0.8000E+01
     -2.473  0.0000E+00  0.8000E+01
     -2.401  0.0000E+00  0.8000E+01
     -2.329  0.0000E+00  0.8000E+01
     -2.257  0.0000E+00  0.8000E+01
     -2.185  0.0000E+00  0.8000E+01
     -2.112  0.0000E+00  0.8000E+01
     -2.040  0.0000E+00  0.8000E+01
     -1.968 -0.1493E-27  0.8000E+01
     -1.896 -0.4845E-25  0.8000E+01
     -1.824 -0.1212E-22  0.8000E+01
     -1.752 -0.2331E-20  0.8000E+01
     -1.679 -0.3445E-18  0.8000E+01
     -1.607 -0.3913E-16  0.8000E+01
     -1.535 -0.3413E-14  0.8000E+01
     -1.463 -0.2219E-12  0.8000E+01
     -1.391 -0.1133E-10  0.8000E+01
     -1.319 -0.4433E-09  0.8000E+01
     -1.246 -0.1326E-07  0.8000E+01
     -1.174 -0.3026E-06  0.8000E+01
     -1.102 -0.5254E-05  0.8000E+01
     -1.030 -0.6917E-04  0.8000E+01
     -0.958 -0.6865E-03  0.8000E+01
     -0.886 -0.5094E-02  0.8000E+01
     -0.813 -0.2787E-01  0.7998E+01
     -0.741 -0.1096E+00  0.7990E+01
     -0.669 -0.2921E+00  0.7969E+01
     -0.597 -0.4375E+00  0.7937E+01
     -0.525  0.6450E-01  0.7942E+01
     -0.452  0.2072E+01  0.8091E+01
     -0.380  0.5417E+01  0.8482E+01
     -0.308  0.8033E+01  0.9062E+01
     -0.236  0.7693E+01  0.9617E+01
     -0.164  0.4707E+01  0.9957E+01
     -0.092  0.1522E+01  0.1007E+02
     -0.019 -0.1402E+00  0.1006E+02
      0.053 -0.4592E+00  0.1002E+02
      0.125 -0.3623E+00  0.9997E+01
      0.197 -0.4316E+00  0.9966E+01
      0.269 -0.7151E+00  0.9915E+01
      0.341 -0.6445E+00  0.9868E+01
      0.414  0.1070E+01  0.9945E+01
      0.486  0.5697E+01  0.1036E+02
      0.558  0.1277E+02  0.1128E+02
      0.630  0.1918E+02  0.1266E+02
      0.702  0.2085E+02  0.1417E+02
      0.774  0.1638E+02  0.1535E+02
      0.847  0.8720E+01  0.1598E+02
      0.919  0.2391E+01  0.1615E+02
      0.991 -0.4998E+00  0.1612E+02
      1.063 -0.8913E+00  0.1605E+02
      1.135 -0.4908E+00  0.1602E+02
      1.208 -0.1695E+00  0.1600E+02
      1.280 -0.4111E-01  0.1600E+02
      1.352 -0.7299E-02  0.1600E+02
      1.424 -0.9669E-03  0.1600E+02
      1.496 -0.9659E-04  0.1600E+02
      1.568 -0.7323E-05  0.1600E+02
      1.641 -0.4232E-06  0.1600E+02
      1.713 -0.1869E-07  0.1600E+02
      1.785 -0.6321E-09  0.1600E+02
      1.857 -0.1640E-10  0.1600E+02
      1.929 -0.3261E-12  0.1600E+02
      2.001 -0.3077E-14  0.1600E+02
      2.074  0.0000E+00  0.1600E+02
      2.146  0.0000E+00  0.1600E+02
      2.218  0.0000E+00  0.1600E+02
      2.290  0.0000E+00  0.1600E+02
      2.362  0.0000E+00  0.1600E+02
      2.434  0.0000E+00  0.1600E+02
      2.507  0.0000E+00  0.1600E+02
      2.579  0.0000E+00  0.1600E+02
      2.651  0.0000E+00  0.1600E+02
      2.723  0.0000E+00  0.1600E+02
      2.72152114    -18.88092645  301     -9.02259049      1.00000000
    -18.881  0.0000E+00  0.0000E+00
    -18.809  0.0000E+00  0.0000E+00
    -18.737  0.0000E+00  0.0000E+00
    -18.665  0.0000E+00  0.0000E+00
    -18.593  0.0000E+00  0.0000E+00
    -18.521 -0.4042E-27 -0.2910E-28
    -18.449 -0.1241E-24 -0.8964E-26
    -18.377 -0.2940E-22 -0.2126E-23
    -18.305 -0.5360E-20 -0.3881E-21
    -18.233 -0.7519E-18 -0.5453E-19
    -18.161 -0.8112E-16 -0.5896E-17
    -18.089 -0.6727E-14 -0.4903E-15
    -18.017 -0.4147E-12 -0.3035E-13
    -17.945 -0.2023E-10 -0.1487E-11
    -17.873 -0.7546E-09 -0.5583E-10
    -17.801 -0.2154E-07 -0.1607E-08
    -17.729 -0.4693E-06 -0.3540E-07
    -17.657 -0.7784E-05 -0.5959E-06
    -17.585 -0.9793E-04 -0.7648E-05
    -17.513 -0.9291E-03 -0.7455E-04
    -17.441 -0.6587E-02 -0.5489E-03
    -17.369 -0.3439E-01 -0.3025E-02
    -17.297 -0.1285E+00 -0.1228E-01
    -17.225 -0.3217E+00 -0.3544E-01
    -17.153 -0.4287E+00 -0.6631E-01
    -17.081  0.2256E+00 -0.5006E-01
    -17.009  0.2452E+01  0.1265E+00
    -16.937  0.5847E+01  0.5475E+00
    -16.865  0.8181E+01  0.1137E+01
    -16.793  0.7436E+01  0.1672E+01
    -16.721  0.4285E+01  0.1981E+01
    -16.649  0.1234E+01  0.2070E+01
    -16.577 -0.2245E+00  0.2053E+01
    -16.505 -0.4218E+00  0.2023E+01
    -16.433 -0.2253E+00  0.2007E+01
    -16.361 -0.7419E-01  0.2001E+01
    -16.289 -0.1700E-01  0.2000E+01
    -16.217 -0.2830E-02  0.2000E+01
    -16.145 -0.3496E-03  0.2000E+01
    -16.073 -0.3243E-04  0.2000E+01
    -16.001 -0.2275E-05  0.2000E+01
    -15.929 -0.1212E-06  0.2000E+01
    -15.857 -0.4926E-08  0.2000E+01
    -15.785 -0.1530E-09  0.2000E+01
    -15.713 -0.3637E-11  0.2000E+01
    -15.641 -0.6784E-13  0.2000E+01
    -15.569  0.0000E+00  0.2000E+01
    -15.497  0.0000E+00  0.2000E+01
    -15.425  0.0000E+00  0.2000E+01
    -15.353  0.0000E+00  0.2000E+01
    -15.281  0.0000E+00  0.2000E+01
    -15.209  0.0000E+00  0.2000E+01
    -15.137  0.0000E+00  0.2000E+01
    -15.064  0.0000E+00  0.2000E+01
    -14.992  0.0000E+00  0.2000E+01
    -14.920  0.0000E+00  0.2000E+01
    -14.848  0.0000E+00  0.2000E+01
    -14.776  0.0000E+00  0.2000E+01
    -14.704  0.0000E+00  0.2000E+01
    -14.632  0.0000E+00  0.2000E+01
    -14.560  0.0000E+00  0.2000E+01
    -14.488  0.0000E+00  0.2000E+01
    -14.416  0.0000E+00  0.2000E+01
    -14.344  0.0000E+00  0.2000E+01
    -14.272  0.0000E+00  0.2000E+01
    -14.200  0.0000E+00  0.2000E+01
    -14.128  0.0000E+00  0.2000E+01
    -14.056  0.0000E+00  0.2000E+01
    -13.984  0.0000E+00  0.2000E+01
    -13.912  0.0000E+00  0.2000E+01
    -13.840  0.0000E+00  0.2000E+01
    -13.768  0.0000E+00  0.2000E+01
    -13.696  0.0000E+00  0.2000E+01
    -13.624  0.0000E+00  0.2000E+01
    -13.552  0.0000E+00  0.2000E+01
    -13.480  0.0000E+00  0.2000E+01
    -13.408  0.0000E+00  0.2000E+01
    -13.336  0.0000E+00  0.2000E+01
    -13.264  0.0000E+00  0.2000E+01
    -13.192  0.0000E+00  0.2000E+01
    -13.120  0.0000E+00  0.2000E+01
    -13.048  0.0000E+00  0.2000E+01
    -12.976  0.0000E+00  0.2000E+01
    -12.904  0.0000E+00  0.2000E+01
    -12.832  0.0000E+00  0.2000E+01
    -12.760  0.0000E+00  0.2000E+01
    -12.688  0.0000E+00  0.2000E+01
    -12.616  0.0000E+00  0.2000E+01
    -12.544  0.0000E+00  0.2000E+01
    -12.472  0.0000E+00  0.2000E+01
    -12.400  0.0000E+00  0.2000E+01
    -12.328  0.0000E+00  0.2000E+01
    -12.256  0.0000E+00  0.2000E+01
    -12.184  0.0000E+00  0.2000E+01
    -12.112  0.0000E+00  0.2000E+01
    -12.040  0.0000E+00  0.2000E+01
    -11.968  0.0000E+00  0.2000E+01
    -11.896  0.0000E+00  0.2000E+01
    -11.824  0.0000E+00  0.2000E+01
    -11.752  0.0000E+00  0.2000E+01
    -11.680  0.0000E+00  0.2000E+01
    -11.608  0.0000E+00  0.2000E+01
    -11.536  0.0000E+00  0.2000E+01
    -11.464  0.0000E+00  0.2000E+01
    -11.392  0.0000E+00  0.2000E+01
    -11.320  0.0000E+00  0.2000E+01
    -11.248  0.0000E+00  0.2000E+01
    -11.176  0.0000E+00  0.2000E+01
    -11.104  0.0000E+00  0.2000E+01
    -11.032 -0.1709E-26  0.2000E+01
    -10.960 -0.4918E-24  0.2000E+01
    -10.888 -0.1092E-21  0.2000E+01
    -10.816 -0.1866E-19  0.2000E+01
    -10.744 -0.2454E-17  0.2000E+01
    -10.672 -0.2480E-15  0.2000E+01
    -10.600 -0.1927E-13  0.2000E+01
    -10.528 -0.1113E-11  0.2000E+01
    -10.456 -0.5078E-10  0.2000E+01
    -10.384 -0.1773E-08  0.2000E+01
    -10.312 -0.4735E-07  0.2000E+01
    -10.240 -0.9649E-06  0.2000E+01
    -10.168 -0.1496E-04  0.2000E+01
    -10.096 -0.1758E-03  0.2000E+01
    -10.024 -0.1556E-02  0.2000E+01
     -9.952 -0.1028E-01  0.1999E+01
     -9.880 -0.4992E-01  0.1996E+01
     -9.808 -0.1734E+00  0.1983E+01
     -9.736 -0.4037E+00  0.1954E+01
     -9.664 -0.5042E+00  0.1918E+01
     -9.592  0.2276E+00  0.1934E+01
     -9.520  0.2524E+01  0.2116E+01
     -9.448  0.6199E+01  0.2562E+01
     -9.376  0.1023E+02  0.3299E+01
     -9.304  0.1393E+02  0.4302E+01
     -9.232  0.1659E+02  0.5497E+01
     -9.160  0.1647E+02  0.6683E+01
     -9.088  0.1239E+02  0.7575E+01
     -9.016  0.6246E+01  0.8025E+01
     -8.944  0.1443E+01  0.8129E+01
     -8.872 -0.5645E+00  0.8088E+01
     -8.800 -0.7120E+00  0.8037E+01
     -8.728 -0.3597E+00  0.8011E+01
     -8.656 -0.1170E+00  0.8002E+01
     -8.584 -0.2699E-01  0.8000E+01
     -8.512 -0.4574E-02  0.8000E+01
     -8.440 -0.5796E-03  0.8000E+01
     -8.368 -0.5545E-04  0.8000E+01
     -8.296 -0.4029E-05  0.8000E+01
     -8.224 -0.2232E-06  0.8000E+01
     -8.152 -0.9448E-08  0.8000E+01
     -8.080 -0.3062E-09  0.8000E+01
     -8.008 -0.7612E-11  0.8000E+01
     -7.936 -0.1418E-12  0.8000E+01
     -7.864  0.0000E+00  0.8000E+01
     -7.792  0.0000E+00  0.8000E+01
     -7.720  0.0000E+00  0.8000E+01
     -7.648  0.0000E+00  0.8000E+01
     -7.576  0.0000E+00  0.8000E+01
     -7.504  0.0000E+00  0.8000E+01
     -7.432  0.0000E+00  0.8000E+01
     -7.360  0.0000E+00  0.8000E+01
     -7.288  0.0000E+00  0.8000E+01
     -7.216  0.0000E+00  0.8000E+01
     -7.144  0.0000E+00  0.8000E+01
     -7.072  0.0000E+00  0.8000E+01
     -7.000  0.0000E+00  0.8000E+01
     -6.928  0.0000E+00  0.8000E+01
     -6.856  0.0000E+00  0.8000E+01
     -6.784  0.0000E+00  0.8000E+01
     -6.712  0.0000E+00  0.8000E+01
     -6.640  0.0000E+00  0.8000E+01
     -6.568  0.0000E+00  0.8000E+01
     -6.496  0.0000E+00  0.8000E+01
     -6.424  0.0000E+00  0.8000E+01
     -6.352  0.0000E+00  0.8000E+01
     -6.279  0.0000E+00  0.8000E+01
     -6.207  0.0000E+00  0.8000E+01
     -6.135  0.0000E+00  0.8000E+01
     -6.063  0.0000E+00  0.8000E+01
     -5.991  0.0000E+00  0.8000E+01
     -5.919  0.0000E+00  0.8000E+01
     -5.847  0.0000E+00  0.8000E+01
     -5.775  0.0000E+00  0.8000E+01
     -5.703  0.0000E+00  0.8000E+01
     -5.631  0.0000E+00  0.8000E+01
     -5.559  0.0000E+00  0.8000E+01
     -5.487  0.0000E+00  0.8000E+01
     -5.415  0.0000E+00  0.8000E+01
     -5.343  0.0000E+00  0.8000E+01
     -5.271  0.0000E+00  0.8000E+01
     -5.199  0.0000E+00  0.8000E+01
     -5.127  0.0000E+00  0.8000E+01
     -5.055  0.0000E+00  0.8000E+01
     -4.983  0.0000E+00  0.8000E+01
     -4.911  0.0000E+00  0.8000E+01
     -4.839  0.0000E+00  0.8000E+01
     -4.767  0.0000E+00  0.8000E+01
     -4.695  0.0000E+00  0.8000E+01
     -4.623  0.0000E+00  0.8000E+01
     -4.551  0.0000E+00  0.8000E+01
     -4.479  0.0000E+00  0.8000E+01
     -4.407  0.0000E+00  0.8000E+01
     -4.335  0.0000E+00  0.8000E+01
     -4.263  0.0000E+00  0.8000E+01
     -4.191  0.0000E+00  0.8000E+01
     -4.119  0.0000E+00  0.8000E+01
     -4.047  0.0000E+00  0.8000E+01
     -3.975  0.0000E+00  0.8000E+01
     -3.903  0.0000E+00  0.8000E+01
     -3.831  0.0000E+00  0.8000E+01
     -3.759  0.0000E+00  0.8000E+01
     -3.687  0.0000E+00  0.8000E+01
     -3.615  0.0000E+00  0.8000E+01
     -3.543  0.0000E+00  0.8000E+01
     -3.471  0.0000E+00  0.8000E+01
     -3.399  0.0000E+00  0.8000E+01
     -3.327  0.0000E+00  0.8000E+01
     -3.255  0.0000E+00  0.8000E+01
     -3.183  0.0000E+00  0.8000E+01
     -3.111  0.0000E+00  0.8000E+01
     -3.039  0.0000E+00  0.8000E+01
     -2.967  0.0000E+00  0.8000E+01
     -2.895  0.0000E+00  0.8000E+01
     -2.823  0.0000E+00  0.8000E+01
     -2.751  0.0000E+00  0.8000E+01
     -2.679  0.0000E+00  0.8000E+01
     -2.607  0.0000E+00  0.8000E+01
     -2.535  0.0000E+00  0.8000E+01
     -2.463  0.0000E+00  0.8000E+01
     -2.391  0.0000E+00  0.8000E+01
     -2.319  0.0000E+00  0.8000E+01
     -2.247  0.0000E+00  0.8000E+01
     -2.175  0.0000E+00  0.8000E+01
     -2.103  0.0000E+00  0.8000E+01
     -2.031  0.0000E+00  0.8000E+01
     -1.959 -0.4345E-27  0.8000E+01
     -1.887 -0.1327E-24  0.8000E+01
     -1.815 -0.3127E-22  0.8000E+01
     -1.743 -0.5672E-20  0.8000E+01
     -1.671 -0.7919E-18  0.8000E+01
     -1.599 -0.8503E-16  0.8000E+01
     -1.527 -0.7020E-14  0.8000E+01
     -1.455 -0.4315E-12  0.8000E+01
     -1.383 -0.2093E-10  0.8000E+01
     -1.311 -0.7780E-09  0.8000E+01
     -1.239 -0.2212E-07  0.8000E+01
     -1.167 -0.4803E-06  0.8000E+01
     -1.095 -0.7941E-05  0.8000E+01
     -1.023 -0.9960E-04  0.8000E+01
     -0.951 -0.9420E-03  0.8000E+01
     -0.879 -0.6660E-02  0.7999E+01
     -0.807 -0.3467E-01  0.7997E+01
     -0.735 -0.1292E+00  0.7988E+01
     -0.663 -0.3224E+00  0.7964E+01
     -0.591 -0.4272E+00  0.7934E+01
     -0.519  0.2331E+00  0.7950E+01
     -0.447  0.2465E+01  0.8128E+01
     -0.375  0.5858E+01  0.8550E+01
     -0.303  0.8180E+01  0.9139E+01
     -0.231  0.7423E+01  0.9673E+01
     -0.159  0.4273E+01  0.9981E+01
     -0.087  0.1228E+01  0.1007E+02
     -0.015 -0.2301E+00  0.1005E+02
      0.057 -0.4492E+00  0.1002E+02
      0.129 -0.3433E+00  0.9996E+01
      0.201 -0.4297E+00  0.9965E+01
      0.273 -0.7217E+00  0.9913E+01
      0.345 -0.6367E+00  0.9867E+01
      0.417  0.1124E+01  0.9948E+01
      0.489  0.5827E+01  0.1037E+02
      0.561  0.1298E+02  0.1130E+02
      0.633  0.1940E+02  0.1270E+02
      0.705  0.2095E+02  0.1421E+02
      0.777  0.1629E+02  0.1538E+02
      0.849  0.8523E+01  0.1599E+02
      0.921  0.2233E+01  0.1616E+02
      0.993 -0.5630E+00  0.1611E+02
      1.065 -0.8963E+00  0.1605E+02
      1.137 -0.4821E+00  0.1602E+02
      1.209 -0.1640E+00  0.1600E+02
      1.281 -0.3934E-01  0.1600E+02
      1.353 -0.6916E-02  0.1600E+02
      1.425 -0.9085E-03  0.1600E+02
      1.497 -0.9010E-04  0.1600E+02
      1.569 -0.6789E-05  0.1600E+02
      1.641 -0.3903E-06  0.1600E+02
      1.713 -0.1717E-07  0.1600E+02
      1.785 -0.5790E-09  0.1600E+02
      1.857 -0.1499E-10  0.1600E+02
      1.929 -0.3007E-12  0.1600E+02
      2.001 -0.3084E-14  0.1600E+02
      2.073  0.0000E+00  0.1600E+02
      2.145  0.0000E+00  0.1600E+02
      2.217  0.0000E+00  0.1600E+02
      2.289  0.0000E+00  0.1600E+02
      2.361  0.0000E+00  0.1600E+02
      2.433  0.0000E+00  0.1600E+02
      2.505  0.0000E+00  0.1600E+02
      2.578  0.0000E+00  0.1600E+02
      2.650  0.0000E+00  0.1600E+02
      2.722  0.0000E+00  0.1600E+02
      2.72181758    -18.89589022  301     -8.74111741      1.00000000
    -18.896  0.0000E+00  0.0000E+00
    -18.824  0.0000E+00  0.0000E+00
    -18.752  0.0000E+00  0.0000E+00
    -18.680  0.0000E+00  0.0000E+00
    -18.608  0.0000E+00  0.0000E+00
    -18.536 -0.4123E-27 -0.2971E-28
    -18.464 -0.1270E-24 -0.9179E-26
    -18.391 -0.3016E-22 -0.2183E-23
    -18.319 -0.5512E-20 -0.3994E-21
    -18.247 -0.7747E-18 -0.5622E-19
    -18.175 -0.8371E-16 -0.6088E-17
    -18.103 -0.6950E-14 -0.5069E-15
    -18.031 -0.4292E-12 -0.3144E-13
    -17.959 -0.2092E-10 -0.1539E-11
    -17.887 -0.7806E-09 -0.5779E-10
    -17.815 -0.2227E-07 -0.1662E-08
    -17.743 -0.4848E-06 -0.3660E-07
    -17.671 -0.8033E-05 -0.6155E-06
    -17.599 -0.1009E-03 -0.7886E-05
    -17.527 -0.9552E-03 -0.7671E-04
    -17.455 -0.6754E-02 -0.5634E-03
    -17.383 -0.3514E-01 -0.3096E-02
    -17.311 -0.1307E+00 -0.1251E-01
    -17.239 -0.3251E+00 -0.3594E-01
    -17.166 -0.4266E+00 -0.6668E-01
    -17.094  0.2494E+00 -0.4871E-01
    -17.022  0.2507E+01  0.1319E+00
    -16.950  0.5910E+01  0.5578E+00
    -16.878  0.8199E+01  0.1149E+01
    -16.806  0.7388E+01  0.1681E+01
    -16.734  0.4212E+01  0.1985E+01
    -16.662  0.1185E+01  0.2070E+01
    -16.590 -0.2391E+00  0.2053E+01
    -16.518 -0.4190E+00  0.2022E+01
    -16.446 -0.2205E+00  0.2007E+01
    -16.374 -0.7187E-01  0.2001E+01
    -16.302 -0.1631E-01  0.2000E+01
    -16.230 -0.2692E-02  0.2000E+01
    -16.158 -0.3296E-03  0.2000E+01
    -16.086 -0.3029E-04  0.2000E+01
    -16.014 -0.2105E-05  0.2000E+01
    -15.941 -0.1111E-06  0.2000E+01
    -15.869 -0.4469E-08  0.2000E+01
    -15.797 -0.1373E-09  0.2000E+01
    -15.725 -0.3228E-11  0.2000E+01
    -15.653 -0.6163E-13  0.2000E+01
    -15.581  0.0000E+00  0.2000E+01
    -15.509  0.0000E+00  0.2000E+01
    -15.437  0.0000E+00  0.2000E+01
    -15.365  0.0000E+00  0.2000E+01
    -15.293  0.0000E+00  0.2000E+01
    -15.221  0.0000E+00  0.2000E+01
    -15.149  0.0000E+00  0.2000E+01
    -15.077  0.0000E+00  0.2000E+01
    -15.005  0.0000E+00  0.2000E+01
    -14.933  0.0000E+00  0.2000E+01
    -14.861  0.0000E+00  0.2000E+01
    -14.789  0.0000E+00  0.2000E+01
    -14.716  0.0000E+00  0.2000E+01
    -14.644  0.0000E+00  0.2000E+01
    -14.572  0.0000E+00  0.2000E+01
    -14.500  0.0000E+00  0.2000E+01
    -14.428  0.0000E+00  0.2000E+01
    -14.356  0.0000E+00  0.2000E+01
    -14.284  0.0000E+00  0.2000E+01
    -14.212  0.0000E+00  0.2000E+01
    -14.140  0.0000E+00  0.2000E+01
    -14.068  0.0000E+00  0.2000E+01
    -13.996  0.0000E+00  0.2000E+01
    -13.924  0.0000E+00  0.2000E+01
    -13.852  0.0000E+00  0.2000E+01
    -13.780  0.0000E+00  0.2000E+01
    -13.708  0.0000E+00  0.2000E+01
    -13.636  0.0000E+00  0.2000E+01
    -13.564  0.0000E+00  0.2000E+01
    -13.491  0.0000E+00  0.2000E+01
    -13.419  0.0000E+00  0.2000E+01
    -13.347  0.0000E+00  0.2000E+01
    -13.275  0.0000E+00  0.2000E+01
    -13.203  0.0000E+00  0.2000E+01
    -13.131  0.0000E+00  0.2000E+01
    -13.059  0.0000E+00  0.2000E+01
    -12.987  0.0000E+00  0.2000E+01
    -12.915  0.0000E+00  0.2000E+01
    -12.843  0.0000E+00  0.2000E+01
    -12.771  0.0000E+00  0.2000E+01
    -12.699  0.0000E+00  0.2000E+01
    -12.627  0.0000E+00  0.2000E+01
    -12.555  0.0000E+00  0.2000E+01
    -12.483  0.0000E+00  0.2000E+01
    -12.411  0.0000E+00  0.2000E+01
    -12.339  0.0000E+00  0.2000E+01
    -12.266  0.0000E+00  0.2000E+01
    -12.194  0.0000E+00  0.2000E+01
    -12.122  0.0000E+00  0.2000E+01
    -12.050  0.0000E+00  0.2000E+01
    -11.978  0.0000E+00  0.2000E+01
    -11.906  0.0000E+00  0.2000E+01
    -11.834  0.0000E+00  0.2000E+01
    -11.762  0.0000E+00  0.2000E+01
    -11.690  0.0000E+00  0.2000E+01
    -11.618  0.0000E+00  0.2000E+01
    -11.546  0.0000E+00  0.2000E+01
    -11.474  0.0000E+00  0.2000E+01
    -11.402  0.0000E+00  0.2000E+01
    -11.330  0.0000E+00  0.2000E+01
    -11.258  0.0000E+00  0.2000E+01
    -11.186 -0.5244E-27  0.2000E+01
    -11.114 -0.1598E-24  0.2000E+01
    -11.041 -0.3754E-22  0.2000E+01
    -10.969 -0.6788E-20  0.2000E+01
    -10.897 -0.9438E-18  0.2000E+01
    -10.825 -0.1009E-15  0.2000E+01
    -10.753 -0.8286E-14  0.2000E+01
    -10.681 -0.5056E-12  0.2000E+01
    -10.609 -0.2440E-10  0.2000E+01
    -10.537 -0.9005E-09  0.2000E+01
    -10.465 -0.2541E-07  0.2000E+01
    -10.393 -0.5471E-06  0.2000E+01
    -10.321 -0.8966E-05  0.2000E+01
    -10.249 -0.1114E-03  0.2000E+01
    -10.177 -0.1043E-02  0.2000E+01
    -10.105 -0.7304E-02  0.1999E+01
    -10.033 -0.3769E-01  0.1997E+01
     -9.961 -0.1396E+00  0.1987E+01
     -9.889 -0.3507E+00  0.1961E+01
     -9.816 -0.4942E+00  0.1926E+01
     -9.744  0.8342E-01  0.1932E+01
     -9.672  0.2213E+01  0.2091E+01
     -9.600  0.5817E+01  0.2510E+01
     -9.528  0.9457E+01  0.3192E+01
     -9.456  0.1156E+02  0.4025E+01
     -9.384  0.1145E+02  0.4850E+01
     -9.312  0.9118E+01  0.5507E+01
     -9.240  0.5225E+01  0.5883E+01
     -9.168  0.1645E+01  0.6002E+01
     -9.096  0.5192E+00  0.6039E+01
     -9.024  0.2546E+01  0.6223E+01
     -8.952  0.6112E+01  0.6663E+01
     -8.880  0.8169E+01  0.7252E+01
     -8.808  0.6922E+01  0.7751E+01
     -8.736  0.3620E+01  0.8012E+01
     -8.664  0.8238E+00  0.8071E+01
     -8.591 -0.3311E+00  0.8047E+01
     -8.519 -0.3933E+00  0.8019E+01
     -8.447 -0.1879E+00  0.8005E+01
     -8.375 -0.5733E-01  0.8001E+01
     -8.303 -0.1231E-01  0.8000E+01
     -8.231 -0.1929E-02  0.8000E+01
     -8.159 -0.2249E-03  0.8000E+01
     -8.087 -0.1971E-04  0.8000E+01
     -8.015 -0.1307E-05  0.8000E+01
     -7.943 -0.6589E-07  0.8000E+01
     -7.871 -0.2533E-08  0.8000E+01
     -7.799 -0.7440E-10  0.8000E+01
     -7.727 -0.1672E-11  0.8000E+01
     -7.655 -0.3081E-13  0.8000E+01
     -7.583  0.0000E+00  0.8000E+01
     -7.511  0.0000E+00  0.8000E+01
     -7.439  0.0000E+00  0.8000E+01
     -7.366  0.0000E+00  0.8000E+01
     -7.294  0.0000E+00  0.8000E+01
     -7.222  0.0000E+00  0.8000E+01
     -7.150  0.0000E+00  0.8000E+01
     -7.078  0.0000E+00  0.8000E+01
     -7.006  0.0000E+00  0.8000E+01
     -6.934  0.0000E+00  0.8000E+01
     -6.862  0.0000E+00  0.8000E+01
     -6.790  0.0000E+00  0.8000E+01
     -6.718  0.0000E+00  0.8000E+01
     -6.646  0.0000E+00  0.8000E+01
     -6.574  0.0000E+00  0.8000E+01
     -6.502  0.0000E+00  0.8000E+01
     -6.430  0.0000E+00  0.8000E+01
     -6.358  0.0000E+00  0.8000E+01
     -6.286  0.0000E+00  0.8000E+01
     -6.214  0.0000E+00  0.8000E+01
     -6.141  0.0000E+00  0.8000E+01
     -6.069  0.0000E+00  0.8000E+01
     -5.997  0.0000E+00  0.8000E+01
     -5.925  0.0000E+00  0.8000E+01
     -5.853  0.0000E+00  0.8000E+01
     -5.781  0.0000E+00  0.8000E+01
     -5.709  0.0000E+00  0.8000E+01
     -5.637  0.0000E+00  0.8000E+01
     -5.565  0.0000E+00  0.8000E+01
     -5.493  0.0000E+00  0.8000E+01
     -5.421  0.0000E+00  0.8000E+01
     -5.349  0.0000E+00  0.8000E+01
     -5.277  0.0000E+00  0.8000E+01
     -5.205  0.0000E+00  0.8000E+01
     -5.133  0.0000E+00  0.8000E+01
     -5.061  0.0000E+00  0.8000E+01
     -4.988  0.0000E+00  0.8000E+01
     -4.916  0.0000E+00  0.8000E+01
     -4.844  0.0000E+00  0.8000E+01
     -4.772  0.0000E+00  0.8000E+01
     -4.700  0.0000E+00  0.8000E+01
     -4.628  0.0000E+00  0.8000E+01
     -4.556  0.0000E+00  0.8000E+01
     -4.484  0.0000E+00  0.8000E+01
     -4.412  0.0000E+00  0.8000E+01
     -4.340  0.0000E+00  0.8000E+01
     -4.268  0.0000E+00  0.8000E+01
     -4.196  0.0000E+00  0.8000E+01
     -4.124  0.0000E+00  0.8000E+01
     -4.052  0.0000E+00  0.8000E+01
     -3.980  0.0000E+00  0.8000E+01
     -3.908  0.0000E+00  0.8000E+01
     -3.836  0.0000E+00  0.8000E+01
     -3.763  0.0000E+00  0.8000E+01
     -3.691  0.0000E+00  0.8000E+01
     -3.619  0.0000E+00  0.8000E+01
     -3.547  0.0000E+00  0.8000E+01
     -3.475  0.0000E+00  0.8000E+01
     -3.403  0.0000E+00  0.8000E+01
     -3.331  0.0000E+00  0.8000E+01
     -3.259  0.0000E+00  0.8000E+01
     -3.187  0.0000E+00  0.8000E+01
     -3.115  0.0000E+00  0.8000E+01