    5    5    1    1
  0.2003848E+03  0.1004510E-08  0.9706918E-09  0.1028378E-08  0.2000000E-14
   50.000000000000000     
  CAR 
 unknown system                          
      8      4      8

  0.2500000E+00  0.2500000E+00  0.2500000E+00  0.2500000E+00
    1      -17.101156   1.000000
    2       -9.589018   1.002115
    3       -9.383927   1.033865
    4       -9.259490   0.964108
    5       -0.306947   0.000000
    6        0.568039   0.000000
    7        0.669628   0.000000
    8        0.726512   0.000000

 -0.2500000E+00  0.2500000E+00  0.2500000E+00  0.2500000E+00
    1      -17.101138   1.000000
    2       -9.588907   1.002120
    3       -9.383824   1.033879
    4       -9.259453   0.964045
    5       -0.312019   0.000000
    6        0.579814   0.000000
    7        0.682498   0.000000
    8        0.735309   0.000000

  0.2500000E+00 -0.2500000E+00  0.2500000E+00  0.2500000E+00
    1      -17.101120   1.000000
    2       -9.588955   1.002118
    3       -9.383785   1.033884
    4       -9.259366   0.963899
    5       -0.300659   0.000000
    6        0.542231   0.000000
    7        0.663832   0.000000
    8        0.713826   0.000000

 -0.2500000E+00 -0.2500000E+00  0.2500000E+00  0.2500000E+00
    1      -17.101172   1.000000
    2       -9.589039   1.002114
    3       -9.383874   1.033872
    4       -9.259413   0.963979
    5       -0.306264   0.000000
    6        0.572785   0.000000
    7        0.684700   0.000000
    8        0.702222   0.000000
