       N       E                     dE             d eps       ncg     rms          rms(c)
DAV:   1     0.188639797447E+02    0.18864E+02   -0.20325E+03    96   0.433E+02
DAV:   2    -0.219949573718E+02   -0.40859E+02   -0.40859E+02    72   0.114E+02
DAV:   3    -0.273422089584E+02   -0.53473E+01   -0.53585E+01    64   0.467E+01
DAV:   4    -0.275707152417E+02   -0.22851E+00   -0.22780E+00   128   0.111E+01
DAV:   5    -0.275708002612E+02   -0.85019E-04   -0.85019E-04    96   0.237E-01    0.871E+00
RMM:   6    -0.246436264883E+02    0.29272E+01   -0.54292E+00    64   0.143E+01    0.415E+00
RMM:   7    -0.241467277955E+02    0.49690E+00   -0.12299E+00    64   0.642E+00    0.217E+00
RMM:   8    -0.240002694873E+02    0.14646E+00   -0.16171E-01    64   0.287E+00    0.225E-01
RMM:   9    -0.239943150336E+02    0.59545E-02   -0.11092E-02    64   0.716E-01    0.199E-01
RMM:  10    -0.239897400999E+02    0.45749E-02   -0.20310E-02    64   0.767E-01    0.218E-01
RMM:  11    -0.239876329819E+02    0.21071E-02   -0.10019E-03    64   0.235E-01    0.120E-01
RMM:  12    -0.240000644428E+02   -0.12431E-01   -0.32524E-02    64   0.111E+00    0.364E-01
RMM:  13    -0.239982342530E+02    0.18302E-02   -0.65215E-03    64   0.484E-01    0.106E-01
RMM:  14    -0.240009754949E+02   -0.27412E-02   -0.45289E-03    72   0.422E-01    0.457E-02
RMM:  15    -0.240016409165E+02   -0.66542E-03   -0.20889E-04    64   0.890E-02    0.296E-02
RMM:  16    -0.240019118796E+02   -0.27096E-03   -0.56738E-05    64   0.473E-02    0.162E-02
RMM:  17    -0.240020767420E+02   -0.16486E-03   -0.20332E-05    64   0.328E-02    0.549E-03
RMM:  18    -0.240021279998E+02   -0.51258E-04   -0.47231E-05    64   0.406E-02    0.832E-03
RMM:  19    -0.240021356619E+02   -0.76622E-05   -0.78663E-06    64   0.167E-02    0.214E-03
RMM:  20    -0.240021406290E+02   -0.49670E-05   -0.17921E-06    48   0.971E-03    0.558E-04
RMM:  21    -0.240021419663E+02   -0.13373E-05   -0.25638E-07    48   0.460E-03    0.269E-04
RMM:  22    -0.240021428655E+02   -0.89927E-06   -0.18418E-07    48   0.319E-03
    1 T=    61. E= -.23970682E+02 F= -.24002143E+02 E0= -.24011328E+02  EK= 0.31457E-01 SP= 0.00E+00 SK= 0.38E-05
       N       E                     dE             d eps       ncg     rms          rms(c)
DAV:   1    -0.240542893741E+02   -0.52147E-01   -0.20610E+00    64   0.139E+01    0.612E-01
RMM:   2    -0.241748590100E+02   -0.12057E+00   -0.64401E-01    64   0.503E+00    0.210E+00
RMM:   3    -0.240612079545E+02    0.11365E+00   -0.18105E-01    64   0.256E+00    0.929E-01
RMM:   4    -0.240505545816E+02    0.10653E-01   -0.27901E-01    64   0.320E+00    0.351E-01
RMM:   5    -0.240479846574E+02    0.25699E-02   -0.60049E-03    64   0.608E-01    0.237E-01
RMM:   6    -0.240468395771E+02    0.11451E-02   -0.12836E-03    64   0.226E-01    0.151E-01
RMM:   7    -0.240472339797E+02   -0.39440E-03   -0.20322E-04    64   0.105E-01    0.113E-01
RMM:   8    -0.240469758538E+02    0.25813E-03   -0.32617E-03    64   0.327E-01    0.254E-02
RMM:   9    -0.240472150427E+02   -0.23919E-03   -0.41779E-04    64   0.131E-01    0.508E-02
RMM:  10    -0.240472284233E+02   -0.13381E-04   -0.11221E-04    64   0.626E-02    0.273E-02
RMM:  11    -0.240472815106E+02   -0.53087E-04   -0.15122E-04    64   0.746E-02    0.422E-03
RMM:  12    -0.240473138063E+02   -0.32296E-04   -0.12570E-05    64   0.257E-02    0.588E-03
RMM:  13    -0.240473301273E+02   -0.16321E-04   -0.15777E-06    48   0.834E-03    0.638E-03
RMM:  14    -0.240473387572E+02   -0.86299E-05   -0.13810E-06    48   0.740E-03    0.376E-03
RMM:  15    -0.240473411149E+02   -0.23577E-05   -0.27984E-06    60   0.106E-02    0.969E-04
RMM:  16    -0.240473427541E+02   -0.16392E-05   -0.26710E-07    48   0.437E-03    0.887E-04
RMM:  17    -0.240473436385E+02   -0.88437E-06   -0.73759E-08    48   0.229E-03
    2 T=   118. E= -.23986160E+02 F= -.24047344E+02 E0= -.24057627E+02  EK= 0.60789E-01 SP= 0.14E-03 SK= 0.26E-03
       N       E                     dE             d eps       ncg     rms          rms(c)
DAV:   1    -0.240133427364E+02    0.34000E-01   -0.92774E-01    64   0.947E+00    0.581E-01
RMM:   2    -0.240218157366E+02   -0.84730E-02   -0.17522E-01    64   0.276E+00    0.869E-01
RMM:   3    -0.240152630690E+02    0.65527E-02   -0.14734E-02    64   0.820E-01    0.734E-01
RMM:   4    -0.240027877897E+02    0.12475E-01   -0.18067E-01    64   0.241E+00    0.241E-01
RMM:   5    -0.240022986191E+02    0.48917E-03   -0.28068E-03    64   0.441E-01    0.245E-01
RMM:   6    -0.240004179745E+02    0.18806E-02   -0.12290E-02    64   0.631E-01    0.741E-02
RMM:   7    -0.240003111718E+02    0.10680E-03   -0.11963E-04    64   0.946E-02    0.533E-02
RMM:   8    -0.240002813253E+02    0.29847E-04   -0.16100E-04    64   0.747E-02    0.314E-02
RMM:   9    -0.240002985415E+02   -0.17216E-04   -0.14812E-04    64   0.753E-02    0.200E-02
RMM:  10    -0.240003155287E+02   -0.16987E-04   -0.15118E-04    64   0.705E-02    0.124E-02
RMM:  11    -0.240003212951E+02   -0.57664E-05   -0.19404E-05    64   0.278E-02    0.374E-03
RMM:  12    -0.240003285221E+02   -0.72270E-05   -0.15065E-05    64   0.233E-02    0.663E-03
RMM:  13    -0.240003299603E+02   -0.14382E-05   -0.13030E-06    48   0.786E-03    0.378E-03
RMM:  14    -0.240003316519E+02   -0.16917E-05   -0.28225E-06    56   0.107E-02    0.842E-04
RMM:  15    -0.240003322680E+02   -0.61608E-06   -0.25284E-07    48   0.433E-03
    3 T=    69. E= -.23962425E+02 F= -.24000332E+02 E0= -.24004212E+02  EK= 0.35786E-01 SP= 0.11E-02 SK= 0.99E-03
       N       E                     dE             d eps       ncg     rms          rms(c)
DAV:   1    -0.240475740422E+02   -0.47242E-01   -0.98029E-01    64   0.105E+01    0.750E-01
RMM:   2    -0.240275708836E+02    0.20003E-01   -0.10152E-01    64   0.230E+00    0.415E-01
RMM:   3    -0.240373923426E+02   -0.98215E-02   -0.35376E-02    64   0.122E+00    0.579E-01
RMM:   4    -0.240282385196E+02    0.91538E-02   -0.34899E-02    64   0.109E+00    0.133E-01
RMM:   5    -0.240281751212E+02    0.63398E-04   -0.24826E-03    64   0.349E-01    0.629E-02
RMM:   6    -0.240282881661E+02   -0.11304E-03   -0.46615E-04    64   0.150E-01    0.208E-02
RMM:   7    -0.240284166135E+02   -0.12845E-03   -0.10484E-04    64   0.699E-02    0.642E-03
RMM:   8    -0.240284710676E+02   -0.54454E-04   -0.10889E-05    64   0.222E-02    0.841E-03
RMM:   9    -0.240284912342E+02   -0.20167E-04   -0.28622E-05    64   0.311E-02    0.519E-03
RMM:  10    -0.240284953789E+02   -0.41447E-05   -0.11017E-06    48   0.783E-03    0.347E-03
RMM:  11    -0.240284966815E+02   -0.13026E-05   -0.29817E-06    56   0.997E-03    0.620E-04
RMM:  12    -0.240284974588E+02   -0.77738E-06   -0.42032E-07    48   0.519E-03
    4 T=   134. E= -.23954248E+02 F= -.24028497E+02 E0= -.24032367E+02  EK= 0.69349E-01 SP= 0.24E-02 SK= 0.25E-02
       N       E                     dE             d eps       ncg     rms          rms(c)
DAV:   1    -0.240023090570E+02    0.26188E-01   -0.61531E-01    64   0.802E+00    0.397E-01
RMM:   2    -0.240162042121E+02   -0.13895E-01   -0.16600E-01    64   0.261E+00    0.708E-01
RMM:   3    -0.240019820746E+02    0.14222E-01   -0.63686E-02    64   0.146E+00    0.196E-01
RMM:   4    -0.240017168151E+02    0.26526E-03   -0.38948E-03    64   0.444E-01    0.899E-02
RMM:   5    -0.240016139222E+02    0.10289E-03   -0.11914E-03    64   0.212E-01    0.234E-02
RMM:   6    -0.240016624215E+02   -0.48499E-04   -0.68330E-05    64   0.603E-02    0.342E-02
RMM:   7    -0.240016772315E+02   -0.14810E-04   -0.66648E-06    64   0.178E-02    0.311E-02
RMM:   8    -0.240016858200E+02   -0.85886E-05   -0.21165E-04    64   0.836E-02    0.521E-03
RMM:   9    -0.240016931127E+02   -0.72927E-05   -0.94337E-06    64   0.219E-02    0.614E-03
RMM:  10    -0.240016972028E+02   -0.40901E-05   -0.46959E-06    64   0.125E-02    0.673E-04
RMM:  11    -0.240016998401E+02   -0.26373E-05   -0.39129E-07    48   0.469E-03    0.718E-04
RMM:  12    -0.240017005431E+02   -0.70296E-06   -0.82973E-08    48   0.223E-03
    5 T=   132. E= -.23922277E+02 F= -.24001701E+02 E0= -.24005566E+02  EK= 0.68316E-01 SP= 0.47E-02 SK= 0.64E-02
       N       E                     dE             d eps       ncg     rms          rms(c)
DAV:   1    -0.239915305070E+02    0.10169E-01   -0.12407E+00    64   0.110E+01    0.430E-01
RMM:   2    -0.241456670824E+02   -0.15414E+00   -0.87857E-01    64   0.541E+00    0.206E+00
RMM:   3    -0.240026588102E+02    0.14301E+00   -0.26832E-01    64   0.293E+00    0.853E-01
RMM:   4    -0.239944797070E+02    0.81791E-02   -0.28394E-01    64   0.312E+00    0.307E-01
RMM:   5    -0.239914288539E+02    0.30509E-02   -0.39872E-03    64   0.545E-01    0.171E-01
RMM:   6    -0.239909056373E+02    0.52322E-03   -0.54539E-03    64   0.406E-01    0.334E-02
RMM:   7    -0.239915946726E+02   -0.68904E-03   -0.28644E-03    64   0.321E-01    0.101E-01
RMM:   8    -0.239913712195E+02    0.22345E-03   -0.22395E-03    64   0.272E-01    0.239E-02
RMM:   9    -0.239913966121E+02   -0.25393E-04   -0.44453E-05    64   0.521E-02    0.929E-03
RMM:  10    -0.239914168490E+02   -0.20237E-04   -0.49496E-05    64   0.396E-02    0.563E-03
RMM:  11    -0.239914274734E+02   -0.10624E-04   -0.69285E-06    64   0.150E-02    0.163E-03
RMM:  12    -0.239914349673E+02   -0.74939E-05   -0.13651E-06    48   0.732E-03    0.248E-03
RMM:  13    -0.239914366331E+02   -0.16658E-05   -0.13503E-06    48   0.725E-03    0.859E-04
RMM:  14    -0.239914377833E+02   -0.11502E-05   -0.78891E-07    48   0.661E-03    0.217E-03
RMM:  15    -0.239914385449E+02   -0.76158E-06   -0.55938E-07    48   0.489E-03
    6 T=   129. E= -.23904542E+02 F= -.23991439E+02 E0= -.23996133E+02  EK= 0.66925E-01 SP= 0.80E-02 SK= 0.12E-01
       N       E                     dE             d eps       ncg     rms          rms(c)
DAV:   1    -0.240348678106E+02   -0.43430E-01   -0.67745E-01    64   0.814E+00    0.595E-01
RMM:   2    -0.240355530999E+02   -0.68529E-03   -0.47322E-02    64   0.166E+00    0.656E-01
RMM:   3    -0.240694610798E+02   -0.33908E-01   -0.30112E-01    64   0.312E+00    0.107E+00
RMM:   4    -0.240318012346E+02    0.37660E-01   -0.12783E-01    64   0.200E+00    0.199E-01
RMM:   5    -0.240333122467E+02   -0.15110E-02   -0.13061E-02    64   0.762E-01    0.230E-01
RMM:   6    -0.240345312904E+02   -0.12190E-02   -0.16902E-02    64   0.746E-01    0.235E-01
RMM:   7    -0.240340192202E+02    0.51207E-03   -0.45449E-04    64   0.168E-01    0.175E-01
RMM:   8    -0.240336376655E+02    0.38155E-03   -0.86334E-03    64   0.526E-01    0.432E-02
RMM:   9    -0.240336321172E+02    0.55483E-05   -0.89039E-05    64   0.825E-02    0.328E-02
RMM:  10    -0.240336334717E+02   -0.13545E-05   -0.29637E-04    64   0.959E-02    0.115E-02
RMM:  11    -0.240336474732E+02   -0.14002E-04   -0.87054E-06    64   0.195E-02    0.421E-03
RMM:  12    -0.240336585526E+02   -0.11079E-04   -0.19251E-05    64   0.254E-02    0.532E-03
RMM:  13    -0.240336608499E+02   -0.22974E-05   -0.37061E-06    60   0.113E-02    0.516E-04
RMM:  14    -0.240336618722E+02   -0.10223E-05   -0.60875E-07    48   0.591E-03    0.976E-04
RMM:  15    -0.240336622656E+02   -0.39340E-06   -0.10996E-07    48   0.272E-03
    7 T=   172. E= -.23911091E+02 F= -.24033662E+02 E0= -.24042598E+02  EK= 0.88751E-01 SP= 0.12E-01 SK= 0.21E-01
       N       E                     dE             d eps       ncg     rms          rms(c)
DAV:   1    -0.239334603469E+02    0.10020E+00   -0.10301E+00    64   0.964E+00    0.731E-01
RMM:   2    -0.239305214187E+02    0.29389E-02   -0.72130E-02    64   0.217E+00    0.380E-01
RMM:   3    -0.239723418506E+02   -0.41820E-01   -0.17612E-01    64   0.246E+00    0.110E+00
RMM:   4    -0.239310806572E+02    0.41261E-01   -0.27545E-01    64   0.293E+00    0.213E-01
RMM:   5    -0.239312116888E+02   -0.13103E-03   -0.43617E-03    64   0.542E-01    0.179E-01
RMM:   6    -0.239307055970E+02    0.50609E-03   -0.21633E-03    64   0.267E-01    0.913E-02
RMM:   7    -0.239311086641E+02   -0.40307E-03   -0.11281E-03    64   0.211E-01    0.575E-02
RMM:   8    -0.239311853451E+02   -0.76681E-04   -0.10872E-04    64   0.707E-02    0.438E-02
RMM:   9    -0.239312442870E+02   -0.58942E-04   -0.73317E-04    64   0.152E-01    0.510E-02
RMM:  10    -0.239312360092E+02    0.82778E-05   -0.48397E-04    64   0.126E-01    0.205E-02
RMM:  11    -0.239312551650E+02   -0.19156E-04   -0.51356E-05    64   0.446E-02    0.760E-03
RMM:  12    -0.239312848449E+02   -0.29680E-04   -0.37844E-05    64   0.370E-02    0.118E-02
RMM:  13    -0.239312946224E+02   -0.97775E-05   -0.17551E-05    64   0.250E-02    0.179E-03
RMM:  14    -0.239313014904E+02   -0.68680E-05   -0.54270E-06    60   0.150E-02    0.293E-03
RMM:  15    -0.239313049169E+02   -0.34264E-05   -0.13148E-06    48   0.743E-03    0.111E-03
RMM:  16    -0.239313058876E+02   -0.97070E-06   -0.19918E-07    48   0.372E-03
    8 T=    51. E= -.23859081E+02 F= -.23931306E+02 E0= -.23935515E+02  EK= 0.26288E-01 SP= 0.18E-01 SK= 0.28E-01
       N       E                     dE             d eps       ncg     rms          rms(c)
DAV:   1    -0.240354624851E+02   -0.10416E+00   -0.11891E+00    64   0.110E+01    0.367E-01
RMM:   2    -0.240681446747E+02   -0.32682E-01   -0.21770E-01    64   0.302E+00    0.103E+00
RMM:   3    -0.240420669140E+02    0.26078E-01   -0.29601E-01    64   0.308E+00    0.382E-01
RMM:   4    -0.240368794281E+02    0.51875E-02   -0.10155E-02    64   0.656E-01    0.126E-01
RMM:   5    -0.240394656397E+02   -0.25862E-02   -0.23879E-02    64   0.902E-01    0.238E-01
RMM:   6    -0.240376193394E+02    0.18463E-02   -0.12643E-02    64   0.650E-01    0.470E-02
RMM:   7    -0.240376939182E+02   -0.74579E-04   -0.45961E-04    64   0.165E-01    0.121E-02
RMM:   8    -0.240378032075E+02   -0.10929E-03   -0.20387E-04    64   0.828E-02    0.232E-02
RMM:   9    -0.240378037643E+02   -0.55680E-06   -0.72823E-05    64   0.489E-02    0.377E-03
RMM:  10    -0.240378196950E+02   -0.15931E-04   -0.85588E-06    64   0.194E-02    0.199E-03
RMM:  11    -0.240378265206E+02   -0.68257E-05   -0.63354E-07    48   0.552E-03    0.111E-03
RMM:  12    -0.240378302899E+02   -0.37692E-05   -0.90376E-07    48   0.608E-03    0.149E-03
RMM:  13    -0.240378314443E+02   -0.11545E-05   -0.14285E-07    48   0.291E-03    0.103E-03
RMM:  14    -0.240378319836E+02   -0.53927E-06   -0.15927E-07    48   0.235E-03
    9 T=   133. E= -.23911144E+02 F= -.24037832E+02 E0= -.24042825E+02  EK= 0.68850E-01 SP= 0.24E-01 SK= 0.34E-01
       N       E                     dE             d eps       ncg     rms          rms(c)
DAV:   1    -0.240039877814E+02    0.33844E-01   -0.63859E-01    64   0.845E+00    0.356E-01
RMM:   2    -0.240059433020E+02   -0.19555E-02   -0.41848E-02    64   0.177E+00    0.271E-01
RMM:   3    -0.240054705065E+02    0.47280E-03   -0.69074E-03    64   0.586E-01    0.137E-01
RMM:   4    -0.240071901946E+02   -0.17197E-02   -0.17045E-02    64   0.772E-01    0.235E-01
RMM:   5    -0.240054138743E+02    0.17763E-02   -0.23193E-03    64   0.297E-01    0.124E-01
RMM:   6    -0.240050373090E+02    0.37657E-03   -0.12369E-03    64   0.225E-01    0.590E-02
RMM:   7    -0.240050685148E+02   -0.31206E-04   -0.19220E-04    64   0.980E-02    0.520E-02
RMM:   8    -0.240053718223E+02   -0.30331E-03   -0.16297E-03    64   0.237E-01    0.505E-02
RMM:   9    -0.240053582972E+02    0.13525E-04   -0.29149E-05    64   0.433E-02    0.379E-02
RMM:  10    -0.240053624264E+02   -0.41292E-05   -0.36293E-04    64   0.109E-01    0.107E-02
RMM:  11    -0.240053777589E+02   -0.15332E-04   -0.51775E-06    64   0.182E-02    0.461E-03
RMM:  12    -0.240053888106E+02   -0.11052E-04   -0.14956E-06    48   0.871E-03    0.382E-03
RMM:  13    -0.240053928143E+02   -0.40037E-05   -0.52324E-07    48   0.511E-03    0.331E-03
RMM:  14    -0.240053936590E+02   -0.84472E-06   -0.19768E-06    48   0.886E-03
   10 T=    82. E= -.23890503E+02 F= -.24005394E+02 E0= -.24014000E+02  EK= 0.42377E-01 SP= 0.31E-01 SK= 0.41E-01
