 vasp.5.4.4.18Apr17-6-g9f103f2a35 (build Jul 12 2018 13:43:46) complex           
 executed on             LinuxGNU date 2019.06.22  02:17:35
 running on    1 total cores
 distrk:  each k-point on    1 cores,    1 groups
 distr:  one band on NCORES_PER_BAND=   1 cores,    1 groups


--------------------------------------------------------------------------------------------------------


 INCAR:
 POTCAR:    PAW_PBE H 15Jun2001                   
 POTCAR:    PAW_PBE C 08Apr2002                   
 POTCAR:    PAW_PBE H 15Jun2001                   
   VRHFIN =H: ultrasoft test                                                    
   LEXCH  = PE                                                                  
   EATOM  =    12.4884 eV,    0.9179 Ry                                         
                                                                                
   TITEL  = PAW_PBE H 15Jun2001                                                 
   LULTRA =        F    use ultrasoft PP ?                                      
   IUNSCR =        0    unscreen: 0-lin 1-nonlin 2-no                           
   RPACOR =    0.000    partial core radius                                     
   POMASS =    1.000; ZVAL   =    1.000    mass and valenz                      
   RCORE  =    1.100    outmost cutoff radius                                   
   RWIGS  =    0.700; RWIGS  =    0.370    wigner-seitz radius (au A)           
   ENMAX  =  250.000; ENMIN  =  200.000 eV                                      
   RCLOC  =    0.701    cutoff for local pot                                    
   LCOR   =        T    correct aug charges                                     
   LPAW   =        T    paw PP                                                  
   EAUG   =  400.000                                                            
   RMAX   =    1.123    core radius for proj-oper                               
   RAUG   =    1.200    factor for augmentation sphere                          
   RDEP   =    1.112    radius for radial grids                                 
   RDEPT  =    0.926    core radius for aug-charge                              
                                                                                
   Atomic configuration                                                         
    2 entries                                                                   
     n  l   j            E        occ.                                          
     1  0  0.50        -6.4927   1.0000                                         
     2  1  0.50        -3.4015   0.0000                                         
   Description                                                                  
     l       E           TYP  RCUT    TYP  RCUT                                 
     0     -6.4927494     23  1.100                                             
     0      6.8029130     23  1.100                                             
     1     -4.0817478     23  1.100                                             
  local pseudopotential read in
  atomic valenz-charges read in
  non local Contribution for L=           0  read in
    real space projection operators read in
  non local Contribution for L=           0  read in
    real space projection operators read in
  non local Contribution for L=           1  read in
    real space projection operators read in
    PAW grid and wavefunctions read in

   number of l-projection  operators is LMAX  =           3
   number of lm-projection operators is LMMAX =           5

 POTCAR:    PAW_PBE C 08Apr2002                   
   VRHFIN =C: s2p2                                                              
   LEXCH  = PE                                                                  
   EATOM  =   147.1560 eV,   10.8157 Ry                                         
                                                                                
   TITEL  = PAW_PBE C 08Apr2002                                                 
   LULTRA =        F    use ultrasoft PP ?                                      
   IUNSCR =        1    unscreen: 0-lin 1-nonlin 2-no                           
   RPACOR =    1.200    partial core radius                                     
   POMASS =   12.011; ZVAL   =    4.000    mass and valenz                      
   RCORE  =    1.500    outmost cutoff radius                                   
   RWIGS  =    1.630; RWIGS  =    0.863    wigner-seitz radius (au A)           
   ENMAX  =  400.000; ENMIN  =  300.000 eV                                      
   ICORE  =        2    local potential                                         
   LCOR   =        T    correct aug charges                                     
   LPAW   =        T    paw PP                                                  
   EAUG   =  644.873                                                            
   DEXC   =    0.000                                                            
   RMAX   =    1.529    core radius for proj-oper                               
   RAUG   =    1.300    factor for augmentation sphere                          
   RDEP   =    1.501    radius for radial grids                                 
   RDEPT  =    1.300    core radius for aug-charge                              
                                                                                
   Atomic configuration                                                         
    4 entries                                                                   
     n  l   j            E        occ.                                          
     1  0  0.50      -273.3789   2.0000                                         
     2  0  0.50       -13.7508   2.0000                                         
     2  1  0.50        -5.2854   2.0000                                         
     3  2  1.50        -5.4423   0.0000                                         
   Description                                                                  
     l       E           TYP  RCUT    TYP  RCUT                                 
     0    -13.7508458     23  1.200                                             
     0     -8.2022199     23  1.200                                             
     1     -5.2854383     23  1.500                                             
     1     34.0145650     23  1.500                                             
     2     -5.4423304      7  1.500                                             
  local pseudopotential read in
  partial core-charges read in
  partial kinetic energy density read in
  atomic valenz-charges read in
  non local Contribution for L=           0  read in
    real space projection operators read in
  non local Contribution for L=           0  read in
    real space projection operators read in
  non local Contribution for L=           1  read in
    real space projection operators read in
  non local Contribution for L=           1  read in
    real space projection operators read in
    PAW grid and wavefunctions read in

   number of l-projection  operators is LMAX  =           4
   number of lm-projection operators is LMMAX =           8


 ----------------------------------------------------------------------------- 
|                                                                             |
|  ADVICE TO THIS USER RUNNING 'VASP/VAMP'   (HEAR YOUR MASTER'S VOICE ...):  |
|                                                                             |
|      You have a (more or less) 'small supercell' and for smaller cells      |
|      it is recommended  to use the reciprocal-space projection scheme!      |
|      The real space optimization is not  efficient for small cells and it   |
|      is also less accurate ...                                              |
|      Therefore set LREAL=.FALSE. in the  INCAR file                         |
|                                                                             |
 ----------------------------------------------------------------------------- 


 ----------------------------------------------------------------------------- 
|                                                                             |
|           W    W    AA    RRRRR   N    N  II  N    N   GGGG   !!!           |
|           W    W   A  A   R    R  NN   N  II  NN   N  G    G  !!!           |
|           W    W  A    A  R    R  N N  N  II  N N  N  G       !!!           |
|           W WW W  AAAAAA  RRRRR   N  N N  II  N  N N  G  GGG   !            |
|           WW  WW  A    A  R   R   N   NN  II  N   NN  G    G                |
|           W    W  A    A  R    R  N    N  II  N    N   GGGG   !!!           |
|                                                                             |
|     The real-space-projection scheme for the treatment of the nonlocal      |
|     pseudopotentials has been switched on -- but on file POTCAR I have      |
|     not found any entries signalling me that you have ever performed a      |
|     real-space optimization of all nonlocal projectors! BE WARNED that      |
|     a calculation using the real-space-projection scheme together with      |
|     nonlocal projectors which were not real-space-optimized (according      |
|     to the plane-wave-cutoff used in this calculation) might give more      |
|     or less inaccurate results                                              |
|     I hope you know what you are doing                                      |
|                                                                             |
 ----------------------------------------------------------------------------- 

  PAW_PBE H 15Jun2001                   :
 energy of atom  1       EATOM=  -12.4884
 kinetic energy error for atom=    0.0098 (will be added to EATOM!!)
  PAW_PBE C 08Apr2002                   :
 energy of atom  2       EATOM= -147.1560
 kinetic energy error for atom=    0.0288 (will be added to EATOM!!)


 POSCAR:  H  C                                   
  positions in cartesian coordinates
  No initial velocities read in
 exchange correlation table for  LEXCH =        8
   RHO(1)=    0.500       N(1)  =     2000
   RHO(2)=  100.500       N(2)  =     4000



--------------------------------------------------------------------------------------------------------


 ion  position               nearest neighbor table
   1  0.538  0.407  0.361-   5 1.12
   2  0.394  0.480  0.439-   5 1.10
   3  0.551  0.565  0.443-   5 1.06
   4  0.528  0.416  0.539-   5 1.10
   5  0.503  0.468  0.445-   3 1.06   2 1.10   4 1.10   1 1.12


IMPORTANT INFORMATION: All symmetrisations will be switched off!
NOSYMM: (Re-)initialisation of all symmetry stuff for point group C_1.




Automatic generation of k-mesh.
 generate k-points for:    2    2    2
Space group operators:
 irot       det(A)        alpha          n_x          n_y          n_z        tau_x        tau_y        tau_z
    1     1.000000     0.000000     1.000000     0.000000     0.000000     0.000000     0.000000     0.000000
 
 Subroutine IBZKPT returns following result:
 ===========================================
 
 Found      4 irreducible k-points:
 
 Following reciprocal coordinates:
            Coordinates               Weight
  0.250000  0.250000  0.250000      2.000000
 -0.250000  0.250000  0.250000      2.000000
  0.250000 -0.250000  0.250000      2.000000
 -0.250000 -0.250000  0.250000      2.000000
 
 Following cartesian coordinates:
            Coordinates               Weight
  0.024888  0.025833  0.024315      2.000000
 -0.024888  0.025677  0.022891      2.000000
  0.024888 -0.025677  0.025769      2.000000
 -0.024888 -0.025833  0.024345      2.000000
 


--------------------------------------------------------------------------------------------------------




 Dimension of arrays:
   k-points           NKPTS =      4   k-points in BZ     NKDIM =      4   number of bands    NBANDS=      8
   number of dos      NEDOS =    301   number of ions     NIONS =      5
   non local maximal  LDIM  =      4   non local SUM 2l+1 LMDIM =      8
   total plane-waves  NPLWV = 313600
   max r-space proj   IRMAX =    744   max aug-charges    IRDMAX=   3893
   dimension x,y,z NGX =    70 NGY =   64 NGZ =   70
   dimension x,y,z NGXF=   140 NGYF=  128 NGZF=  140
   support grid    NGXF=   140 NGYF=  128 NGZF=  140
   ions per type =               4   1
   NGX,Y,Z   is equivalent  to a cutoff of  11.58, 10.96, 11.32 a.u.
   NGXF,Y,Z  is equivalent  to a cutoff of  23.17, 21.92, 22.63 a.u.

 SYSTEM =  unknown system                          
 POSCAR =   H  C                                   

 Startparameter for this run:
   NWRITE =      2    write-flag & timer
   PREC   = a         normal or accurate (medium, high low for compatibility)
   ISTART =      0    job   : 0-new  1-cont  2-samecut
   ICHARG =      2    charge: 1-file 2-atom 10-const
   ISPIN  =      1    spin polarized calculation?
   LNONCOLLINEAR =      F non collinear calculations
   LSORBIT =      F    spin-orbit coupling
   INIWAV =      1    electr: 0-lowe 1-rand  2-diag
   LASPH  =      F    aspherical Exc in radial PAW
   METAGGA=      F    non-selfconsistent MetaGGA calc.

 Electronic Relaxation 1
   ENCUT  =  400.0 eV  29.40 Ry    5.42 a.u.  16.38 15.83 16.77*2*pi/ulx,y,z
   ENINI  =  400.0     initial cutoff
   ENAUG  =  644.9 eV  augmentation charge cutoff
   NELM   =     60;   NELMIN=  2; NELMDL= -5     # of ELM steps 
   EDIFF  = 0.1E-05   stopping-criterion for ELM
   LREAL  =      T    real-space projection
   NLSPLINE    = F    spline interpolate recip. space projectors
   LCOMPAT=      F    compatible to vasp.4.4
   GGA_COMPAT  = T    GGA compatible to vasp.4.4-vasp.4.6
   LMAXPAW     = -100 max onsite density
   LMAXMIX     =    2 max onsite mixed and CHGCAR
   VOSKOWN=      0    Vosko Wilk Nusair interpolation
   ROPT   =    0.00000   0.00000
 Ionic relaxation
   EDIFFG = 0.1E-04   stopping-criterion for IOM
   NSW    =     10    number of steps for IOM
   NBLOCK =      1;   KBLOCK =      1    inner block; outer block 
   IBRION =      0    ionic relax: 0-MD 1-quasi-New 2-CG
   NFREE  =      0    steps in history (QN), initial steepest desc. (CG)
   ISIF   =      2    stress and relaxation
   IWAVPR =     12    prediction:  0-non 1-charg 2-wave 3-comb
   ISYM   =      0    0-nonsym 1-usesym 2-fastsym
   LCORR  =      T    Harris-Foulkes like correction to forces

   POTIM  = 2.0000    time-step for ionic-motion
   TEIN   =   50.0    initial temperature
   TEBEG  =   50.0;   TEEND  =  50.0 temperature during run
   SMASS  =   0.00    Nose mass-parameter (am)
   estimated Nose-frequenzy (Omega)   =  0.79E+14 period in steps = 40.00 mass=   0.123E-29a.u.
   SCALEE = 1.0000    scale energy and forces
   NPACO  =    256;   APACO  = 16.0  distance and # of slots for P.C.
   PSTRESS=    0.0 pullay stress

  Mass of Ions in am
   POMASS =   1.00 12.01
  Ionic Valenz
   ZVAL   =   1.00  4.00
  Atomic Wigner-Seitz radii
   RWIGS  =  -1.00 -1.00
  virtual crystal weights 
   VCA    =   1.00  1.00
   NELECT =       8.0000    total number of electrons
   NUPDOWN=      -1.0000    fix difference up-down

 DOS related values:
   EMIN   =  10.00;   EMAX   =-10.00  energy-range for DOS
   EFERMI =   0.00
   ISMEAR =     1;   SIGMA  =   0.20  broadening in eV -4-tet -1-fermi 0-gaus

 Electronic relaxation 2 (details)
   IALGO  =     68    algorithm
   LDIAG  =      T    sub-space diagonalisation (order eigenvalues)
   LSUBROT=      F    optimize rotation matrix (better conditioning)
   TURBO    =      0    0=normal 1=particle mesh
   IRESTART =      0    0=no restart 2=restart with 2 vectors
   NREBOOT  =      0    no. of reboots
   NMIN     =      0    reboot dimension
   EREF     =   0.00    reference energy to select bands
   IMIX   =      4    mixing-type and parameters
     AMIX     =   0.40;   BMIX     =  1.00
     AMIX_MAG =   1.60;   BMIX_MAG =  1.00
     AMIN     =   0.10
     WC   =   100.;   INIMIX=   1;  MIXPRE=   1;  MAXMIX=  50

 Intra band minimization:
   WEIMIN = 0.0010     energy-eigenvalue tresh-hold
   EBREAK =  0.31E-07  absolut break condition
   DEPER  =   0.30     relativ break condition  

   TIME   =   0.40     timestep for ELM

  volume/ion in A,a.u.               =     200.38      1352.26
  Fermi-wavevector in a.u.,A,eV,Ry     =   0.327210  0.618337  1.456726  0.107066
  Thomas-Fermi vector in A             =   1.219740

 Write flags
   LWAVE        =      F    write WAVECAR
   LDOWNSAMPLE  =      F    k-point downsampling of WAVECAR
   LCHARG       =      F    write CHGCAR
   LVTOT        =      F    write LOCPOT, total local potential
   LVHAR        =      F    write LOCPOT, Hartree potential only
   LELF         =      F    write electronic localiz. function (ELF)
   LORBIT       =      0    0 simple, 1 ext, 2 COOP (PROOUT), +10 PAW based schemes


 Dipole corrections
   LMONO  =      F    monopole corrections only (constant potential shift)
   LDIPOL =      F    correct potential (dipole corrections)
   IDIPOL =      0    1-x, 2-y, 3-z, 4-all directions 
   EPSILON=  1.0000000 bulk dielectric constant

 Exchange correlation treatment:
   GGA     =    --    GGA type
   LEXCH   =     8    internal setting for exchange type
   VOSKOWN=      0    Vosko Wilk Nusair interpolation
   LHFCALC =     F    Hartree Fock is set to
   LHFONE  =     F    Hartree Fock one center treatment
   AEXX    =    0.0000 exact exchange contribution

 Linear response parameters
   LEPSILON=     F    determine dielectric tensor
   LRPA    =     F    only Hartree local field effects (RPA)
   LNABLA  =     F    use nabla operator in PAW spheres
   LVEL    =     F    velocity operator in full k-point grid
   LINTERFAST=   F  fast interpolation
   KINTER  =     0    interpolate to denser k-point grid
   CSHIFT  =0.1000    complex shift for real part using Kramers Kronig
   OMEGAMAX=  -1.0    maximum frequency
   DEG_THRESHOLD= 0.2000000E-02 threshold for treating states as degnerate
   RTIME   =   -0.100 relaxation time in fs
  (WPLASMAI=    0.000 imaginary part of plasma frequency in eV, 0.658/RTIME)
   DFIELD  = 0.0000000 0.0000000 0.0000000 field for delta impulse in time

 Orbital magnetization related:
   ORBITALMAG=     F  switch on orbital magnetization
   LCHIMAG   =     F  perturbation theory with respect to B field
   DQ        =  0.001000  dq finite difference perturbation B field
   LLRAUG    =     F  two centre corrections for induced B field



--------------------------------------------------------------------------------------------------------


 molecular dynamics for ions
   using nose mass (canonical ensemble)
 charge density and potential will be updated during run
 non-spin polarized calculation
 RMM-DIIS sequential band-by-band and
  variant of blocked Davidson during initial phase
 perform sub-space diagonalisation
    before iterative eigenvector-optimisation
 modified Broyden-mixing scheme, WC =      100.0
 initial mixing is a Kerker type mixing with AMIX =  0.4000 and BMIX =      1.0000
 Hartree-type preconditioning will be used
 using additional bands            4
 real space projection scheme for non local part
 use partial core corrections
 calculate Harris-corrections to forces   (improved forces if not selfconsistent)
 use gradient corrections 
 use of overlap-Matrix (Vanderbilt PP)
 Methfessel and Paxton  Order N= 1 SIGMA  =   0.20


--------------------------------------------------------------------------------------------------------


  energy-cutoff  :      400.00
  volume of cell :     1001.92
      direct lattice vectors                 reciprocal lattice vectors
    10.045102543  0.000000000  0.000000000     0.099551000  0.000311601  0.002847855
    -0.030383123  9.706870376  0.000000000     0.000000000  0.103019816 -0.002907774
    -0.294857830  0.290028746 10.275458653     0.000000000 -0.000000000  0.097319257

  length of vectors
    10.045102543  9.706917926 10.283778894     0.099592213  0.103060844  0.097319257



 k-points in units of 2pi/SCALE and weight: read from INCAR                         
   0.02488775  0.02583285  0.02431483       0.250
  -0.02488775  0.02567705  0.02289091       0.250
   0.02488775 -0.02567705  0.02576872       0.250
  -0.02488775 -0.02583285  0.02434479       0.250

 k-points in reciprocal lattice and weights: read from INCAR                         
   0.25000000  0.25000000  0.25000000       0.250
  -0.25000000  0.25000000  0.25000000       0.250
   0.25000000 -0.25000000  0.25000000       0.250
  -0.25000000 -0.25000000  0.25000000       0.250

 position of ions in fractional coordinates (direct lattice) 
   0.53788060  0.40718744  0.36092525
   0.39440818  0.48040633  0.43860556
   0.55147627  0.56476974  0.44258666
   0.52823731  0.41634598  0.53917024
   0.50310888  0.46790003  0.44460369

 position of ions in cartesian coordinates  (Angst):
   5.28427253  4.05719442  3.70867249
   3.81794806  4.79045015  4.50687329
   5.39197606  5.61050954  4.54778089
   5.13456952  4.19779135  5.54022148
   4.90846916  4.67079276  4.56850680



--------------------------------------------------------------------------------------------------------


 k-point  1 :   0.2500 0.2500 0.2500  plane waves:   18203
 k-point  2 :  -0.2500 0.2500 0.2500  plane waves:   18188
 k-point  3 :   0.2500-0.2500 0.2500  plane waves:   18187
 k-point  4 :  -0.2500-0.2500 0.2500  plane waves:   18202

 maximum and minimum number of plane-waves per node :     18203    18187

 maximum number of plane-waves:     18203
 maximum index in each direction: 
   IXMAX=   16   IYMAX=   16   IZMAX=   16
   IXMIN=  -16   IYMIN=  -16   IZMIN=  -17


 serial   3D FFT for wavefunctions
 parallel 3D FFT for charge:
    minimum data exchange during FFTs selected (reduces bandwidth)


 total amount of memory used by VASP MPI-rank0   280628. kBytes
=======================================================================

   base      :      30000. kBytes
   nonlr-proj:        153. kBytes
   fftplans  :      86584. kBytes
   grid      :     154542. kBytes
   one-center:         15. kBytes
   wavefun   :       9334. kBytes

     INWAV:  cpu time    0.0000: real time    0.0000
 Broyden mixing: mesh for mixing (old mesh)
   NGX = 33   NGY = 31   NGZ = 33
  (NGX  =140   NGY  =128   NGZ  =140)
  gives a total of  33759 points

 initial charge density was supplied:
 charge density of overlapping atoms calculated
 number of electron       8.0000000 magnetization 
 keeping initial charge density in first step


--------------------------------------------------------------------------------------------------------


 Maximum index for non-local projection operator          674
 Maximum index for augmentation-charges         3586 (set IRDMAX)


--------------------------------------------------------------------------------------------------------


 First call to EWALD:  gamma=   0.177
 Maximum number of real-space cells 3x 3x 3
 Maximum number of reciprocal cells 3x 3x 3

    FEWALD:  cpu time    0.0007: real time    0.0007


--------------------------------------- Iteration      1(   1)  ---------------------------------------


    POTLOK:  cpu time    1.6677: real time    1.6722
    SETDIJ:  cpu time    0.0067: real time    0.0067
     EDDAV:  cpu time    2.8177: real time    2.8244
       DOS:  cpu time    0.0003: real time    0.0003
    --------------------------------------------
      LOOP:  cpu time    4.4924: real time    4.5035

 eigenvalue-minimisations  :    96
 total energy-change (2. order) : 0.1886398E+02  (-0.2032478E+03)
 number of electron       8.0000000 magnetization 
 augmentation part        8.0000000 magnetization 

 Free energy of the ion-electron system (eV)
  ---------------------------------------------------
  alpha Z        PSCENC =         0.24178557
  Ewald energy   TEWEN  =       129.37132068
  -Hartree energ DENC   =      -244.35620681
  -exchange      EXHF   =         0.00000000
  -V(xc)+E(xc)   XCENC  =        22.02018920
  PAW double counting   =       117.05815612     -117.66307307
  entropy T*S    EENTRO =         0.00303487
  eigenvalues    EBANDS =       -84.85298136
  atomic energy  EATOM  =       197.04175453
  Solvation  Ediel_sol  =         0.00000000
  ---------------------------------------------------
  free energy    TOTEN  =        18.86397974 eV

  energy without entropy =       18.86094487  energy(sigma->0) =       18.86296812


--------------------------------------------------------------------------------------------------------




--------------------------------------- Iteration      1(   2)  ---------------------------------------


     EDDAV:  cpu time    2.2184: real time    2.2238
       DOS:  cpu time    0.0002: real time    0.0002
    --------------------------------------------
      LOOP:  cpu time    2.2186: real time    2.2240

 eigenvalue-minimisations  :    72
 total energy-change (2. order) :-0.4085894E+02  (-0.4085864E+02)
 number of electron       8.0000000 magnetization 
 augmentation part        8.0000000 magnetization 

 Free energy of the ion-electron system (eV)
  ---------------------------------------------------
  alpha Z        PSCENC =         0.24178557
  Ewald energy   TEWEN  =       129.37132068
  -Hartree energ DENC   =      -244.35620681
  -exchange      EXHF   =         0.00000000
  -V(xc)+E(xc)   XCENC  =        22.02018920
  PAW double counting   =       117.05815612     -117.66307307
  entropy T*S    EENTRO =         0.00290764
  eigenvalues    EBANDS =      -125.71179124
  atomic energy  EATOM  =       197.04175453
  Solvation  Ediel_sol  =         0.00000000
  ---------------------------------------------------
  free energy    TOTEN  =       -21.99495737 eV

  energy without entropy =      -21.99786502  energy(sigma->0) =      -21.99592659


--------------------------------------------------------------------------------------------------------




--------------------------------------- Iteration      1(   3)  ---------------------------------------


     EDDAV:  cpu time    2.0123: real time    2.0171
       DOS:  cpu time    0.0002: real time    0.0002
    --------------------------------------------
      LOOP:  cpu time    2.0126: real time    2.0173

 eigenvalue-minimisations  :    64
 total energy-change (2. order) :-0.5347252E+01  (-0.5358500E+01)
 number of electron       8.0000000 magnetization 
 augmentation part        8.0000000 magnetization 

 Free energy of the ion-electron system (eV)
  ---------------------------------------------------
  alpha Z        PSCENC =         0.24178557
  Ewald energy   TEWEN  =       129.37132068
  -Hartree energ DENC   =      -244.35620681
  -exchange      EXHF   =         0.00000000
  -V(xc)+E(xc)   XCENC  =        22.02018920
  PAW double counting   =       117.05815612     -117.66307307
  entropy T*S    EENTRO =         0.02387712
  eigenvalues    EBANDS =      -131.08001230
  atomic energy  EATOM  =       197.04175453
  Solvation  Ediel_sol  =         0.00000000
  ---------------------------------------------------
  free energy    TOTEN  =       -27.34220896 eV

  energy without entropy =      -27.36608608  energy(sigma->0) =      -27.35016800


--------------------------------------------------------------------------------------------------------




--------------------------------------- Iteration      1(   4)  ---------------------------------------


     EDDAV:  cpu time    3.6360: real time    3.6445
       DOS:  cpu time    0.0002: real time    0.0002
    --------------------------------------------
      LOOP:  cpu time    3.6362: real time    3.6448

 eigenvalue-minimisations  :   128
 total energy-change (2. order) :-0.2285063E+00  (-0.2277968E+00)
 number of electron       8.0000000 magnetization 
 augmentation part        8.0000000 magnetization 

 Free energy of the ion-electron system (eV)
  ---------------------------------------------------
  alpha Z        PSCENC =         0.24178557
  Ewald energy   TEWEN  =       129.37132068
  -Hartree energ DENC   =      -244.35620681
  -exchange      EXHF   =         0.00000000
  -V(xc)+E(xc)   XCENC  =        22.02018920
  PAW double counting   =       117.05815612     -117.66307307
  entropy T*S    EENTRO =         0.02481512
  eigenvalues    EBANDS =      -131.30945659
  atomic energy  EATOM  =       197.04175453
  Solvation  Ediel_sol  =         0.00000000
  ---------------------------------------------------
  free energy    TOTEN  =       -27.57071524 eV

  energy without entropy =      -27.59553036  energy(sigma->0) =      -27.57898695


--------------------------------------------------------------------------------------------------------




--------------------------------------- Iteration      1(   5)  ---------------------------------------


     EDDAV:  cpu time    2.7505: real time    2.7571
       DOS:  cpu time    0.0002: real time    0.0002
    CHARGE:  cpu time    0.1981: real time    0.1986
    MIXING:  cpu time    0.0404: real time    0.0405
    --------------------------------------------
      LOOP:  cpu time    2.9892: real time    2.9963

 eigenvalue-minimisations  :    96
 total energy-change (2. order) :-0.8501947E-04  (-0.8501941E-04)
 number of electron       8.0000003 magnetization 
 augmentation part        0.2248281 magnetization 

 Broyden mixing:
  rms(total) = 0.87091E+00    rms(broyden)= 0.87067E+00
  rms(prec ) = 0.12289E+01
  weight for this iteration     100.00

 Free energy of the ion-electron system (eV)
  ---------------------------------------------------
  alpha Z        PSCENC =         0.24178557
  Ewald energy   TEWEN  =       129.37132068
  -Hartree energ DENC   =      -244.35620681
  -exchange      EXHF   =         0.00000000
  -V(xc)+E(xc)   XCENC  =        22.02018920
  PAW double counting   =       117.05815612     -117.66307307
  entropy T*S    EENTRO =         0.02481543
  eigenvalues    EBANDS =      -131.30954191
  atomic energy  EATOM  =       197.04175453
  Solvation  Ediel_sol  =         0.00000000
  ---------------------------------------------------
  free energy    TOTEN  =       -27.57080026 eV

  energy without entropy =      -27.59561569  energy(sigma->0) =      -27.57907207


--------------------------------------------------------------------------------------------------------




--------------------------------------- Iteration      1(   6)  ---------------------------------------


    POTLOK:  cpu time    1.7037: real time    1.7077
    SETDIJ:  cpu time    0.0065: real time    0.0065
    EDDIAG:  cpu time    0.4232: real time    0.4242
  RMM-DIIS:  cpu time    1.4552: real time    1.4586
    ORTHCH:  cpu time    0.0120: real time    0.0120
       DOS:  cpu time    0.0002: real time    0.0002
    CHARGE:  cpu time    0.1818: real time    0.1822
    MIXING:  cpu time    0.0414: real time    0.0415
    --------------------------------------------
      LOOP:  cpu time    3.8238: real time    3.8329

 eigenvalue-minimisations  :    64
 total energy-change (2. order) : 0.2927174E+01  (-0.5429210E+00)
 number of electron       8.0000003 magnetization 
 augmentation part        0.1980139 magnetization 

 Broyden mixing:
  rms(total) = 0.41507E+00    rms(broyden)= 0.41497E+00
  rms(prec ) = 0.54406E+00
  weight for this iteration     100.00

 eigenvalues of (default mixing * dielectric matrix)
  average eigenvalue GAMMA=   1.3065
  1.3065

 Free energy of the ion-electron system (eV)
  ---------------------------------------------------
  alpha Z        PSCENC =         0.24178557
  Ewald energy   TEWEN  =       129.37132068
  -Hartree energ DENC   =      -264.18914852
  -exchange      EXHF   =         0.00000000
  -V(xc)+E(xc)   XCENC  =        23.22414116
  PAW double counting   =       224.26990453     -225.05145355
  entropy T*S    EENTRO =         0.02565847
  eigenvalues    EBANDS =      -109.57758938
  atomic energy  EATOM  =       197.04175453
  Solvation  Ediel_sol  =         0.00000000
  ---------------------------------------------------
  free energy    TOTEN  =       -24.64362649 eV

  energy without entropy =      -24.66928496  energy(sigma->0) =      -24.65217931


--------------------------------------------------------------------------------------------------------




--------------------------------------- Iteration      1(   7)  ---------------------------------------


    POTLOK:  cpu time    1.7092: real time    1.7132
    SETDIJ:  cpu time    0.0065: real time    0.0065
    EDDIAG:  cpu time    0.4452: real time    0.4462
  RMM-DIIS:  cpu time    1.4480: real time    1.4514
    ORTHCH:  cpu time    0.0121: real time    0.0121
       DOS:  cpu time    0.0002: real time    0.0002
    CHARGE:  cpu time    0.1977: real time    0.1982
    MIXING:  cpu time    0.0413: real time    0.0414
    --------------------------------------------
      LOOP:  cpu time    3.8601: real time    3.8692

 eigenvalue-minimisations  :    64
 total energy-change (2. order) : 0.4968987E+00  (-0.1229896E+00)
 number of electron       8.0000003 magnetization 
 augmentation part        0.1874655 magnetization 

 Broyden mixing:
  rms(total) = 0.21663E+00    rms(broyden)= 0.21656E+00
  rms(prec ) = 0.26540E+00
  weight for this iteration     100.00

 eigenvalues of (default mixing * dielectric matrix)
  average eigenvalue GAMMA=   1.8260
  1.4608  2.1912

 Free energy of the ion-electron system (eV)
  ---------------------------------------------------
  alpha Z        PSCENC =         0.24178557
  Ewald energy   TEWEN  =       129.37132068
  -Hartree energ DENC   =      -275.91915919
  -exchange      EXHF   =         0.00000000
  -V(xc)+E(xc)   XCENC  =        24.08531398
  PAW double counting   =       330.65062564     -331.47195084
  entropy T*S    EENTRO =         0.02707836
  eigenvalues    EBANDS =       -98.17349653
  atomic energy  EATOM  =       197.04175453
  Solvation  Ediel_sol  =         0.00000000
  ---------------------------------------------------
  free energy    TOTEN  =       -24.14672780 eV

  energy without entropy =      -24.17380616  energy(sigma->0) =      -24.15575392


--------------------------------------------------------------------------------------------------------




--------------------------------------- Iteration      1(   8)  ---------------------------------------


    POTLOK:  cpu time    1.6860: real time    1.6900
    SETDIJ:  cpu time    0.0065: real time    0.0066
    EDDIAG:  cpu time    0.4563: real time    0.4574
  RMM-DIIS:  cpu time    1.5061: real time    1.5096
    ORTHCH:  cpu time    0.0117: real time    0.0118
       DOS:  cpu time    0.0002: real time    0.0002
    CHARGE:  cpu time    0.1692: real time    0.1696
    MIXING:  cpu time    0.0408: real time    0.0409
    --------------------------------------------
      LOOP:  cpu time    3.8769: real time    3.8860

 eigenvalue-minimisations  :    64
 total energy-change (2. order) : 0.1464583E+00  (-0.1617115E-01)
 number of electron       8.0000003 magnetization 
 augmentation part        0.1860587 magnetization 

 Broyden mixing:
  rms(total) = 0.22531E-01    rms(broyden)= 0.22504E-01
  rms(prec ) = 0.52459E-01
  weight for this iteration     100.00

 eigenvalues of (default mixing * dielectric matrix)
  average eigenvalue GAMMA=   1.5363
  2.2475  0.9479  1.4135

 Free energy of the ion-electron system (eV)
  ---------------------------------------------------
  alpha Z        PSCENC =         0.24178557
  Ewald energy   TEWEN  =       129.37132068
  -Hartree energ DENC   =      -281.29244841
  -exchange      EXHF   =         0.00000000
  -V(xc)+E(xc)   XCENC  =        24.61765333
  PAW double counting   =       417.27223439     -418.06207854
  entropy T*S    EENTRO =         0.02739624
  eigenvalues    EBANDS =       -93.21788729
  atomic energy  EATOM  =       197.04175453
  Solvation  Ediel_sol  =         0.00000000
  ---------------------------------------------------
  free energy    TOTEN  =       -24.00026949 eV

  energy without entropy =      -24.02766572  energy(sigma->0) =      -24.00940157


--------------------------------------------------------------------------------------------------------




--------------------------------------- Iteration      1(   9)  ---------------------------------------


    POTLOK:  cpu time    1.6887: real time    1.6927
    SETDIJ:  cpu time    0.0065: real time    0.0065
    EDDIAG:  cpu time    0.4646: real time    0.4657
  RMM-DIIS:  cpu time    1.5311: real time    1.5348
    ORTHCH:  cpu time    0.0116: real time    0.0116
       DOS:  cpu time    0.0002: real time    0.0002
    CHARGE:  cpu time    0.1633: real time    0.1637
    MIXING:  cpu time    0.0411: real time    0.0412
    --------------------------------------------
      LOOP:  cpu time    3.9072: real time    3.9165

 eigenvalue-minimisations  :    64
 total energy-change (2. order) : 0.5954454E-02  (-0.1109209E-02)
 number of electron       8.0000003 magnetization 
 augmentation part        0.1855124 magnetization 

 Broyden mixing:
  rms(total) = 0.19930E-01    rms(broyden)= 0.19925E-01
  rms(prec ) = 0.40680E-01
  weight for this iteration     100.00

 eigenvalues of (default mixing * dielectric matrix)
  average eigenvalue GAMMA=   1.7446
  2.3253  2.3253  0.9394  1.3882

 Free energy of the ion-electron system (eV)
  ---------------------------------------------------
  alpha Z        PSCENC =         0.24178557
  Ewald energy   TEWEN  =       129.37132068
  -Hartree energ DENC   =      -282.54988107
  -exchange      EXHF   =         0.00000000
  -V(xc)+E(xc)   XCENC  =        24.69025970
  PAW double counting   =       420.94463197     -421.73654866
  entropy T*S    EENTRO =         0.02747566
  eigenvalues    EBANDS =       -92.02511342
  atomic energy  EATOM  =       197.04175453
  Solvation  Ediel_sol  =         0.00000000
  ---------------------------------------------------
  free energy    TOTEN  =       -23.99431503 eV

  energy without entropy =      -24.02179069  energy(sigma->0) =      -24.00347359


--------------------------------------------------------------------------------------------------------




--------------------------------------- Iteration      1(  10)  ---------------------------------------


    POTLOK:  cpu time    1.6004: real time    1.6043
    SETDIJ:  cpu time    0.0066: real time    0.0066
    EDDIAG:  cpu time    0.4724: real time    0.4735
  RMM-DIIS:  cpu time    1.5278: real time    1.5314
    ORTHCH:  cpu time    0.0112: real time    0.0113
       DOS:  cpu time    0.0002: real time    0.0002
    CHARGE:  cpu time    0.1580: real time    0.1583
    MIXING:  cpu time    0.0404: real time    0.0405
    --------------------------------------------
      LOOP:  cpu time    3.8169: real time    3.8261

 eigenvalue-minimisations  :    64
 total energy-change (2. order) : 0.4574934E-02  (-0.2030953E-02)
 number of electron       8.0000003 magnetization 
 augmentation part        0.1844849 magnetization 

 Broyden mixing:
  rms(total) = 0.21770E-01    rms(broyden)= 0.21766E-01
  rms(prec ) = 0.30987E-01
  weight for this iteration     100.00

 eigenvalues of (default mixing * dielectric matrix)
  average eigenvalue GAMMA=   1.7499
  3.1411  2.6085  1.3083  1.0216  0.6702

 Free energy of the ion-electron system (eV)
  ---------------------------------------------------
  alpha Z        PSCENC =         0.24178557
  Ewald energy   TEWEN  =       129.37132068
  -Hartree energ DENC   =      -284.52317720
  -exchange      EXHF   =         0.00000000
  -V(xc)+E(xc)   XCENC  =        24.75777788
  PAW double counting   =       411.15032340     -411.94578424
  entropy T*S    EENTRO =         0.02760944
  eigenvalues    EBANDS =       -90.11135016
  atomic energy  EATOM  =       197.04175453
  Solvation  Ediel_sol  =         0.00000000
  ---------------------------------------------------
  free energy    TOTEN  =       -23.98974010 eV

  energy without entropy =      -24.01734954  energy(sigma->0) =      -23.99894325


--------------------------------------------------------------------------------------------------------




--------------------------------------- Iteration      1(  11)  ---------------------------------------


    POTLOK:  cpu time    1.5712: real time    1.5749
    SETDIJ:  cpu time    0.0065: real time    0.0065
    EDDIAG:  cpu time    0.4794: real time    0.4805
  RMM-DIIS:  cpu time    1.5200: real time    1.5236
    ORTHCH:  cpu time    0.0116: real time    0.0117
       DOS:  cpu time    0.0002: real time    0.0002
    CHARGE:  cpu time    0.1773: real time    0.1778
    MIXING:  cpu time    0.0431: real time    0.0432
    --------------------------------------------
      LOOP:  cpu time    3.8094: real time    3.8184

 eigenvalue-minimisations  :    64
 total energy-change (2. order) : 0.2107118E-02  (-0.1001947E-03)
 number of electron       8.0000003 magnetization 
 augmentation part        0.1844871 magnetization 

 Broyden mixing:
  rms(total) = 0.11962E-01    rms(broyden)= 0.11961E-01
  rms(prec ) = 0.18327E-01
  weight for this iteration     100.00

 eigenvalues of (default mixing * dielectric matrix)
  average eigenvalue GAMMA=   1.7523
  2.8440  2.2702  2.2702  1.4814  0.9694  0.6784

 Free energy of the ion-electron system (eV)
  ---------------------------------------------------
  alpha Z        PSCENC =         0.24178557
  Ewald energy   TEWEN  =       129.37132068
  -Hartree energ DENC   =      -284.73309933
  -exchange      EXHF   =         0.00000000
  -V(xc)+E(xc)   XCENC  =        24.76923739
  PAW double counting   =       411.20370264     -411.99531489
  entropy T*S    EENTRO =         0.02760297
  eigenvalues    EBANDS =       -89.91462254
  atomic energy  EATOM  =       197.04175453
  Solvation  Ediel_sol  =         0.00000000
  ---------------------------------------------------
  free energy    TOTEN  =       -23.98763298 eV

  energy without entropy =      -24.01523595  energy(sigma->0) =      -23.99683397


--------------------------------------------------------------------------------------------------------




--------------------------------------- Iteration      1(  12)  ---------------------------------------


    POTLOK:  cpu time    1.5034: real time    1.5070
    SETDIJ:  cpu time    0.0064: real time    0.0065
    EDDIAG:  cpu time    0.4652: real time    0.4663
  RMM-DIIS:  cpu time    1.5128: real time    1.5164
    ORTHCH:  cpu time    0.0120: real time    0.0120
       DOS:  cpu time    0.0002: real time    0.0002
    CHARGE:  cpu time    0.1856: real time    0.1860
    MIXING:  cpu time    0.0447: real time    0.0449
    --------------------------------------------
      LOOP:  cpu time    3.7304: real time    3.7392

 eigenvalue-minimisations  :    64
 total energy-change (2. order) :-0.1243146E-01  (-0.3252422E-02)
 number of electron       8.0000003 magnetization 
 augmentation part        0.1854814 magnetization 

 Broyden mixing:
  rms(total) = 0.36387E-01    rms(broyden)= 0.36381E-01
  rms(prec ) = 0.45350E-01
  weight for this iteration     100.00

 eigenvalues of (default mixing * dielectric matrix)
  average eigenvalue GAMMA=   1.9560
  4.6037  2.5891  2.5891  1.1360  1.1360  0.9297  0.7087

 Free energy of the ion-electron system (eV)
  ---------------------------------------------------
  alpha Z        PSCENC =         0.24178557
  Ewald energy   TEWEN  =       129.37132068
  -Hartree energ DENC   =      -284.57063992
  -exchange      EXHF   =         0.00000000
  -V(xc)+E(xc)   XCENC  =        24.77216261
  PAW double counting   =       417.52355899     -418.30501527
  entropy T*S    EENTRO =         0.02740848
  eigenvalues    EBANDS =       -90.10240012
  atomic energy  EATOM  =       197.04175453
  Solvation  Ediel_sol  =         0.00000000
  ---------------------------------------------------
  free energy    TOTEN  =       -24.00006444 eV

  energy without entropy =      -24.02747293  energy(sigma->0) =      -24.00920060


--------------------------------------------------------------------------------------------------------




--------------------------------------- Iteration      1(  13)  ---------------------------------------


    POTLOK:  cpu time    1.4787: real time    1.4822
    SETDIJ:  cpu time    0.0065: real time    0.0066
    EDDIAG:  cpu time    0.4448: real time    0.4459
  RMM-DIIS:  cpu time    1.5082: real time    1.5117
    ORTHCH:  cpu time    0.0117: real time    0.0117
       DOS:  cpu time    0.0002: real time    0.0002
    CHARGE:  cpu time    0.1928: real time    0.1933
    MIXING:  cpu time    0.0471: real time    0.0472
    --------------------------------------------
      LOOP:  cpu time    3.6900: real time    3.6988

 eigenvalue-minimisations  :    64
 total energy-change (2. order) : 0.1830190E-02  (-0.6521462E-03)
 number of electron       8.0000003 magnetization 
 augmentation part        0.1850236 magnetization 

 Broyden mixing:
  rms(total) = 0.10560E-01    rms(broyden)= 0.10559E-01
  rms(prec ) = 0.13571E-01
  weight for this iteration     100.00

 eigenvalues of (default mixing * dielectric matrix)
  average eigenvalue GAMMA=   2.0512
  4.9981  3.2882  2.3993  1.5727  1.2318  1.2318  0.9895  0.6984

 Free energy of the ion-electron system (eV)
  ---------------------------------------------------
  alpha Z        PSCENC =         0.24178557
  Ewald energy   TEWEN  =       129.37132068
  -Hartree energ DENC   =      -285.04136819
  -exchange      EXHF   =         0.00000000
  -V(xc)+E(xc)   XCENC  =        24.77461714
  PAW double counting   =       412.50138326     -413.28982803
  entropy T*S    EENTRO =         0.02751355
  eigenvalues    EBANDS =       -89.62541276
  atomic energy  EATOM  =       197.04175453
  Solvation  Ediel_sol  =         0.00000000
  ---------------------------------------------------
  free energy    TOTEN  =       -23.99823425 eV

  energy without entropy =      -24.02574780  energy(sigma->0) =      -24.00740544


--------------------------------------------------------------------------------------------------------




--------------------------------------- Iteration      1(  14)  ---------------------------------------


    POTLOK:  cpu time    1.4760: real time    1.4794
    SETDIJ:  cpu time    0.0065: real time    0.0065
    EDDIAG:  cpu time    0.4238: real time    0.4248
  RMM-DIIS:  cpu time    1.7020: real time    1.7060
    ORTHCH:  cpu time    0.0121: real time    0.0121
       DOS:  cpu time    0.0002: real time    0.0002
    CHARGE:  cpu time    0.1865: real time    0.1869
    MIXING:  cpu time    0.0485: real time    0.0486
    --------------------------------------------
      LOOP:  cpu time    3.8555: real time    3.8646

 eigenvalue-minimisations  :    72
 total energy-change (2. order) :-0.2741242E-02  (-0.4528903E-03)
 number of electron       8.0000003 magnetization 
 augmentation part        0.1845243 magnetization 

 Broyden mixing:
  rms(total) = 0.45694E-02    rms(broyden)= 0.45595E-02
  rms(prec ) = 0.61656E-02
  weight for this iteration     100.00

 eigenvalues of (default mixing * dielectric matrix)
  average eigenvalue GAMMA=   2.0767
  5.6297  3.7639  2.3033  2.1401  1.2187  1.2187  0.9763  0.7200  0.7200

 Free energy of the ion-electron system (eV)
  ---------------------------------------------------
  alpha Z        PSCENC =         0.24178557
  Ewald energy   TEWEN  =       129.37132068
  -Hartree energ DENC   =      -285.13989815
  -exchange      EXHF   =         0.00000000
  -V(xc)+E(xc)   XCENC  =        24.76841872
  PAW double counting   =       411.30764416     -412.09905550
  entropy T*S    EENTRO =         0.02756994
  eigenvalues    EBANDS =       -89.52051546
  atomic energy  EATOM  =       197.04175453
  Solvation  Ediel_sol  =         0.00000000
  ---------------------------------------------------
  free energy    TOTEN  =       -24.00097549 eV

  energy without entropy =      -24.02854544  energy(sigma->0) =      -24.01016548


--------------------------------------------------------------------------------------------------------




--------------------------------------- Iteration      1(  15)  ---------------------------------------


    POTLOK:  cpu time    1.4600: real time    1.4634
    SETDIJ:  cpu time    0.0064: real time    0.0064
    EDDIAG:  cpu time    0.4361: real time    0.4371
  RMM-DIIS:  cpu time    1.5436: real time    1.5473
    ORTHCH:  cpu time    0.0127: real time    0.0127
       DOS:  cpu time    0.0002: real time    0.0002
    CHARGE:  cpu time    0.1864: real time    0.1869
    MIXING:  cpu time    0.0467: real time    0.0468
    --------------------------------------------
      LOOP:  cpu time    3.6921: real time    3.7008

 eigenvalue-minimisations  :    64
 total energy-change (2. order) :-0.6654216E-03  (-0.2088902E-04)
 number of electron       8.0000003 magnetization 
 augmentation part        0.1845775 magnetization 

 Broyden mixing:
  rms(total) = 0.29550E-02    rms(broyden)= 0.29545E-02
  rms(prec ) = 0.37561E-02
  weight for this iteration     100.00

 eigenvalues of (default mixing * dielectric matrix)
  average eigenvalue GAMMA=   2.1571
  6.4603  4.1460  2.4524  2.4524  1.1264  1.1264  1.2185  0.7056  1.0219  0.8609

 Free energy of the ion-electron system (eV)
  ---------------------------------------------------
  alpha Z        PSCENC =         0.24178557
  Ewald energy   TEWEN  =       129.37132068
  -Hartree energ DENC   =      -285.05080392
  -exchange      EXHF   =         0.00000000
  -V(xc)+E(xc)   XCENC  =        24.76215173
  PAW double counting   =       411.19907174     -411.98960213
  entropy T*S    EENTRO =         0.02756073
  eigenvalues    EBANDS =       -89.60487987
  atomic energy  EATOM  =       197.04175453
  Solvation  Ediel_sol  =         0.00000000
  ---------------------------------------------------
  free energy    TOTEN  =       -24.00164092 eV

  energy without entropy =      -24.02920165  energy(sigma->0) =      -24.01082783


--------------------------------------------------------------------------------------------------------




--------------------------------------- Iteration      1(  16)  ---------------------------------------


    POTLOK:  cpu time    1.4743: real time    1.4777
    SETDIJ:  cpu time    0.0064: real time    0.0065
    EDDIAG:  cpu time    0.4418: real time    0.4428
  RMM-DIIS:  cpu time    1.5259: real time    1.5295
    ORTHCH:  cpu time    0.0117: real time    0.0117
       DOS:  cpu time    0.0002: real time    0.0002
    CHARGE:  cpu time    0.1880: real time    0.1885
    MIXING:  cpu time    0.0499: real time    0.0500
    --------------------------------------------
      LOOP:  cpu time    3.6982: real time    3.7069

 eigenvalue-minimisations  :    64
 total energy-change (2. order) :-0.2709631E-03  (-0.5673841E-05)
 number of electron       8.0000003 magnetization 
 augmentation part        0.1846090 magnetization 

 Broyden mixing:
  rms(total) = 0.16248E-02    rms(broyden)= 0.16246E-02
  rms(prec ) = 0.20417E-02
  weight for this iteration     100.00

 eigenvalues of (default mixing * dielectric matrix)
  average eigenvalue GAMMA=   2.2441
  7.0912  4.3901  2.6072  2.4289  2.0406  1.2299  1.2299  0.7039  0.9451  1.0093
  1.0093

 Free energy of the ion-electron system (eV)
  ---------------------------------------------------
  alpha Z        PSCENC =         0.24178557
  Ewald energy   TEWEN  =       129.37132068
  -Hartree energ DENC   =      -285.05329447
  -exchange      EXHF   =         0.00000000
  -V(xc)+E(xc)   XCENC  =        24.76270012
  PAW double counting   =       411.51197622     -412.30209195
  entropy T*S    EENTRO =         0.02755798
  eigenvalues    EBANDS =       -89.60362056
  atomic energy  EATOM  =       197.04175453
  Solvation  Ediel_sol  =         0.00000000
  ---------------------------------------------------
  free energy    TOTEN  =       -24.00191188 eV

  energy without entropy =      -24.02946986  energy(sigma->0) =      -24.01109787


--------------------------------------------------------------------------------------------------------




--------------------------------------- Iteration      1(  17)  ---------------------------------------


    POTLOK:  cpu time    1.4853: real time    1.4888
    SETDIJ:  cpu time    0.0065: real time    0.0065
    EDDIAG:  cpu time    0.4570: real time    0.4581
  RMM-DIIS:  cpu time    1.5299: real time    1.5336
    ORTHCH:  cpu time    0.0117: real time    0.0117
       DOS:  cpu time    0.0002: real time    0.0002
    CHARGE:  cpu time    0.1737: real time    0.1741
    MIXING:  cpu time    0.0486: real time    0.0488
    --------------------------------------------
      LOOP:  cpu time    3.7130: real time    3.7218

 eigenvalue-minimisations  :    64
 total energy-change (2. order) :-0.1648624E-03  (-0.2033199E-05)
 number of electron       8.0000003 magnetization 
 augmentation part        0.1846139 magnetization 

 Broyden mixing:
  rms(total) = 0.54854E-03    rms(broyden)= 0.54826E-03
  rms(prec ) = 0.77506E-03
  weight for this iteration     100.00

 eigenvalues of (default mixing * dielectric matrix)
  average eigenvalue GAMMA=   2.3479
  7.8543  4.9065  3.2212  2.5466  2.1883  1.4611  1.2020  1.2020  0.7039  0.9924
  0.9924  0.9040

 Free energy of the ion-electron system (eV)
  ---------------------------------------------------
  alpha Z        PSCENC =         0.24178557
  Ewald energy   TEWEN  =       129.37132068
  -Hartree energ DENC   =      -285.07502567
  -exchange      EXHF   =         0.00000000
  -V(xc)+E(xc)   XCENC  =        24.76476702
  PAW double counting   =       411.82371619     -412.61365673
  entropy T*S    EENTRO =         0.02755603
  eigenvalues    EBANDS =       -89.58429436
  atomic energy  EATOM  =       197.04175453
  Solvation  Ediel_sol  =         0.00000000
  ---------------------------------------------------
  free energy    TOTEN  =       -24.00207674 eV

  energy without entropy =      -24.02963278  energy(sigma->0) =      -24.01126209


--------------------------------------------------------------------------------------------------------




--------------------------------------- Iteration      1(  18)  ---------------------------------------


    POTLOK:  cpu time    1.5359: real time    1.5396
    SETDIJ:  cpu time    0.0065: real time    0.0065
    EDDIAG:  cpu time    0.4832: real time    0.4844
  RMM-DIIS:  cpu time    1.4642: real time    1.4677
    ORTHCH:  cpu time    0.0119: real time    0.0120
       DOS:  cpu time    0.0002: real time    0.0002
    CHARGE:  cpu time    0.1880: real time    0.1884
    MIXING:  cpu time    0.0493: real time    0.0494
    --------------------------------------------
      LOOP:  cpu time    3.7392: real time    3.7482

 eigenvalue-minimisations  :    64
 total energy-change (2. order) :-0.5125782E-04  (-0.4723082E-05)
 number of electron       8.0000003 magnetization 
 augmentation part        0.1846681 magnetization 

 Broyden mixing:
  rms(total) = 0.83166E-03    rms(broyden)= 0.83119E-03
  rms(prec ) = 0.10984E-02
  weight for this iteration     100.00

 eigenvalues of (default mixing * dielectric matrix)
  average eigenvalue GAMMA=   2.3209
  8.0265  5.0862  3.5905  2.2616  2.2616  1.7814  1.1993  1.1993  1.2882  0.7038
  0.9510  0.9113  0.9113

 Free energy of the ion-electron system (eV)
  ---------------------------------------------------
  alpha Z        PSCENC =         0.24178557
  Ewald energy   TEWEN  =       129.37132068
  -Hartree energ DENC   =      -285.04717425
  -exchange      EXHF   =         0.00000000
  -V(xc)+E(xc)   XCENC  =        24.76351017
  PAW double counting   =       411.77388047     -412.56347842
  entropy T*S    EENTRO =         0.02755187
  eigenvalues    EBANDS =       -89.61127863
  atomic energy  EATOM  =       197.04175453
  Solvation  Ediel_sol  =         0.00000000
  ---------------------------------------------------
  free energy    TOTEN  =       -24.00212800 eV

  energy without entropy =      -24.02967987  energy(sigma->0) =      -24.01131196


--------------------------------------------------------------------------------------------------------




--------------------------------------- Iteration      1(  19)  ---------------------------------------


    POTLOK:  cpu time    1.5742: real time    1.5780
    SETDIJ:  cpu time    0.0065: real time    0.0065
    EDDIAG:  cpu time    0.4825: real time    0.4837
  RMM-DIIS:  cpu time    1.4756: real time    1.4791
    ORTHCH:  cpu time    0.0116: real time    0.0116
       DOS:  cpu time    0.0002: real time    0.0002
    CHARGE:  cpu time    0.1795: real time    0.1799
    MIXING:  cpu time    0.0505: real time    0.0506
    --------------------------------------------
      LOOP:  cpu time    3.7806: real time    3.7896

 eigenvalue-minimisations  :    64
 total energy-change (2. order) :-0.7662153E-05  (-0.7866279E-06)
 number of electron       8.0000003 magnetization 
 augmentation part        0.1846528 magnetization 

 Broyden mixing:
  rms(total) = 0.21396E-03    rms(broyden)= 0.21395E-03
  rms(prec ) = 0.27101E-03
  weight for this iteration     100.00

 eigenvalues of (default mixing * dielectric matrix)
  average eigenvalue GAMMA=   2.3754
  8.4114  5.2183  4.0244  2.7272  2.5073  1.6155  1.6155  1.3575  1.1345  1.1345
  0.7038  0.9814  0.9123  0.9123

 Free energy of the ion-electron system (eV)
  ---------------------------------------------------
  alpha Z        PSCENC =         0.24178557
  Ewald energy   TEWEN  =       129.37132068
  -Hartree energ DENC   =      -285.06838353
  -exchange      EXHF   =         0.00000000
  -V(xc)+E(xc)   XCENC  =        24.76441701
  PAW double counting   =       411.77291043     -412.56274897
  entropy T*S    EENTRO =         0.02755508
  eigenvalues    EBANDS =       -89.59074648
  atomic energy  EATOM  =       197.04175453
  Solvation  Ediel_sol  =         0.00000000
  ---------------------------------------------------
  free energy    TOTEN  =       -24.00213566 eV

  energy without entropy =      -24.02969074  energy(sigma->0) =      -24.01132069


--------------------------------------------------------------------------------------------------------




--------------------------------------- Iteration      1(  20)  ---------------------------------------


    POTLOK:  cpu time    1.6009: real time    1.6047
    SETDIJ:  cpu time    0.0064: real time    0.0064
    EDDIAG:  cpu time    0.4666: real time    0.4677
  RMM-DIIS:  cpu time    1.1452: real time    1.1480
    ORTHCH:  cpu time    0.0124: real time    0.0124
       DOS:  cpu time    0.0002: real time    0.0002
    CHARGE:  cpu time    0.1792: real time    0.1796
    MIXING:  cpu time    0.0521: real time    0.0522
    --------------------------------------------
      LOOP:  cpu time    3.4630: real time    3.4713

 eigenvalue-minimisations  :    48
 total energy-change (2. order) :-0.4967038E-05  (-0.1792089E-06)
 number of electron       8.0000003 magnetization 
 augmentation part        0.1846465 magnetization 

 Broyden mixing:
  rms(total) = 0.55788E-04    rms(broyden)= 0.55670E-04
  rms(prec ) = 0.81792E-04
  weight for this iteration     100.00

 eigenvalues of (default mixing * dielectric matrix)
  average eigenvalue GAMMA=   2.3306
  8.5499  5.4054  3.8951  2.8769  2.4340  1.8379  1.8379  1.3383  1.1630  1.1630
  0.7038  0.9853  0.9398  0.9398  0.8895

 Free energy of the ion-electron system (eV)
  ---------------------------------------------------
  alpha Z        PSCENC =         0.24178557
  Ewald energy   TEWEN  =       129.37132068
  -Hartree energ DENC   =      -285.06990192
  -exchange      EXHF   =         0.00000000
  -V(xc)+E(xc)   XCENC  =        24.76435334
  PAW double counting   =       411.73839959     -412.52830881
  entropy T*S    EENTRO =         0.02755590
  eigenvalues    EBANDS =       -89.58909952
  atomic energy  EATOM  =       197.04175453
  Solvation  Ediel_sol  =         0.00000000
  ---------------------------------------------------
  free energy    TOTEN  =       -24.00214063 eV

  energy without entropy =      -24.02969653  energy(sigma->0) =      -24.01132593


--------------------------------------------------------------------------------------------------------




--------------------------------------- Iteration      1(  21)  ---------------------------------------


    POTLOK:  cpu time    1.5749: real time    1.5787
    SETDIJ:  cpu time    0.0067: real time    0.0067
    EDDIAG:  cpu time    0.4459: real time    0.4469
  RMM-DIIS:  cpu time    1.2168: real time    1.2197
    ORTHCH:  cpu time    0.0117: real time    0.0117
       DOS:  cpu time    0.0002: real time    0.0002
    CHARGE:  cpu time    0.1748: real time    0.1753
    MIXING:  cpu time    0.0523: real time    0.0525
    --------------------------------------------
      LOOP:  cpu time    3.4834: real time    3.4916

 eigenvalue-minimisations  :    48
 total energy-change (2. order) :-0.1337291E-05  (-0.2563833E-07)
 number of electron       8.0000003 magnetization 
 augmentation part        0.1846453 magnetization 

 Broyden mixing:
  rms(total) = 0.26933E-04    rms(broyden)= 0.26871E-04
  rms(prec ) = 0.41682E-04
  weight for this iteration     100.00

 eigenvalues of (default mixing * dielectric matrix)
  average eigenvalue GAMMA=   2.3644
  8.5790  5.4925  4.2807  3.1864  2.4512  2.4512  1.6174  1.6174  1.3453  1.1464
  1.1464  0.7038  1.0294  0.9390  0.9390  0.9049

 Free energy of the ion-electron system (eV)
  ---------------------------------------------------
  alpha Z        PSCENC =         0.24178557
  Ewald energy   TEWEN  =       129.37132068
  -Hartree energ DENC   =      -285.06648688
  -exchange      EXHF   =         0.00000000
  -V(xc)+E(xc)   XCENC  =        24.76411979
  PAW double counting   =       411.72531795     -412.51521248
  entropy T*S    EENTRO =         0.02755624
  eigenvalues    EBANDS =       -89.59229738
  atomic energy  EATOM  =       197.04175453
  Solvation  Ediel_sol  =         0.00000000
  ---------------------------------------------------
  free energy    TOTEN  =       -24.00214197 eV

  energy without entropy =      -24.02969821  energy(sigma->0) =      -24.01132738


--------------------------------------------------------------------------------------------------------




--------------------------------------- Iteration      1(  22)  ---------------------------------------


    POTLOK:  cpu time    1.5674: real time    1.5711
    SETDIJ:  cpu time    0.0064: real time    0.0064
    EDDIAG:  cpu time    0.4499: real time    0.4509
  RMM-DIIS:  cpu time    1.2157: real time    1.2186
    ORTHCH:  cpu time    0.0124: real time    0.0124
       DOS:  cpu time    0.0002: real time    0.0002
    --------------------------------------------
      LOOP:  cpu time    3.2520: real time    3.2596

 eigenvalue-minimisations  :    48
 total energy-change (2. order) :-0.8992685E-06  (-0.1841778E-07)
 number of electron       8.0000003 magnetization 
 augmentation part        0.1846453 magnetization 

 Free energy of the ion-electron system (eV)
  ---------------------------------------------------
  alpha Z        PSCENC =         0.24178557
  Ewald energy   TEWEN  =       129.37132068
  -Hartree energ DENC   =      -285.06730855
  -exchange      EXHF   =         0.00000000
  -V(xc)+E(xc)   XCENC  =        24.76413123
  PAW double counting   =       411.72190545     -412.51180673
  entropy T*S    EENTRO =         0.02755677
  eigenvalues    EBANDS =       -89.59148182
  atomic energy  EATOM  =       197.04175453
  Solvation  Ediel_sol  =         0.00000000
  ---------------------------------------------------
  free energy    TOTEN  =       -24.00214287 eV

  energy without entropy =      -24.02969963  energy(sigma->0) =      -24.01132845


--------------------------------------------------------------------------------------------------------




 average (electrostatic) potential at core
  the test charge radii are     0.5201  0.6991
  (the norm of the test charge is              1.0000)
       1 -41.1761       2 -41.6186       3 -41.8700       4 -41.3924       5 -57.9497



 E-fermi :  -9.0068     XC(G=0):  -0.6979     alpha+bet : -0.2103


 k-point     1 :       0.2500    0.2500    0.2500
  band No.  band energies     occupation 
      1     -16.9290      2.00000
      2      -9.4713      2.00493
      3      -9.2432      2.07032
      4      -9.1483      1.92478
      5      -0.3156      0.00000
      6       0.5591      0.00000
      7       0.6537      0.00000
      8       0.7231      0.00000

 k-point     2 :      -0.2500    0.2500    0.2500
  band No.  band energies     occupation 
      1     -16.9290      2.00000
      2      -9.4713      2.00494
      3      -9.2431      2.07030
      4      -9.1482      1.92469
      5      -0.3205      0.00000
      6       0.5672      0.00000
      7       0.6761      0.00000
      8       0.7232      0.00000

 k-point     3 :       0.2500   -0.2500    0.2500
  band No.  band energies     occupation 
      1     -16.9289      2.00000
      2      -9.4712      2.00495
      3      -9.2431      2.07030
      4      -9.1483      1.92486
      5      -0.3102      0.00000
      6       0.5416      0.00000
      7       0.6478      0.00000
      8       0.7054      0.00000

 k-point     4 :      -0.2500   -0.2500    0.2500
  band No.  band energies     occupation 
      1     -16.9290      2.00000
      2      -9.4713      2.00494
      3      -9.2431      2.07030
      4      -9.1482      1.92469
      5      -0.3155      0.00000
      6       0.5608      0.00000
      7       0.6741      0.00000
      8       0.7013      0.00000


--------------------------------------------------------------------------------------------------------


 soft charge-density along one line, spin component           1
         0         1         2         3         4         5         6         7         8         9
 total charge-density along one line

 pseudopotential strength for first ion, spin component:           1
 -2.337  -4.027  -0.001  -0.001   0.001
 -4.027  -6.852  -0.003  -0.004   0.002
 -0.001  -0.003  -0.338   0.002  -0.001
 -0.001  -0.004   0.002  -0.337  -0.001
  0.001   0.002  -0.001  -0.001  -0.339
 total augmentation occupancy for first ion, spin component:           1
  3.666  -0.699   0.224   0.350  -0.168
 -0.699   0.145  -0.045  -0.068   0.032
  0.224  -0.045   0.019   0.018  -0.009
  0.350  -0.068   0.018   0.037  -0.015
 -0.168   0.032  -0.009  -0.015   0.014


------------------------ aborting loop because EDIFF is reached ----------------------------------------


    CHARGE:  cpu time    0.1927: real time    0.1932
    FORLOC:  cpu time    0.1109: real time    0.1111
    FORNL :  cpu time    0.5669: real time    0.5682
    STRESS:  cpu time    1.8773: real time    1.8817
    FORCOR:  cpu time    1.6661: real time    1.6700
    FORHAR:  cpu time    0.5296: real time    0.5308
    MIXING:  cpu time    0.0514: real time    0.0515
    OFIELD:  cpu time    0.0000: real time    0.0000

  FORCE on cell =-STRESS in cart. coord.  units (eV):
  Direction    XX          YY          ZZ          XY          YZ          ZX
  --------------------------------------------------------------------------------------
  Alpha Z     0.24179     0.24179     0.24179
  Ewald      43.63018    45.03938    40.70172     2.57200     1.00420    -1.93299
  Hartree    94.57213    97.45970    93.03281     0.30670     0.88157    -0.97015
  E(xc)     -27.23306   -27.25682   -27.21563     0.00401     0.00869    -0.01113
  Local    -196.39705  -200.80571  -193.42031    -2.24621    -2.19794     2.79795
  n-local   -15.59098   -16.60535   -15.95630    -0.25378    -0.39037    -0.10719
  augment     0.11433     0.11055     0.12609    -0.00539     0.00364     0.00037
  Kinetic   100.76055   101.60626   101.54463     0.51986     0.06279     0.46869
  Fock        0.00000     0.00000     0.00000     0.00000     0.00000     0.00000
  -------------------------------------------------------------------------------------
  Total       0.09788    -0.21021    -0.94520     0.89719    -0.62742     0.24556
  in kB       0.15653    -0.33615    -1.51146     1.43469    -1.00331     0.39268
  external pressure =       -0.56 kB  Pullay stress =        0.00 kB

  kinetic pressure (ideal gas correction) =      0.03 kB
  total pressure  =     -0.54 kB
  Total+kin.     0.177      -0.313      -1.472       1.452      -1.019       0.390

 VOLUME and BASIS-vectors are now :
 -----------------------------------------------------------------------------
  energy-cutoff  :      400.00
  volume of cell :     1001.92
      direct lattice vectors                 reciprocal lattice vectors
    10.045102543  0.000000000  0.000000000     0.099551000  0.000311601  0.002847855
    -0.030383123  9.706870376  0.000000000     0.000000000  0.103019816 -0.002907774
    -0.294857830  0.290028746 10.275458653     0.000000000 -0.000000000  0.097319257

  length of vectors
    10.045102543  9.706917926 10.283778894     0.099592213  0.103060844  0.097319257


 FORCES acting on ions
    electron-ion (+dipol)            ewald-force                    non-local-force                 convergence-correction
 -----------------------------------------------------------------------------------------------
   -.175E+02 0.285E+02 0.397E+02   0.187E+02 -.309E+02 -.431E+02   -.173E+01 0.332E+01 0.337E+01   -.130E-03 0.214E-03 0.287E-03
   0.523E+02 -.585E+01 0.308E+01   -.577E+02 0.629E+01 -.352E+01   0.543E+01 -.406E+00 0.421E+00   0.360E-03 -.271E-04 0.191E-04
   -.249E+02 -.485E+02 0.128E+01   0.284E+02 0.553E+02 -.140E+01   -.303E+01 -.547E+01 0.143E+00   -.179E-03 -.316E-03 0.354E-05
   -.109E+02 0.228E+02 -.462E+02   0.119E+02 -.250E+02 0.507E+02   -.101E+01 0.198E+01 -.445E+01   -.766E-04 0.156E-03 -.311E-03
   0.133E+01 0.438E+01 0.225E+01   -.129E+01 -.571E+01 -.275E+01   -.970E+00 0.200E+00 0.520E-01   -.724E-04 0.684E-04 0.464E-04
 -----------------------------------------------------------------------------------------------
   0.383E+00 0.133E+01 0.113E+00   -.178E-14 0.355E-14 -.711E-14   -.132E+01 -.386E+00 -.462E+00   -.969E-04 0.951E-04 0.447E-04


 POSITION                                       TOTAL-FORCE (eV/Angst)
 -----------------------------------------------------------------------------------
      5.28427      4.05719      3.70867        -0.472146      0.957207      0.004773
      3.81795      4.79045      4.50687        -0.018342      0.032975     -0.021157
      5.39198      5.61051      4.54778         0.468607      1.290304      0.019841
      5.13457      4.19779      5.54022         0.012694     -0.210025      0.092078
      4.90847      4.67079      4.56851        -0.926763     -1.127660     -0.444527
 -----------------------------------------------------------------------------------
    total drift:                               -0.935949      0.942801     -0.348992


--------------------------------------------------------------------------------------------------------



  FREE ENERGIE OF THE ION-ELECTRON SYSTEM (eV)
  ---------------------------------------------------
  free  energy   TOTEN  =       -24.00214287 eV

  energy  without entropy=      -24.02969963  energy(sigma->0) =      -24.01132845



--------------------------------------------------------------------------------------------------------


    POTLOK:  cpu time    1.6040: real time    1.6078


--------------------------------------------------------------------------------------------------------


           RANDOM_SEED =         578496086                0                0
           RANDOM_SEED =         578496086               30                0
   IONSTEP:  cpu time    0.0017: real time    0.0019

  ENERGY OF THE ELECTRON-ION-THERMOSTAT SYSTEM (eV)
  ---------------------------------------------------
% ion-electron   TOTEN  =       -24.002143  see above
  kinetic energy EKIN   =         0.031457
  kin. lattice  EKIN_LAT=         0.000000  (temperature   60.84 K)
  nose potential ES     =         0.000000
  nose kinetic   EPS    =         0.000004
  ---------------------------------------------------
  total energy   ETOTAL =       -23.970682 eV

  maximum distance moved by ions :      0.49E-02


 mean value of Nose-termostat <S>:     1.003 mean value of <T> :    60.840
 mean temperature <T/S>/<1/S>  :    60.840

    WAVPRE:  cpu time    0.4470: real time    0.4534
    FEWALD:  cpu time    0.0004: real time    0.0004
    ORTHCH:  cpu time    0.2141: real time    0.2146
     LOOP+:  cpu time   85.8128: real time   86.0238


--------------------------------------- Iteration      2(   1)  ---------------------------------------


    POTLOK:  cpu time    1.5720: real time    1.5758
    SETDIJ:  cpu time    0.0065: real time    0.0065
     EDDAV:  cpu time    1.9647: real time    1.9694
       DOS:  cpu time    0.0002: real time    0.0002
    CHARGE:  cpu time    0.1579: real time    0.1583
    MIXING:  cpu time    0.0406: real time    0.0407
    --------------------------------------------
      LOOP:  cpu time    3.7419: real time    3.7509

 eigenvalue-minimisations  :    64
 total energy-change (2. order) :-0.5214741E-01  (-0.2061049E+00)
 number of electron       8.0000001 magnetization 
 augmentation part        0.1830863 magnetization 

 Broyden mixing:
  rms(total) = 0.61212E-01    rms(broyden)= 0.61135E-01
  rms(prec ) = 0.71765E-01
  weight for this iteration     100.00

 Free energy of the ion-electron system (eV)
  ---------------------------------------------------
  alpha Z        PSCENC =         0.24178557
  Ewald energy   TEWEN  =       128.26094919
  -Hartree energ DENC   =      -284.45216077
  -exchange      EXHF   =         0.00000000
  -V(xc)+E(xc)   XCENC  =        24.73166211
  PAW double counting   =       411.73990248     -412.52977977
  entropy T*S    EENTRO =         0.01491106
  eigenvalues    EBANDS =       -89.10331379
  atomic energy  EATOM  =       197.04175453
  Solvation  Ediel_sol  =         0.00000000
  ---------------------------------------------------
  free energy    TOTEN  =       -24.05428937 eV

  energy without entropy =      -24.06920044  energy(sigma->0) =      -24.05925973


--------------------------------------------------------------------------------------------------------




--------------------------------------- Iteration      2(   2)  ---------------------------------------


    POTLOK:  cpu time    1.4016: real time    1.4049
    SETDIJ:  cpu time    0.0064: real time    0.0064
    EDDIAG:  cpu time    0.4410: real time    0.4420
  RMM-DIIS:  cpu time    1.4192: real time    1.4226
    ORTHCH:  cpu time    0.0118: real time    0.0118
       DOS:  cpu time    0.0002: real time    0.0002
    CHARGE:  cpu time    0.1767: real time    0.1771
    MIXING:  cpu time    0.0576: real time    0.0577
    --------------------------------------------
      LOOP:  cpu time    3.5144: real time    3.5227

 eigenvalue-minimisations  :    64
 total energy-change (2. order) :-0.1205696E+00  (-0.6440116E-01)
 number of electron       8.0000001 magnetization 
 augmentation part        0.1779438 magnetization 

 Broyden mixing:
  rms(total) = 0.20965E+00    rms(broyden)= 0.20962E+00
  rms(prec ) = 0.26659E+00
  weight for this iteration     100.00

 eigenvalues of (default mixing * dielectric matrix)
  average eigenvalue GAMMA=   2.3689
  8.6145  5.5648  4.7692  3.5202  2.6827  2.3574  2.3574  1.8981  1.5909  1.3676
  1.1673  1.1673  0.7038  1.0412  1.0412  0.9417  0.9417  0.9139

 Free energy of the ion-electron system (eV)
  ---------------------------------------------------
  alpha Z        PSCENC =         0.24178557
  Ewald energy   TEWEN  =       128.26094919
  -Hartree energ DENC   =      -287.12688847
  -exchange      EXHF   =         0.00000000
  -V(xc)+E(xc)   XCENC  =        24.78209794
  PAW double counting   =       391.12426819     -391.96630053
  entropy T*S    EENTRO =         0.02028315
  eigenvalues    EBANDS =       -86.55280857
  atomic energy  EATOM  =       197.04175453
  Solvation  Ediel_sol  =         0.00000000
  ---------------------------------------------------
  free energy    TOTEN  =       -24.17485901 eV

  energy without entropy =      -24.19514216  energy(sigma->0) =      -24.18162006


--------------------------------------------------------------------------------------------------------




--------------------------------------- Iteration      2(   3)  ---------------------------------------


    POTLOK:  cpu time    1.4031: real time    1.4064
    SETDIJ:  cpu time    0.0065: real time    0.0065
    EDDIAG:  cpu time    0.4356: real time    0.4366
  RMM-DIIS:  cpu time    1.4339: real time    1.4373
    ORTHCH:  cpu time    0.0114: real time    0.0115
       DOS:  cpu time    0.0002: real time    0.0002
    CHARGE:  cpu time    0.1658: real time    0.1662
    MIXING:  cpu time    0.0568: real time    0.0569
    --------------------------------------------
      LOOP:  cpu time    3.5133: real time    3.5217

 eigenvalue-minimisations  :    64
 total energy-change (2. order) : 0.1136511E+00  (-0.1810453E-01)
 number of electron       8.0000001 magnetization 
 augmentation part        0.1807356 magnetization 

 Broyden mixing:
  rms(total) = 0.92891E-01    rms(broyden)= 0.92861E-01
  rms(prec ) = 0.11826E+00
  weight for this iteration     100.00

 eigenvalues of (default mixing * dielectric matrix)
  average eigenvalue GAMMA=   2.3096
  8.6140  5.5651  4.7721  3.5328  2.6630  2.3590  2.3590  1.9855  1.5680  1.4427
  1.1697  1.1697  0.7038  1.1699  1.0072  1.0072  0.9342  0.9342  0.9245

 Free energy of the ion-electron system (eV)
  ---------------------------------------------------
  alpha Z        PSCENC =         0.24178557
  Ewald energy   TEWEN  =       128.26094919
  -Hartree energ DENC   =      -285.23760678
  -exchange      EXHF   =         0.00000000
  -V(xc)+E(xc)   XCENC  =        24.74340557
  PAW double counting   =       406.30485091     -407.10824995
  entropy T*S    EENTRO =         0.02978654
  eigenvalues    EBANDS =       -88.33788352
  atomic energy  EATOM  =       197.04175453
  Solvation  Ediel_sol  =         0.00000000
  ---------------------------------------------------
  free energy    TOTEN  =       -24.06120795 eV

  energy without entropy =      -24.09099449  energy(sigma->0) =      -24.07113680


--------------------------------------------------------------------------------------------------------




--------------------------------------- Iteration      2(   4)  ---------------------------------------


    POTLOK:  cpu time    1.5193: real time    1.5229
    SETDIJ:  cpu time    0.0065: real time    0.0065
    EDDIAG:  cpu time    0.4593: real time    0.4604
  RMM-DIIS:  cpu time    1.4471: real time    1.4506
    ORTHCH:  cpu time    0.0115: real time    0.0115
       DOS:  cpu time    0.0002: real time    0.0002
    CHARGE:  cpu time    0.1673: real time    0.1678
    MIXING:  cpu time    0.0664: real time    0.0665
    --------------------------------------------
      LOOP:  cpu time    3.6775: real time    3.6863

 eigenvalue-minimisations  :    64
 total energy-change (2. order) : 0.1065337E-01  (-0.2790069E-01)
 number of electron       8.0000001 magnetization 
 augmentation part        0.1843982 magnetization 

 Broyden mixing:
  rms(total) = 0.35145E-01    rms(broyden)= 0.35079E-01
  rms(prec ) = 0.44890E-01
  weight for this iteration     100.00

 eigenvalues of (default mixing * dielectric matrix)
  average eigenvalue GAMMA=   2.2971
  8.6124  5.5776  4.7826  3.5398  2.6995  2.3480  2.3480  1.9972  1.9972  1.7431
  1.3745  1.1698  1.1698  0.7038  1.0467  1.0467  0.9362  0.9362  0.9087  1.0045

 Free energy of the ion-electron system (eV)
  ---------------------------------------------------
  alpha Z        PSCENC =         0.24178557
[...]
  rms(total) = 0.10672E-02    rms(broyden)= 0.10639E-02
  rms(prec ) = 0.13873E-02
  weight for this iteration     100.00

 eigenvalues of (default mixing * dielectric matrix)
  average eigenvalue GAMMA=   2.4887
  6.0458  5.3922  5.0278  4.6010  0.5611  3.7792  3.5237  3.5237  0.8224  0.8224
  1.6368  1.6368  3.6082  0.9673  1.2095  1.2095  1.1322  1.3600  1.4478  1.4478
  1.6155  1.7454  1.7454  3.2277  3.1780  3.1780  1.9636  1.9636  2.4603  2.4603
  2.9082  2.9082  2.0946  2.3362  2.3362  2.2716  2.7689  2.7689  2.4295  2.4295
  2.5784  2.5784  2.7204  2.6128  2.6128  2.6531  2.6084  2.5322  2.5037

 Free energy of the ion-electron system (eV)
  ---------------------------------------------------
  alpha Z        PSCENC =         0.24178557
  Ewald energy   TEWEN  =       128.02800159
  -Hartree energ DENC   =      -283.88884818
  -exchange      EXHF   =         0.00000000
  -V(xc)+E(xc)   XCENC  =        24.70214416
  PAW double counting   =       396.48433574     -397.27051146
  entropy T*S    EENTRO =         0.02583040
  eigenvalues    EBANDS =       -89.36985478
  atomic energy  EATOM  =       197.04175453
  Solvation  Ediel_sol  =         0.00000000
  ---------------------------------------------------
  free energy    TOTEN  =       -24.00536243 eV

  energy without entropy =      -24.03119283  energy(sigma->0) =      -24.01397256


--------------------------------------------------------------------------------------------------------




--------------------------------------- Iteration     10(  11)  ---------------------------------------


    POTLOK:  cpu time    1.9508: real time    1.9566
    SETDIJ:  cpu time    0.0120: real time    0.0121
    EDDIAG:  cpu time    0.5555: real time    0.5568
  RMM-DIIS:  cpu time    1.7156: real time    1.7213
    ORTHCH:  cpu time    0.0115: real time    0.0116
       DOS:  cpu time    0.0002: real time    0.0002
    CHARGE:  cpu time    0.2164: real time    0.2905
    MIXING:  cpu time    0.1476: real time    0.1479
    --------------------------------------------
      LOOP:  cpu time    4.6097: real time    4.6969

 eigenvalue-minimisations  :    64
 total energy-change (2. order) :-0.1533247E-04  (-0.5177515E-06)
 number of electron       8.0000006 magnetization 
 augmentation part        0.1838436 magnetization 

 Broyden mixing:
  rms(total) = 0.46080E-03    rms(broyden)= 0.46058E-03
  rms(prec ) = 0.59970E-03
  weight for this iteration     100.00

 eigenvalues of (default mixing * dielectric matrix)
  average eigenvalue GAMMA=   2.5121
  5.4936  5.1917  4.5293  1.5781  1.5781  0.7267  3.4907  3.4907  3.8608  3.8608
  1.0113  1.0113  1.1701  1.1701  1.2678  1.5187  1.5187  3.4584  1.7314  1.7314
  3.3195  3.2640  1.9066  1.9066  2.1477  2.1477  2.4474  2.4474  2.9190  2.7070
  2.7070  2.5293  2.5293  2.2413  2.7882  2.4106  2.5079  2.5079  2.4783  2.5678
  2.5678  2.7109  2.6496  2.6496  2.5973

 Free energy of the ion-electron system (eV)
  ---------------------------------------------------
  alpha Z        PSCENC =         0.24178557
  Ewald energy   TEWEN  =       128.02800159
  -Hartree energ DENC   =      -283.87223343
  -exchange      EXHF   =         0.00000000
  -V(xc)+E(xc)   XCENC  =        24.70154137
  PAW double counting   =       396.46328367     -397.24918591
  entropy T*S    EENTRO =         0.02582228
  eigenvalues    EBANDS =       -89.38614744
  atomic energy  EATOM  =       197.04175453
  Solvation  Ediel_sol  =         0.00000000
  ---------------------------------------------------
  free energy    TOTEN  =       -24.00537776 eV

  energy without entropy =      -24.03120004  energy(sigma->0) =      -24.01398519


--------------------------------------------------------------------------------------------------------




--------------------------------------- Iteration     10(  12)  ---------------------------------------


    POTLOK:  cpu time    1.8699: real time    1.8744
    SETDIJ:  cpu time    0.0064: real time    0.0065
    EDDIAG:  cpu time    0.5216: real time    0.5228
  RMM-DIIS:  cpu time    1.4691: real time    1.5460
    ORTHCH:  cpu time    0.0113: real time    0.0113
       DOS:  cpu time    0.0002: real time    0.0002
    CHARGE:  cpu time    0.1978: real time    0.1983
    MIXING:  cpu time    0.1779: real time    0.1783
    --------------------------------------------
      LOOP:  cpu time    4.2543: real time    4.3378

 eigenvalue-minimisations  :    48
 total energy-change (2. order) :-0.1105173E-04  (-0.1495555E-06)
 number of electron       8.0000006 magnetization 
 augmentation part        0.1838437 magnetization 

 Broyden mixing:
  rms(total) = 0.38191E-03    rms(broyden)= 0.38186E-03
  rms(prec ) = 0.48966E-03
  weight for this iteration     100.00

 eigenvalues of (default mixing * dielectric matrix)
  average eigenvalue GAMMA=   2.5213
  5.6276  5.4473  4.4319  4.4319  1.5511  1.5511  0.9295  0.9295  1.2380  1.2380
  1.0861  1.0861  3.3701  3.3701  3.6814  3.6814  1.1962  3.5388  1.6098  1.6098
  1.7328  1.7328  3.3114  2.0430  2.0430  2.1357  2.1357  2.3847  2.3847  2.9851
  2.8158  2.8158  2.1784  2.5804  2.5804  2.8335  2.3786  2.4541  2.6858  2.6858
  2.5651  2.5651  2.6201  2.6201  2.5316  2.5741

 Free energy of the ion-electron system (eV)
  ---------------------------------------------------
  alpha Z        PSCENC =         0.24178557
  Ewald energy   TEWEN  =       128.02800159
  -Hartree energ DENC   =      -283.87334338
  -exchange      EXHF   =         0.00000000
  -V(xc)+E(xc)   XCENC  =        24.70155269
  PAW double counting   =       396.43839603     -397.22432753
  entropy T*S    EENTRO =         0.02581422
  eigenvalues    EBANDS =       -89.38502253
  atomic energy  EATOM  =       197.04175453
  Solvation  Ediel_sol  =         0.00000000
  ---------------------------------------------------
  free energy    TOTEN  =       -24.00538881 eV

  energy without entropy =      -24.03120303  energy(sigma->0) =      -24.01399355


--------------------------------------------------------------------------------------------------------




--------------------------------------- Iteration     10(  13)  ---------------------------------------


    POTLOK:  cpu time    1.9280: real time    1.9326
    SETDIJ:  cpu time    0.0121: real time    0.0121
    EDDIAG:  cpu time    0.6148: real time    0.6855
  RMM-DIIS:  cpu time    1.4631: real time    1.4665
    ORTHCH:  cpu time    0.0222: real time    0.0223
       DOS:  cpu time    0.0003: real time    0.0003
    CHARGE:  cpu time    0.1803: real time    0.1807
    MIXING:  cpu time    0.2220: real time    0.2226
    --------------------------------------------
      LOOP:  cpu time    4.4428: real time    4.5227

 eigenvalue-minimisations  :    48
 total energy-change (2. order) :-0.4003684E-05  (-0.5232405E-07)
 number of electron       8.0000006 magnetization 
 augmentation part        0.1838435 magnetization 

 Broyden mixing:
  rms(total) = 0.33120E-03    rms(broyden)= 0.33104E-03
  rms(prec ) = 0.43488E-03
  weight for this iteration     100.00

 eigenvalues of (default mixing * dielectric matrix)
  average eigenvalue GAMMA=   2.5283
  5.8860  5.6220  4.5670  4.5670  4.3195  3.5028  3.5028  1.5787  1.5787  0.7735
  0.7735  1.1266  1.1266  1.0279  1.1274  1.1274  3.4804  3.3286  3.3286  1.3985
  1.6375  1.6375  1.8366  1.8366  2.9885  2.7629  2.7629  2.3947  2.3947  2.0629
  2.1483  2.1483  2.4987  2.4987  2.8329  2.8329  2.3336  2.3567  2.3567  2.7258
  2.6407  2.6407  2.4974  2.4974  2.5939  2.5939  2.5755

 Free energy of the ion-electron system (eV)
  ---------------------------------------------------
  alpha Z        PSCENC =         0.24178557
  Ewald energy   TEWEN  =       128.02800159
  -Hartree energ DENC   =      -283.87425139
  -exchange      EXHF   =         0.00000000
  -V(xc)+E(xc)   XCENC  =        24.70160444
  PAW double counting   =       396.47865903     -397.26459651
  entropy T*S    EENTRO =         0.02582029
  eigenvalues    EBANDS =       -89.38417036
  atomic energy  EATOM  =       197.04175453
  Solvation  Ediel_sol  =         0.00000000
  ---------------------------------------------------
  free energy    TOTEN  =       -24.00539281 eV

  energy without entropy =      -24.03121310  energy(sigma->0) =      -24.01399958


--------------------------------------------------------------------------------------------------------




--------------------------------------- Iteration     10(  14)  ---------------------------------------


    POTLOK:  cpu time    1.9257: real time    1.9972
    SETDIJ:  cpu time    0.0064: real time    0.0064
    EDDIAG:  cpu time    0.5655: real time    0.5669
  RMM-DIIS:  cpu time    1.2531: real time    1.2563
    ORTHCH:  cpu time    0.0112: real time    0.0113
       DOS:  cpu time    0.0002: real time    0.0002
    --------------------------------------------
      LOOP:  cpu time    3.7621: real time    3.8382

 eigenvalue-minimisations  :    48
 total energy-change (2. order) :-0.8447169E-06  (-0.1976848E-06)
 number of electron       8.0000006 magnetization 
 augmentation part        0.1838435 magnetization 

 Free energy of the ion-electron system (eV)
  ---------------------------------------------------
  alpha Z        PSCENC =         0.24178557
  Ewald energy   TEWEN  =       128.02800159
  -Hartree energ DENC   =      -283.86589099
  -exchange      EXHF   =         0.00000000
  -V(xc)+E(xc)   XCENC  =        24.70127441
  PAW double counting   =       396.52702366     -397.31286299
  entropy T*S    EENTRO =         0.02581977
  eigenvalues    EBANDS =       -89.39229921
  atomic energy  EATOM  =       197.04175453
  Solvation  Ediel_sol  =         0.00000000
  ---------------------------------------------------
  free energy    TOTEN  =       -24.00539366 eV

  energy without entropy =      -24.03121343  energy(sigma->0) =      -24.01400025


--------------------------------------------------------------------------------------------------------




 average (electrostatic) potential at core
  the test charge radii are     0.5201  0.6991
  (the norm of the test charge is              1.0000)
       1 -41.1663       2 -41.4398       3 -41.8334       4 -41.4873       5 -57.9882



 E-fermi :  -8.9269     XC(G=0):  -0.6994     alpha+bet : -0.2103


 k-point     1 :       0.2500    0.2500    0.2500
  band No.  band energies     occupation 
      1     -16.8921      2.00000
      2      -9.5522      2.00009
      3      -9.1784      2.07060
      4      -9.0698      1.92957
      5      -0.3262      0.00000
      6       0.5547      0.00000
      7       0.6561      0.00000
      8       0.7191      0.00000

 k-point     2 :      -0.2500    0.2500    0.2500
  band No.  band energies     occupation 
      1     -16.8921      2.00000
      2      -9.5521      2.00009
      3      -9.1783      2.07061
      4      -9.0697      1.92926
      5      -0.3308      0.00000
      6       0.5653      0.00000
      7       0.6691      0.00000
      8       0.7231      0.00000

 k-point     3 :       0.2500   -0.2500    0.2500
  band No.  band energies     occupation 
      1     -16.8921      2.00000
      2      -9.5521      2.00009
      3      -9.1783      2.07061
      4      -9.0696      1.92904
      5      -0.3207      0.00000
      6       0.5392      0.00000
      7       0.6487      0.00000
      8       0.6980      0.00000

 k-point     4 :      -0.2500   -0.2500    0.2500
  band No.  band energies     occupation 
      1     -16.8921      2.00000
      2      -9.5522      2.00009
      3      -9.1783      2.07061
      4      -9.0697      1.92933
      5      -0.3258      0.00000
      6       0.5631      0.00000
      7       0.6667      0.00000
      8       0.6950      0.00000


--------------------------------------------------------------------------------------------------------


 soft charge-density along one line, spin component           1
         0         1         2         3         4         5         6         7         8         9
 total charge-density along one line

 pseudopotential strength for first ion, spin component:           1
 -2.337  -4.027  -0.001  -0.001   0.001
 -4.027  -6.851  -0.003  -0.004   0.002
 -0.001  -0.003  -0.340   0.002  -0.001
 -0.001  -0.004   0.002  -0.338  -0.001
  0.001   0.002  -0.001  -0.001  -0.340
 total augmentation occupancy for first ion, spin component:           1
  2.921  -0.433   0.233   0.337  -0.130
 -0.433   0.077  -0.035  -0.051   0.021
  0.233  -0.035   0.025   0.024  -0.009
  0.337  -0.051   0.024   0.043  -0.012
 -0.130   0.021  -0.009  -0.012   0.013


------------------------ aborting loop because EDIFF is reached ----------------------------------------


    CHARGE:  cpu time    0.1570: real time    0.1574
    FORLOC:  cpu time    0.1205: real time    0.1208
    FORNL :  cpu time    0.7503: real time    0.8546
    STRESS:  cpu time    2.3139: real time    2.3194
    FORCOR:  cpu time    1.9231: real time    1.9277
    FORHAR:  cpu time    0.6133: real time    0.6147
    MIXING:  cpu time    0.1902: real time    0.1907
    OFIELD:  cpu time    0.0000: real time    0.0000

  FORCE on cell =-STRESS in cart. coord.  units (eV):
  Direction    XX          YY          ZZ          XY          YZ          ZX
  --------------------------------------------------------------------------------------
  Alpha Z     0.24179     0.24179     0.24179
  Ewald      43.94868    45.65806    38.42123     1.39294     4.57648     2.94602
  Hartree    94.52095    97.75968    91.58578    -0.47920     1.75192     0.33978
  E(xc)     -27.16358   -27.18109   -27.15763    -0.00399     0.02521     0.01323
  Local    -197.04566  -202.14470  -189.09697     0.18442    -5.97514    -2.56450
  n-local   -15.85886   -15.92732   -15.56883     0.04077    -0.08963     0.08439
  augment     0.12358     0.12466     0.12915    -0.01080    -0.00251    -0.00535
  Kinetic   101.17964   101.98561    99.47828    -0.59117    -0.67043    -0.38032
  Fock        0.00000     0.00000     0.00000     0.00000     0.00000     0.00000
  -------------------------------------------------------------------------------------
  Total      -0.05347     0.51669    -1.96720     0.53296    -0.38411     0.43325
  in kB      -0.08550     0.82624    -3.14575     0.85225    -0.61422     0.69281
  external pressure =       -0.80 kB  Pullay stress =        0.00 kB

  kinetic pressure (ideal gas correction) =      0.11 kB
  total pressure  =     -0.69 kB
  Total+kin.    -0.020       0.973      -3.034       0.928      -0.555       0.677

 VOLUME and BASIS-vectors are now :
 -----------------------------------------------------------------------------
  energy-cutoff  :      400.00
  volume of cell :     1001.92
      direct lattice vectors                 reciprocal lattice vectors
    10.045102543  0.000000000  0.000000000     0.099551000  0.000311601  0.002847855
    -0.030383123  9.706870376  0.000000000     0.000000000  0.103019816 -0.002907774
    -0.294857830  0.290028746 10.275458653     0.000000000 -0.000000000  0.097319257

  length of vectors
    10.045102543  9.706917926 10.283778894     0.099592213  0.103060844  0.097319257


 FORCES acting on ions
    electron-ion (+dipol)            ewald-force                    non-local-force                 convergence-correction
 -----------------------------------------------------------------------------------------------
   -.194E+02 0.260E+02 0.395E+02   0.210E+02 -.280E+02 -.423E+02   -.224E+01 0.331E+01 0.418E+01   0.381E-04 0.452E-06 -.414E-04
   0.526E+02 -.476E+01 0.693E+01   -.585E+02 0.547E+01 -.763E+01   0.578E+01 -.636E+00 0.373E+00   -.351E-04 0.128E-03 -.157E-04
   -.238E+02 -.483E+02 -.618E+01   0.269E+02 0.549E+02 0.686E+01   -.285E+01 -.526E+01 -.779E+00   -.585E-04 0.478E-04 -.269E-04
   -.981E+01 0.253E+02 -.440E+02   0.107E+02 -.277E+02 0.477E+02   -.770E+00 0.268E+01 -.430E+01   0.310E-04 -.282E-05 0.386E-04
   -.149E+00 0.360E+01 0.378E+01   -.101E+00 -.459E+01 -.467E+01   0.386E-01 -.716E+00 0.562E+00   -.235E-04 0.625E-03 0.157E-05
 -----------------------------------------------------------------------------------------------
   -.591E+00 0.186E+01 0.534E-01   0.355E-14 -.355E-14 0.000E+00   -.500E-01 -.631E+00 0.358E-01   -.479E-04 0.798E-03 -.437E-04


 POSITION                                       TOTAL-FORCE (eV/Angst)
 -----------------------------------------------------------------------------------
      5.34074      4.09047      3.69514        -0.643831      1.291393      1.440135
      3.83293      4.77379      4.42952        -0.110749      0.074342     -0.319437
      5.37087      5.62088      4.69437         0.187520      1.337655     -0.096648
      5.12307      4.12666      5.52041         0.137571      0.226273     -0.600289
      4.90524      4.67447      4.56552        -0.211554     -1.701510     -0.334618
 -----------------------------------------------------------------------------------
    total drift:                               -0.641042      1.228152      0.089144


--------------------------------------------------------------------------------------------------------



  FREE ENERGIE OF THE ION-ELECTRON SYSTEM (eV)
  ---------------------------------------------------
  free  energy   TOTEN  =       -24.00539366 eV

  energy  without entropy=      -24.03121343  energy(sigma->0) =      -24.01400025

 d Force =-0.3129132E-01[-0.170E+00, 0.107E+00]  d Energy =-0.3243832E-01 0.115E-02
 d Force =-0.9396058E+00[-0.118E+01,-0.699E+00]  d Ewald  =-0.9355675E+00-0.404E-02


--------------------------------------------------------------------------------------------------------


    POTLOK:  cpu time    2.2000: real time    2.2947


--------------------------------------------------------------------------------------------------------


           RANDOM_SEED =         578496086               30                0
   IONSTEP:  cpu time    0.0001: real time    0.0001

  ENERGY OF THE ELECTRON-ION-THERMOSTAT SYSTEM (eV)
  ---------------------------------------------------
% ion-electron   TOTEN  =       -24.005394  see above
  kinetic energy EKIN   =         0.042377
  kin. lattice  EKIN_LAT=         0.000000  (temperature   81.96 K)
  nose potential ES     =         0.031245
  nose kinetic   EPS    =         0.041268
  ---------------------------------------------------
  total energy   ETOTAL =       -23.890503 eV

  maximum distance moved by ions :      0.47E-02


 mean value of Nose-termostat <S>:     2.112 mean value of <T> :    81.961
 mean temperature <T/S>/<1/S>  :    81.961

    WAVPRE:  cpu time    0.5419: real time    0.5514
    FEWALD:  cpu time    0.0008: real time    0.0008
    ORTHCH:  cpu time    0.2668: real time    0.2674
 Prediction of Wavefunctions ALPHA= 0.618 BETA=-0.888
    POTLOK:  cpu time    1.8789: real time    1.8842
    EDDIAG:  cpu time    0.6319: real time    0.6334
     LOOP+:  cpu time   76.3537: real time   77.4905
    4ORBIT:  cpu time    0.0000: real time    0.0000

 total amount of memory used by VASP MPI-rank0   299296. kBytes
=======================================================================

   base      :      30000. kBytes
   nonlr-proj:        153. kBytes
   fftplans  :      86584. kBytes
   grid      :     154542. kBytes
   one-center:         15. kBytes
   wavefun   :      28002. kBytes

  
  
 General timing and accounting informations for this job:
 ========================================================
  
                  Total CPU time used (sec):      684.302
                            User time (sec):      670.935
                          System time (sec):       13.368
                         Elapsed time (sec):      691.578
  
                   Maximum memory used (kb):      466616.
                   Average memory used (kb):           0.
  
                          Minor page faults:      2223663
                          Major page faults:            0
                 Voluntary context switches:          401
