<?xml version="1.0" encoding="ISO-8859-1"?>
<modeling>
 <generator>
  <i name="program" type="string">vasp </i>
  <i name="version" type="string">5.4.4.18Apr17-6-g9f103f2a35  </i>
  <i name="subversion" type="string">(build Jul 12 2018 13:43:46) complex            parallel </i>
  <i name="platform" type="string">LinuxGNU </i>
  <i name="date" type="string">2019 06 22 </i>
  <i name="time" type="string">02:17:35 </i>
 </generator>
 <incar>
  <i type="int" name="ISTART">     0</i>
  <i type="string" name="PREC">a</i>
  <i type="string" name="ALGO">fast</i>
  <i type="int" name="MAXMIX">    50</i>
  <i type="int" name="ICHARG">     2</i>
  <i type="int" name="IBRION">     0</i>
  <i name="EDIFF">      0.00000100</i>
  <i type="int" name="NSW">    10</i>
  <i type="int" name="ISIF">     2</i>
  <i type="int" name="ISYM">     0</i>
  <i type="int" name="NBLOCK">     1</i>
  <i type="int" name="KBLOCK">   100</i>
  <i name="ENCUT">    400.00000000</i>
  <i name="POTIM">      2.00000000</i>
  <i name="TEBEG">     50.00000000</i>
  <i name="TEEND">     50.00000000</i>
  <i name="SMASS">      0.00000000</i>
  <i type="logical" name="LREAL"> T  </i>
  <i type="int" name="ISMEAR">     1</i>
  <i name="SIGMA">      0.20000000</i>
  <i name="KSPACING">      0.50000000</i>
  <i type="logical" name="KGAMMA"> F  </i>
  <i name="PSTRESS">      0.00000000</i>
  <i type="logical" name="LWAVE"> F  </i>
  <i type="logical" name="LCHARG"> F  </i>
  <v type="int" name="KPOINT_BSE">    -1     0     0     0</v>
 </incar>
 <structure name="primitive_cell" >
  <crystal>
   <varray name="basis" >
    <v>      10.04510254       0.00000000       0.00000000 </v>
    <v>      -0.03038312       9.70687038       0.00000000 </v>
    <v>      -0.29485783       0.29002875      10.27545865 </v>
   </varray>
   <i name="volume">   1001.92409441 </i>
   <varray name="rec_basis" >
    <v>       0.09955100       0.00031160       0.00284786 </v>
    <v>       0.00000000       0.10301982      -0.00290777 </v>
    <v>       0.00000000      -0.00000000       0.09731926 </v>
   </varray>
  </crystal>
  <varray name="positions" >
   <v>      -0.46211940       0.40718744       0.36092525 </v>
   <v>      -0.49689112       0.46790003       0.44460369 </v>
   <v>      -0.44852373      -0.43523026       0.44258666 </v>
   <v>       0.39440818       0.48040633       0.43860556 </v>
   <v>      -0.47176269       0.41634598      -0.46082976 </v>
  </varray>
 </structure>
 <varray name="primitive_index" >
  <v type="int" >        1 </v>
  <v type="int" >        5 </v>
  <v type="int" >        3 </v>
  <v type="int" >        2 </v>
  <v type="int" >        4 </v>
 </varray>
 <kpoints>
  <generation param="Monkhorst-Pack">
   <v type="int" name="divisions">       2        2        2 </v>
   <v name="usershift">      0.00000000       0.00000000       0.00000000 </v>
   <v name="genvec1">      0.50000000       0.00000000       0.00000000 </v>
   <v name="genvec2">      0.00000000       0.50000000       0.00000000 </v>
   <v name="genvec3">      0.00000000       0.00000000       0.50000000 </v>
   <v name="shift">      0.50000000       0.50000000       0.50000000 </v>
  </generation>
  <varray name="kpointlist" >
   <v>       0.25000000       0.25000000       0.25000000 </v>
   <v>      -0.25000000       0.25000000       0.25000000 </v>
   <v>       0.25000000      -0.25000000       0.25000000 </v>
   <v>      -0.25000000      -0.25000000       0.25000000 </v>
  </varray>
  <varray name="weights" >
   <v>       0.25000000 </v>
   <v>       0.25000000 </v>
   <v>       0.25000000 </v>
   <v>       0.25000000 </v>
  </varray>
 </kpoints>
 <parameters>
  <separator name="general" >
   <i type="string" name="SYSTEM">unknown system</i>
   <i type="logical" name="LCOMPAT"> F  </i>
  </separator>
  <separator name="electronic" >
   <i type="string" name="PREC">a</i>
   <i name="ENMAX">    400.00000000</i>
   <i name="ENAUG">    644.87300000</i>
   <i name="EDIFF">      0.00000100</i>
   <i type="int" name="IALGO">    68</i>
   <i type="int" name="IWAVPR">    12</i>
   <i type="int" name="NBANDS">     8</i>
   <i name="NELECT">      8.00000000</i>
   <i type="int" name="TURBO">     0</i>
   <i type="int" name="IRESTART">     0</i>
   <i type="int" name="NREBOOT">     0</i>
   <i type="int" name="NMIN">     0</i>
   <i name="EREF">      0.00000000</i>
   <separator name="electronic smearing" >
    <i type="int" name="ISMEAR">     1</i>
    <i name="SIGMA">      0.20000000</i>
    <i name="KSPACING">      0.50000000</i>
    <i type="logical" name="KGAMMA"> F  </i>
   </separator>
   <separator name="electronic projectors" >
    <i type="logical" name="LREAL"> T  </i>
    <v name="ROPT">      0.00000000      0.00000000</v>
    <i type="int" name="LMAXPAW">  -100</i>
    <i type="int" name="LMAXMIX">     2</i>
    <i type="logical" name="NLSPLINE"> F  </i>
   </separator>
   <separator name="electronic startup" >
    <i type="int" name="ISTART">     0</i>
    <i type="int" name="ICHARG">     2</i>
    <i type="int" name="INIWAV">     1</i>
   </separator>
   <separator name="electronic spin" >
    <i type="int" name="ISPIN">     1</i>
    <i type="logical" name="LNONCOLLINEAR"> F  </i>
    <v name="MAGMOM">      1.00000000      1.00000000      1.00000000      1.00000000      1.00000000</v>
    <i name="NUPDOWN">     -1.00000000</i>
    <i type="logical" name="LSORBIT"> F  </i>
    <v name="SAXIS">      0.00000000      0.00000000      1.00000000</v>
    <i type="logical" name="LSPIRAL"> F  </i>
    <v name="QSPIRAL">      0.00000000      0.00000000      0.00000000</v>
    <i type="logical" name="LZEROZ"> F  </i>
   </separator>
   <separator name="electronic exchange-correlation" >
    <i type="logical" name="LASPH"> F  </i>
    <i type="logical" name="LMETAGGA"> F  </i>
   </separator>
   <separator name="electronic convergence" >
    <i type="int" name="NELM">    60</i>
    <i type="int" name="NELMDL">    -5</i>
    <i type="int" name="NELMIN">     2</i>
    <i name="ENINI">    400.00000000</i>
    <separator name="electronic convergence detail" >
     <i type="logical" name="LDIAG"> T  </i>
     <i type="logical" name="LSUBROT"> F  </i>
     <i name="WEIMIN">      0.00100000</i>
     <i name="EBREAK">      0.00000003</i>
     <i name="DEPER">      0.30000000</i>
     <i type="int" name="NRMM">     4</i>
     <i name="TIME">      0.40000000</i>
    </separator>
   </separator>
   <separator name="electronic mixer" >
    <i name="AMIX">      0.40000000</i>
    <i name="BMIX">      1.00000000</i>
    <i name="AMIN">      0.10000000</i>
    <i name="AMIX_MAG">      1.60000000</i>
    <i name="BMIX_MAG">      1.00000000</i>
    <separator name="electronic mixer details" >
     <i type="int" name="IMIX">     4</i>
     <i type="logical" name="MIXFIRST"> F  </i>
     <i type="int" name="MAXMIX">    50</i>
     <i name="WC">    100.00000000</i>
     <i type="int" name="INIMIX">     1</i>
     <i type="int" name="MIXPRE">     1</i>
     <i type="int" name="MREMOVE">     5</i>
    </separator>
   </separator>
   <separator name="electronic dipolcorrection" >
    <i type="logical" name="LDIPOL"> F  </i>
    <i type="logical" name="LMONO"> F  </i>
    <i type="int" name="IDIPOL">     0</i>
    <i name="EPSILON">      1.00000000</i>
    <v name="DIPOL">   -100.00000000   -100.00000000   -100.00000000</v>
    <i name="EFIELD">      0.00000000</i>
   </separator>
  </separator>
  <separator name="grids" >
   <i type="int" name="NGX">    70</i>
   <i type="int" name="NGY">    64</i>
   <i type="int" name="NGZ">    70</i>
   <i type="int" name="NGXF">   140</i>
   <i type="int" name="NGYF">   128</i>
   <i type="int" name="NGZF">   140</i>
   <i type="logical" name="ADDGRID"> F  </i>
  </separator>
  <separator name="ionic" >
   <i type="int" name="NSW">    10</i>
   <i type="int" name="IBRION">     0</i>
   <i type="int" name="MDALGO">     0</i>
   <i type="int" name="ISIF">     2</i>
   <i name="PSTRESS">      0.00000000</i>
   <i name="EDIFFG">      0.00001000</i>
   <i type="int" name="NFREE">     0</i>
   <i name="POTIM">      2.00000000</i>
   <i name="SMASS">      0.00160298</i>
   <i name="SCALEE">      1.00000000</i>
  </separator>
  <separator name="ionic md" >
   <i name="TEBEG">     50.00000000</i>
   <i name="TEEND">     50.00000000</i>
   <i type="int" name="NBLOCK">     1</i>
   <i type="int" name="KBLOCK">     1</i>
   <i type="int" name="NPACO">   256</i>
   <i name="APACO">     16.00000000</i>
  </separator>
  <separator name="symmetry" >
   <i type="int" name="ISYM">     0</i>
   <i name="SYMPREC">      0.00001000</i>
  </separator>
  <separator name="dos" >
   <i type="int" name="LORBIT">     0</i>
   <v name="RWIGS">     -1.00000000     -1.00000000</v>
   <i type="int" name="NEDOS">   301</i>
   <i name="EMIN">     10.00000000</i>
   <i name="EMAX">    -10.00000000</i>
   <i name="EFERMI">      0.00000000</i>
  </separator>
  <separator name="writing" >
   <i type="int" name="NWRITE">     2</i>
   <i type="logical" name="LWAVE"> F  </i>
   <i type="logical" name="LDOWNSAMPLE"> F  </i>
   <i type="logical" name="LCHARG"> F  </i>
   <i type="logical" name="LPARD"> F  </i>
   <i type="logical" name="LVTOT"> F  </i>
   <i type="logical" name="LVHAR"> F  </i>
   <i type="logical" name="LELF"> F  </i>
   <i type="logical" name="LOPTICS"> F  </i>
   <v name="STM">      0.00000000      0.00000000      0.00000000      0.00000000      0.00000000      0.00000000      0.00000000</v>
  </separator>
  <separator name="performance" >
   <i type="int" name="NPAR">     1</i>
   <i type="int" name="NSIM">     4</i>
   <i type="int" name="NBLK">    -1</i>
   <i type="logical" name="LPLANE"> T  </i>
   <i type="logical" name="LSCALAPACK"> T  </i>
   <i type="logical" name="LSCAAWARE"> F  </i>
   <i type="logical" name="LSCALU"> F  </i>
   <i type="logical" name="LASYNC"> F  </i>
   <i type="logical" name="LORBITALREAL"> F  </i>
  </separator>
  <separator name="miscellaneous" >
   <i type="int" name="IDIOT">     3</i>
   <i type="int" name="ISPECIAL">     0</i>
   <i type="logical" name="LMUSIC"> F  </i>
   <v name="POMASS">      1.00000000     12.01100000</v>
   <v name="DARWINR">      0.00000000      0.00000000</v>
   <v name="DARWINV">      1.00000000      1.00000000</v>
   <i type="logical" name="LCORR"> T  </i>
  </separator>
  <i type="logical" name="GGA_COMPAT"> T  </i>
  <i type="logical" name="LBERRY"> F  </i>
  <i type="int" name="ICORELEVEL">     0</i>
  <i type="logical" name="LDAU"> F  </i>
  <i type="int" name="I_CONSTRAINED_M">     0</i>
  <separator name="electronic exchange-correlation" >
   <i type="string" name="GGA">--</i>
   <i type="int" name="VOSKOWN">     0</i>
   <i type="logical" name="LHFCALC"> F  </i>
   <i type="string" name="PRECFOCK"></i>
   <i type="logical" name="LSYMGRAD"> F  </i>
   <i type="logical" name="LHFONE"> F  </i>
   <i type="logical" name="LRHFCALC"> F  </i>
   <i type="logical" name="LTHOMAS"> F  </i>
   <i type="logical" name="LMODELHF"> F  </i>
   <i name="ENCUT4O">     -1.00000000</i>
   <i type="int" name="EXXOEP">     0</i>
   <i type="int" name="FOURORBIT">     0</i>
   <i name="AEXX">      0.00000000</i>
   <i name="HFALPHA">      0.00000000</i>
   <i name="MCALPHA">      0.00000000</i>
   <i name="ALDAX">      1.00000000</i>
   <i name="AGGAX">      1.00000000</i>
   <i name="ALDAC">      1.00000000</i>
   <i name="AGGAC">      1.00000000</i>
   <i type="int" name="NKREDX">     1</i>
   <i type="int" name="NKREDY">     1</i>
   <i type="int" name="NKREDZ">     1</i>
   <i type="logical" name="SHIFTRED"> F  </i>
   <i type="logical" name="ODDONLY"> F  </i>
   <i type="logical" name="EVENONLY"> F  </i>
   <i type="int" name="LMAXFOCK">     0</i>
   <i type="int" name="NMAXFOCKAE">     0</i>
   <i type="logical" name="LFOCKAEDFT"> F  </i>
   <i name="HFSCREEN">      0.00000000</i>
   <i name="HFSCREENC">      0.00000000</i>
   <i type="int" name="NBANDSGWLOW">     0</i>
  </separator>
  <separator name="vdW DFT" >
   <i type="logical" name="LUSE_VDW"> F  </i>
   <i name="Zab_VDW">     -0.84910000</i>
   <i name="PARAM1">      0.12340000</i>
   <i name="PARAM2">      1.00000000</i>
   <i name="PARAM3">      0.00000000</i>
  </separator>
  <separator name="model GW" >
   <i type="int" name="MODEL_GW">     0</i>
   <i name="MODEL_EPS0">    120.23089133</i>
   <i name="MODEL_ALPHA">      1.00000000</i>
  </separator>
  <separator name="linear response parameters" >
   <i type="logical" name="LEPSILON"> F  </i>
   <i type="logical" name="LRPA"> F  </i>
   <i type="logical" name="LNABLA"> F  </i>
   <i type="logical" name="LVEL"> F  </i>
   <i type="int" name="KINTER">     0</i>
   <i name="CSHIFT">      0.10000000</i>
   <i name="OMEGAMAX">     -1.00000000</i>
   <i name="DEG_THRESHOLD">      0.00200000</i>
   <i name="RTIME">     -0.10000000</i>
   <i name="WPLASMAI">      0.00000000</i>
   <v name="DFIELD">      0.00000000      0.00000000      0.00000000</v>
   <v name="WPLASMA">      0.00000000      0.00000000      0.00000000      0.00000000      0.00000000      0.00000000      0.00000000      0.00000000      0.00000000</v>
  </separator>
  <separator name="orbital magnetization" >
   <i type="logical" name="NUCIND"> F  </i>
   <v name="MAGPOS">      0.00000000      0.00000000      0.00000000</v>
   <i type="logical" name="LNICSALL"> T  </i>
   <i type="logical" name="ORBITALMAG"> F  </i>
   <i type="logical" name="LMAGBLOCH"> F  </i>
   <i type="logical" name="LCHIMAG"> F  </i>
   <i type="logical" name="LGAUGE"> T  </i>
   <i type="int" name="MAGATOM">     0</i>
   <v name="MAGDIPOL">      0.00000000      0.00000000      0.00000000</v>
   <v name="AVECCONST">      0.00000000      0.00000000      0.00000000</v>
  </separator>
  <separator name="response functions" >
   <i type="logical" name="LADDER"> F  </i>
   <i type="logical" name="LRPAFORCE"> F  </i>
   <i type="logical" name="LFXC"> F  </i>
   <i type="logical" name="LHARTREE"> T  </i>
   <i type="int" name="IBSE">     0</i>
   <v type="int" name="KPOINT">    -1     0     0     0</v>
   <i type="logical" name="LTCTE"> F  </i>
   <i type="logical" name="LTETE"> F  </i>
   <i type="logical" name="LTRIPLET"> F  </i>
   <i type="logical" name="LFXCEPS"> F  </i>
   <i type="logical" name="LFXHEG"> F  </i>
   <i type="int" name="NATURALO">     2</i>
   <i type="logical" name="L2ORDER"> F  </i>
   <i type="logical" name="LMP2LT"> F  </i>
   <i type="logical" name="LUSEW"> F  </i>
   <i name="ENCUTGW">     -2.00000000</i>
   <i name="ENCUTGWSOFT">     -2.00000000</i>
   <i name="ENCUTLF">     -1.00000000</i>
   <i type="int" name="LMAXMP2">    -1</i>
   <i name="SCISSOR">      0.00000000</i>
   <i type="int" name="NOMEGA">     0</i>
   <i type="int" name="NOMEGAR">     0</i>
   <i type="int" name="NBANDSGW">    -1</i>
   <i type="int" name="NBANDSO">    -1</i>
   <i type="int" name="NBANDSV">    -1</i>
   <i type="int" name="NELM">     1</i>
   <i type="int" name="NELMHF">     1</i>
   <i type="int" name="DIM">     3</i>
   <i type="int" name="ANTIRES">     0</i>
   <i name="OMEGAMAX">    -30.00000000</i>
   <i name="OMEGAMIN">    -30.00000000</i>
   <i name="OMEGATL">   -200.00000000</i>
   <i type="int" name="OMEGAGRID">   140</i>
   <i name="CSHIFT">     -0.10000000</i>
   <i type="logical" name="SELFENERGY"> F  </i>
   <i type="logical" name="LSPECTRAL"> F  </i>
   <i type="logical" name="LSPECTRALGW"> F  </i>
   <i type="logical" name="LSINGLES"> F  </i>
   <i type="logical" name="LFERMIGW"> F  </i>
   <i type="logical" name="ODDONLYGW"> F  </i>
   <i type="logical" name="EVENONLYGW"> F  </i>
   <i type="int" name="NKREDLFX">     1</i>
   <i type="int" name="NKREDLFY">     1</i>
   <i type="int" name="NKREDLFZ">     1</i>
   <i type="int" name="MAXMEM">  2800</i>
   <i type="int" name="TELESCOPE">     0</i>
   <i type="int" name="TAUPAR">     1</i>
   <i type="int" name="OMEGAPAR">    -1</i>
   <i name="LAMBDA">      1.00000000</i>
  </separator>
  <separator name="External order field" >
   <i name="OFIELD_KAPPA">      0.00000000</i>
   <v name="OFIELD_K">      0.00000000      0.00000000      0.00000000</v>
   <i name="OFIELD_Q6_NEAR">      0.00000000</i>
   <i name="OFIELD_Q6_FAR">      0.00000000</i>
   <i name="OFIELD_A">      0.00000000</i>
  </separator>
 </parameters>
 <atominfo>
  <atoms>       5 </atoms>
  <types>       2 </types>
  <array name="atoms" >
   <dimension dim="1">ion</dimension>
   <field type="string">element</field>
   <field type="int">atomtype</field>
   <set>
    <rc><c>H </c><c>   1</c></rc>
    <rc><c>H </c><c>   1</c></rc>
    <rc><c>H </c><c>   1</c></rc>
    <rc><c>H </c><c>   1</c></rc>
    <rc><c>C </c><c>   2</c></rc>
   </set>
  </array>
  <array name="atomtypes" >
   <dimension dim="1">type</dimension>
   <field type="int">atomspertype</field>
   <field type="string">element</field>
   <field>mass</field>
   <field>valence</field>
   <field type="string">pseudopotential</field>
   <set>
    <rc><c>   4</c><c>H </c><c>      1.00000000</c><c>      1.00000000</c><c>  PAW_PBE H 15Jun2001                   </c></rc>
    <rc><c>   1</c><c>C </c><c>     12.01100000</c><c>      4.00000000</c><c>  PAW_PBE C 08Apr2002                   </c></rc>
   </set>
  </array>
 </atominfo>
 <structure name="initialpos" >
  <crystal>
   <varray name="basis" >
    <v>      10.04510254       0.00000000       0.00000000 </v>
    <v>      -0.03038312       9.70687038       0.00000000 </v>
    <v>      -0.29485783       0.29002875      10.27545865 </v>
   </varray>
   <i name="volume">   1001.92409441 </i>
   <varray name="rec_basis" >
    <v>       0.09955100       0.00031160       0.00284786 </v>
    <v>       0.00000000       0.10301982      -0.00290777 </v>
    <v>       0.00000000      -0.00000000       0.09731926 </v>
   </varray>
  </crystal>
  <varray name="positions" >
   <v>       0.53788060       0.40718744       0.36092525 </v>
   <v>       0.39440818       0.48040633       0.43860556 </v>
   <v>       0.55147627       0.56476974       0.44258666 </v>
   <v>       0.52823731       0.41634598       0.53917024 </v>
   <v>       0.50310888       0.46790003       0.44460369 </v>
  </varray>
  <varray name="velocities" >
   <v>       0.00042112      -0.00083715       0.00064284 </v>
   <v>       0.00152199       0.00208666      -0.00203315 </v>
   <v>      -0.00120453      -0.00036681      -0.00188309 </v>
   <v>       0.00083798       0.00082250       0.00054408 </v>
   <v>      -0.00013126      -0.00014197       0.00022724 </v>
  </varray>
 </structure>
 <calculation>
  <scstep>
   <time name="dav">    2.82    2.82</time>
   <time name="total">    4.49    4.50</time>
   <energy>
    <i name="alphaZ">      0.24178557 </i>
    <i name="ewald">    129.37132068 </i>
    <i name="hartreedc">   -244.35620681 </i>
    <i name="XCdc">     22.02018920 </i>
    <i name="pawpsdc">    117.05815612 </i>
    <i name="pawaedc">   -117.66307307 </i>
    <i name="eentropy">      0.00303487 </i>
    <i name="bandstr">    -84.85298136 </i>
    <i name="atom">    197.04175453 </i>
    <i name="e_fr_energy">     18.86397974 </i>
    <i name="e_wo_entrp">     18.86094487 </i>
    <i name="e_0_energy">     18.86296812 </i>
   </energy>
  </scstep>
  <scstep>
   <time name="dav">    2.22    2.22</time>
   <time name="total">    2.22    2.22</time>
   <energy>
    <i name="e_fr_energy">    -21.99495737 </i>
    <i name="e_wo_entrp">    -21.99786502 </i>
    <i name="e_0_energy">    -21.99592659 </i>
   </energy>
  </scstep>
  <scstep>
   <time name="dav">    2.01    2.02</time>
   <time name="total">    2.01    2.02</time>
   <energy>
    <i name="e_fr_energy">    -27.34220896 </i>
    <i name="e_wo_entrp">    -27.36608608 </i>
    <i name="e_0_energy">    -27.35016800 </i>
   </energy>
  </scstep>
  <scstep>
   <time name="dav">    3.64    3.64</time>
   <time name="total">    3.64    3.64</time>
   <energy>
    <i name="e_fr_energy">    -27.57071524 </i>
    <i name="e_wo_entrp">    -27.59553036 </i>
    <i name="e_0_energy">    -27.57898695 </i>
   </energy>
  </scstep>
  <scstep>
   <time name="dav">    2.75    2.76</time>
   <time name="total">    2.99    3.00</time>
   <energy>
    <i name="e_fr_energy">    -27.57080026 </i>
    <i name="e_wo_entrp">    -27.59561569 </i>
    <i name="e_0_energy">    -27.57907207 </i>
   </energy>
  </scstep>
  <scstep>
   <time name="diag">    0.42    0.42</time>
   <time name="diis">    1.46    1.46</time>
   <time name="orth">    0.01    0.01</time>
   <time name="total">    3.82    3.83</time>
   <energy>
    <i name="e_fr_energy">    -24.64362649 </i>
    <i name="e_wo_entrp">    -24.66928496 </i>
    <i name="e_0_energy">    -24.65217931 </i>
   </energy>
  </scstep>
  <scstep>
   <time name="diag">    0.45    0.45</time>
   <time name="diis">    1.45    1.45</time>
   <time name="orth">    0.01    0.01</time>
   <time name="total">    3.86    3.87</time>
   <energy>
    <i name="e_fr_energy">    -24.14672780 </i>
    <i name="e_wo_entrp">    -24.17380616 </i>
    <i name="e_0_energy">    -24.15575392 </i>
   </energy>
  </scstep>
  <scstep>
   <time name="diag">    0.46    0.46</time>
   <time name="diis">    1.51    1.51</time>
   <time name="orth">    0.01    0.01</time>
   <time name="total">    3.88    3.89</time>
   <energy>
    <i name="e_fr_energy">    -24.00026949 </i>
    <i name="e_wo_entrp">    -24.02766572 </i>
    <i name="e_0_energy">    -24.00940157 </i>
   </energy>
  </scstep>
  <scstep>
   <time name="diag">    0.46    0.47</time>
   <time name="diis">    1.53    1.53</time>
   <time name="orth">    0.01    0.01</time>
   <time name="total">    3.91    3.92</time>
   <energy>
    <i name="e_fr_energy">    -23.99431503 </i>
    <i name="e_wo_entrp">    -24.02179069 </i>
    <i name="e_0_energy">    -24.00347359 </i>
   </energy>
  </scstep>
  <scstep>
   <time name="diag">    0.47    0.47</time>
   <time name="diis">    1.53    1.53</time>
   <time name="orth">    0.01    0.01</time>
   <time name="total">    3.82    3.83</time>
   <energy>
    <i name="e_fr_energy">    -23.98974010 </i>
    <i name="e_wo_entrp">    -24.01734954 </i>
    <i name="e_0_energy">    -23.99894325 </i>
   </energy>
  </scstep>
  <scstep>
   <time name="diag">    0.48    0.48</time>
   <time name="diis">    1.52    1.52</time>
   <time name="orth">    0.01    0.01</time>
   <time name="total">    3.81    3.82</time>
   <energy>
    <i name="e_fr_energy">    -23.98763298 </i>
    <i name="e_wo_entrp">    -24.01523595 </i>
    <i name="e_0_energy">    -23.99683397 </i>
   </energy>
  </scstep>
  <scstep>
   <time name="diag">    0.47    0.47</time>
   <time name="diis">    1.51    1.52</time>
   <time name="orth">    0.01    0.01</time>
   <time name="total">    3.73    3.74</time>
   <energy>
    <i name="e_fr_energy">    -24.00006444 </i>
    <i name="e_wo_entrp">    -24.02747293 </i>
    <i name="e_0_energy">    -24.00920060 </i>
   </energy>
  </scstep>
  <scstep>
   <time name="diag">    0.44    0.45</time>
   <time name="diis">    1.51    1.51</time>
   <time name="orth">    0.01    0.01</time>
   <time name="total">    3.69    3.70</time>
   <energy>
    <i name="e_fr_energy">    -23.99823425 </i>
    <i name="e_wo_entrp">    -24.02574780 </i>
    <i name="e_0_energy">    -24.00740544 </i>
   </energy>
  </scstep>
  <scstep>
   <time name="diag">    0.42    0.42</time>
   <time name="diis">    1.70    1.71</time>
   <time name="orth">    0.01    0.01</time>
   <time name="total">    3.86    3.86</time>
   <energy>
    <i name="e_fr_energy">    -24.00097549 </i>
    <i name="e_wo_entrp">    -24.02854544 </i>
    <i name="e_0_energy">    -24.01016548 </i>
   </energy>
  </scstep>
  <scstep>
   <time name="diag">    0.44    0.44</time>
   <time name="diis">    1.54    1.55</time>
   <time name="orth">    0.01    0.01</time>
   <time name="total">    3.69    3.70</time>
   <energy>
    <i name="e_fr_energy">    -24.00164092 </i>
    <i name="e_wo_entrp">    -24.02920165 </i>
    <i name="e_0_energy">    -24.01082783 </i>
   </energy>
  </scstep>
  <scstep>
   <time name="diag">    0.44    0.44</time>
   <time name="diis">    1.53    1.53</time>
   <time name="orth">    0.01    0.01</time>
   <time name="total">    3.70    3.71</time>
   <energy>
    <i name="e_fr_energy">    -24.00191188 </i>
    <i name="e_wo_entrp">    -24.02946986 </i>
    <i name="e_0_energy">    -24.01109787 </i>
   </energy>
  </scstep>
  <scstep>
   <time name="diag">    0.46    0.46</time>
   <time name="diis">    1.53    1.53</time>
   <time name="orth">    0.01    0.01</time>
   <time name="total">    3.71    3.72</time>
   <energy>
    <i name="e_fr_energy">    -24.00207674 </i>
    <i name="e_wo_entrp">    -24.02963278 </i>
    <i name="e_0_energy">    -24.01126209 </i>
   </energy>
  </scstep>
  <scstep>
   <time name="diag">    0.48    0.48</time>
   <time name="diis">    1.46    1.47</time>
   <time name="orth">    0.01    0.01</time>
   <time name="total">    3.74    3.75</time>
   <energy>
    <i name="e_fr_energy">    -24.00212800 </i>
    <i name="e_wo_entrp">    -24.02967987 </i>
    <i name="e_0_energy">    -24.01131196 </i>
   </energy>
  </scstep>
  <scstep>
   <time name="diag">    0.48    0.48</time>
   <time name="diis">    1.48    1.48</time>
   <time name="orth">    0.01    0.01</time>
   <time name="total">    3.78    3.79</time>
   <energy>
    <i name="e_fr_energy">    -24.00213566 </i>
    <i name="e_wo_entrp">    -24.02969074 </i>
    <i name="e_0_energy">    -24.01132069 </i>
   </energy>
  </scstep>
  <scstep>
   <time name="diag">    0.47    0.47</time>
   <time name="diis">    1.15    1.15</time>
   <time name="orth">    0.01    0.01</time>
   <time name="total">    3.46    3.47</time>
   <energy>
    <i name="e_fr_energy">    -24.00214063 </i>
    <i name="e_wo_entrp">    -24.02969653 </i>
    <i name="e_0_energy">    -24.01132593 </i>
   </energy>
  </scstep>
  <scstep>
   <time name="diag">    0.45    0.45</time>
   <time name="diis">    1.22    1.22</time>
   <time name="orth">    0.01    0.01</time>
   <time name="total">    3.48    3.49</time>
   <energy>
    <i name="e_fr_energy">    -24.00214197 </i>
    <i name="e_wo_entrp">    -24.02969821 </i>
    <i name="e_0_energy">    -24.01132738 </i>
   </energy>
  </scstep>
  <scstep>
   <time name="diag">    0.45    0.45</time>
   <time name="diis">    1.22    1.22</time>
   <time name="orth">    0.01    0.01</time>
   <time name="total">    3.25    3.26</time>
   <energy>
    <i name="alphaZ">      0.24178557 </i>
    <i name="ewald">    129.37132068 </i>
    <i name="hartreedc">   -285.06730855 </i>
    <i name="XCdc">     24.76413123 </i>
    <i name="pawpsdc">    411.72190545 </i>
    <i name="pawaedc">   -412.51180673 </i>
    <i name="eentropy">      0.02755677 </i>
    <i name="bandstr">    -89.59148182 </i>
    <i name="atom">    197.04175453 </i>
    <i name="e_fr_energy">    -24.00214287 </i>
    <i name="e_wo_entrp">    -24.02969963 </i>
    <i name="e_0_energy">    -24.01132845 </i>
   </energy>
  </scstep>
  <structure>
   <crystal>
    <varray name="basis" >
     <v>      10.04510254       0.00000000       0.00000000 </v>
     <v>      -0.03038312       9.70687038       0.00000000 </v>
     <v>      -0.29485783       0.29002875      10.27545865 </v>
    </varray>
    <i name="volume">   1001.92409441 </i>
    <varray name="rec_basis" >
     <v>       0.09955100       0.00031160       0.00284786 </v>
     <v>       0.00000000       0.10301982      -0.00290777 </v>
     <v>       0.00000000      -0.00000000       0.09731926 </v>
    </varray>
   </crystal>
   <varray name="positions" >
    <v>       0.53788060       0.40718744       0.36092525 </v>
    <v>       0.39440818       0.48040633       0.43860556 </v>
    <v>       0.55147627       0.56476974       0.44258666 </v>
    <v>       0.52823731       0.41634598       0.53917024 </v>
    <v>       0.50310888       0.46790003       0.44460369 </v>
   </varray>
  </structure>
  <varray name="forces" >
   <v>      -0.47214555       0.95720671       0.00477301 </v>
   <v>      -0.01834180       0.03297517      -0.02115680 </v>
   <v>       0.46860700       1.29030432       0.01984060 </v>
   <v>       0.01269404      -0.21002516       0.09207847 </v>
   <v>      -0.92676275      -1.12765982      -0.44452678 </v>
  </varray>
  <varray name="stress" >
   <v>       0.15652675       1.43469496       0.39267775 </v>
   <v>       1.43469496      -0.33615252      -1.00330776 </v>
   <v>       0.39267775      -1.00330777      -1.51146224 </v>
  </varray>
  <energy>
   <i name="e_fr_energy">    -24.00214287 </i>
   <i name="e_wo_entrp">    -24.01132845 </i>
   <i name="e_0_energy">      0.02755677 </i>
   <i name="kinetic">      0.03145693 </i>
   <i name="lattice kinetic">      0.00000000 </i>
   <i name="nosepot">      0.00000000 </i>
   <i name="nosekinetic">      0.00000375 </i>
   <i name="total">    -23.97068218 </i>
  </energy>
  <dos>
   <i name="efermi">     -9.00681870 </i>
   <total>
    <array>
     <dimension dim="1">gridpoints</dimension>
     <dimension dim="2">spin</dimension>
     <field>energy</field>
     <field>total</field>
     <field>integrated</field>
     <set>
      <set comment="spin 1">
       <r>   -18.9290     0.0000     0.0000 </r>
       <r>   -18.8568     0.0000     0.0000 </r>
       <r>   -18.7846     0.0000     0.0000 </r>
       <r>   -18.7125     0.0000     0.0000 </r>
       <r>   -18.6403     0.0000     0.0000 </r>
       <r>   -18.5681    -0.0000    -0.0000 </r>
       <r>   -18.4959    -0.0000    -0.0000 </r>
       <r>   -18.4238    -0.0000    -0.0000 </r>
       <r>   -18.3516    -0.0000    -0.0000 </r>
       <r>   -18.2794    -0.0000    -0.0000 </r>
       <r>   -18.2072    -0.0000    -0.0000 </r>
       <r>   -18.1351    -0.0000    -0.0000 </r>
       <r>   -18.0629    -0.0000    -0.0000 </r>
       <r>   -17.9907    -0.0000    -0.0000 </r>
       <r>   -17.9185    -0.0000    -0.0000 </r>
       <r>   -17.8464    -0.0000    -0.0000 </r>
       <r>   -17.7742    -0.0000    -0.0000 </r>
       <r>   -17.7020    -0.0000    -0.0000 </r>
       <r>   -17.6298    -0.0001    -0.0000 </r>
       <r>   -17.5577    -0.0010    -0.0001 </r>
       <r>   -17.4855    -0.0071    -0.0006 </r>
       <r>   -17.4133    -0.0369    -0.0033 </r>
       <r>   -17.3412    -0.1358    -0.0131 </r>
       <r>   -17.2690    -0.3328    -0.0371 </r>
       <r>   -17.1968    -0.4211    -0.0675 </r>
       <r>   -17.1246     0.3049    -0.0455 </r>
       <r>   -17.0525     2.6332     0.1446 </r>
       <r>   -16.9803     6.0482     0.5811 </r>
       <r>   -16.9081     8.2339     1.1754 </r>
       <r>   -16.8359     7.2783     1.7007 </r>
       <r>   -16.7638     4.0475     1.9928 </r>
       <r>   -16.6916     1.0759     2.0704 </r>
       <r>   -16.6194    -0.2699     2.0510 </r>
       <r>   -16.5472    -0.4119     2.0212 </r>
       <r>   -16.4751    -0.2099     2.0061 </r>
       <r>   -16.4029    -0.0668     2.0013 </r>
       <r>   -16.3307    -0.0149     2.0002 </r>
       <r>   -16.2585    -0.0024     2.0000 </r>
       <r>   -16.1864    -0.0003     2.0000 </r>
       <r>   -16.1142    -0.0000     2.0000 </r>
       <r>   -16.0420    -0.0000     2.0000 </r>
       <r>   -15.9698    -0.0000     2.0000 </r>
       <r>   -15.8977    -0.0000     2.0000 </r>
       <r>   -15.8255    -0.0000     2.0000 </r>
       <r>   -15.7533    -0.0000     2.0000 </r>
       <r>   -15.6812    -0.0000     2.0000 </r>
       <r>   -15.6090     0.0000     2.0000 </r>
       <r>   -15.5368     0.0000     2.0000 </r>
       <r>   -15.4646     0.0000     2.0000 </r>
       <r>   -15.3925     0.0000     2.0000 </r>
       <r>   -15.3203     0.0000     2.0000 </r>
       <r>   -15.2481     0.0000     2.0000 </r>
       <r>   -15.1759     0.0000     2.0000 </r>
       <r>   -15.1038     0.0000     2.0000 </r>
       <r>   -15.0316     0.0000     2.0000 </r>
       <r>   -14.9594     0.0000     2.0000 </r>
       <r>   -14.8872     0.0000     2.0000 </r>
       <r>   -14.8151     0.0000     2.0000 </r>
       <r>   -14.7429     0.0000     2.0000 </r>
       <r>   -14.6707     0.0000     2.0000 </r>
       <r>   -14.5985     0.0000     2.0000 </r>
       <r>   -14.5264     0.0000     2.0000 </r>
       <r>   -14.4542     0.0000     2.0000 </r>
       <r>   -14.3820     0.0000     2.0000 </r>
       <r>   -14.3098     0.0000     2.0000 </r>
       <r>   -14.2377     0.0000     2.0000 </r>
       <r>   -14.1655     0.0000     2.0000 </r>
       <r>   -14.0933     0.0000     2.0000 </r>
       <r>   -14.0212     0.0000     2.0000 </r>
       <r>   -13.9490     0.0000     2.0000 </r>
       <r>   -13.8768     0.0000     2.0000 </r>
       <r>   -13.8046     0.0000     2.0000 </r>
       <r>   -13.7325     0.0000     2.0000 </r>
       <r>   -13.6603     0.0000     2.0000 </r>
       <r>   -13.5881     0.0000     2.0000 </r>
       <r>   -13.5159     0.0000     2.0000 </r>
       <r>   -13.4438     0.0000     2.0000 </r>
       <r>   -13.3716     0.0000     2.0000 </r>
       <r>   -13.2994     0.0000     2.0000 </r>
       <r>   -13.2272     0.0000     2.0000 </r>
       <r>   -13.1551     0.0000     2.0000 </r>
       <r>   -13.0829     0.0000     2.0000 </r>
       <r>   -13.0107     0.0000     2.0000 </r>
       <r>   -12.9385     0.0000     2.0000 </r>
       <r>   -12.8664     0.0000     2.0000 </r>
       <r>   -12.7942     0.0000     2.0000 </r>
       <r>   -12.7220     0.0000     2.0000 </r>
       <r>   -12.6498     0.0000     2.0000 </r>
       <r>   -12.5777     0.0000     2.0000 </r>
       <r>   -12.5055     0.0000     2.0000 </r>
       <r>   -12.4333     0.0000     2.0000 </r>
       <r>   -12.3612     0.0000     2.0000 </r>
       <r>   -12.2890     0.0000     2.0000 </r>
       <r>   -12.2168     0.0000     2.0000 </r>
       <r>   -12.1446     0.0000     2.0000 </r>
       <r>   -12.0725     0.0000     2.0000 </r>
       <r>   -12.0003     0.0000     2.0000 </r>
       <r>   -11.9281     0.0000     2.0000 </r>
       <r>   -11.8559     0.0000     2.0000 </r>
       <r>   -11.7838     0.0000     2.0000 </r>
       <r>   -11.7116     0.0000     2.0000 </r>
       <r>   -11.6394     0.0000     2.0000 </r>
       <r>   -11.5672     0.0000     2.0000 </r>
       <r>   -11.4951     0.0000     2.0000 </r>
       <r>   -11.4229     0.0000     2.0000 </r>
       <r>   -11.3507     0.0000     2.0000 </r>
       <r>   -11.2785     0.0000     2.0000 </r>
       <r>   -11.2064     0.0000     2.0000 </r>
       <r>   -11.1342    -0.0000     2.0000 </r>
       <r>   -11.0620    -0.0000     2.0000 </r>
       <r>   -10.9898    -0.0000     2.0000 </r>
       <r>   -10.9177    -0.0000     2.0000 </r>
       <r>   -10.8455    -0.0000     2.0000 </r>
       <r>   -10.7733    -0.0000     2.0000 </r>
       <r>   -10.7012    -0.0000     2.0000 </r>
       <r>   -10.6290    -0.0000     2.0000 </r>
       <r>   -10.5568    -0.0000     2.0000 </r>
       <r>   -10.4846    -0.0000     2.0000 </r>
       <r>   -10.4125    -0.0000     2.0000 </r>
       <r>   -10.3403    -0.0000     2.0000 </r>
       <r>   -10.2681    -0.0000     2.0000 </r>
       <r>   -10.1959    -0.0000     2.0000 </r>
       <r>   -10.1238    -0.0005     2.0000 </r>
       <r>   -10.0516    -0.0039     1.9997 </r>
       <r>    -9.9794    -0.0223     1.9981 </r>
       <r>    -9.9072    -0.0924     1.9914 </r>
       <r>    -9.8351    -0.2642     1.9723 </r>
       <r>    -9.7629    -0.4554     1.9395 </r>
       <r>    -9.6907    -0.1690     1.9273 </r>
       <r>    -9.6185     1.4018     2.0284 </r>
       <r>    -9.5464     4.3312     2.3410 </r>
       <r>    -9.4742     7.2251     2.8625 </r>
       <r>    -9.4020     8.8499     3.5012 </r>
       <r>    -9.3299    10.1820     4.2361 </r>
       <r>    -9.2577    12.6501     5.1491 </r>
       <r>    -9.1855    14.8110     6.2181 </r>
       <r>    -9.1133    13.6317     7.2019 </r>
       <r>    -9.0412     8.8375     7.8398 </r>
       <r>    -8.9690     3.4576     8.0893 </r>
       <r>    -8.8968     0.2222     8.1054 </r>
       <r>    -8.8246    -0.6808     8.0562 </r>
       <r>    -8.7525    -0.5027     8.0199 </r>
       <r>    -8.6803    -0.2057     8.0051 </r>
       <r>    -8.6081    -0.0573     8.0010 </r>
       <r>    -8.5359    -0.0115     8.0001 </r>
       <r>    -8.4638    -0.0017     8.0000 </r>
       <r>    -8.3916    -0.0002     8.0000 </r>
       <r>    -8.3194    -0.0000     8.0000 </r>
       <r>    -8.2472    -0.0000     8.0000 </r>
       <r>    -8.1751    -0.0000     8.0000 </r>
       <r>    -8.1029    -0.0000     8.0000 </r>
       <r>    -8.0307    -0.0000     8.0000 </r>
       <r>    -7.9585    -0.0000     8.0000 </r>
       <r>    -7.8864    -0.0000     8.0000 </r>
       <r>    -7.8142     0.0000     8.0000 </r>
       <r>    -7.7420     0.0000     8.0000 </r>
       <r>    -7.6699     0.0000     8.0000 </r>
       <r>    -7.5977     0.0000     8.0000 </r>
       <r>    -7.5255     0.0000     8.0000 </r>
       <r>    -7.4533     0.0000     8.0000 </r>
       <r>    -7.3812     0.0000     8.0000 </r>
       <r>    -7.3090     0.0000     8.0000 </r>
       <r>    -7.2368     0.0000     8.0000 </r>
       <r>    -7.1646     0.0000     8.0000 </r>
       <r>    -7.0925     0.0000     8.0000 </r>
       <r>    -7.0203     0.0000     8.0000 </r>
       <r>    -6.9481     0.0000     8.0000 </r>
       <r>    -6.8759     0.0000     8.0000 </r>
       <r>    -6.8038     0.0000     8.0000 </r>
       <r>    -6.7316     0.0000     8.0000 </r>
       <r>    -6.6594     0.0000     8.0000 </r>
       <r>    -6.5872     0.0000     8.0000 </r>
       <r>    -6.5151     0.0000     8.0000 </r>
       <r>    -6.4429     0.0000     8.0000 </r>
       <r>    -6.3707     0.0000     8.0000 </r>
       <r>    -6.2985     0.0000     8.0000 </r>
       <r>    -6.2264     0.0000     8.0000 </r>
       <r>    -6.1542     0.0000     8.0000 </r>
       <r>    -6.0820     0.0000     8.0000 </r>
       <r>    -6.0099     0.0000     8.0000 </r>
       <r>    -5.9377     0.0000     8.0000 </r>
       <r>    -5.8655     0.0000     8.0000 </r>
       <r>    -5.7933     0.0000     8.0000 </r>
       <r>    -5.7212     0.0000     8.0000 </r>
       <r>    -5.6490     0.0000     8.0000 </r>
       <r>    -5.5768     0.0000     8.0000 </r>
       <r>    -5.5046     0.0000     8.0000 </r>
       <r>    -5.4325     0.0000     8.0000 </r>
       <r>    -5.3603     0.0000     8.0000 </r>
       <r>    -5.2881     0.0000     8.0000 </r>
       <r>    -5.2159     0.0000     8.0000 </r>
       <r>    -5.1438     0.0000     8.0000 </r>
       <r>    -5.0716     0.0000     8.0000 </r>
       <r>    -4.9994     0.0000     8.0000 </r>
       <r>    -4.9272     0.0000     8.0000 </r>
       <r>    -4.8551     0.0000     8.0000 </r>
       <r>    -4.7829     0.0000     8.0000 </r>
       <r>    -4.7107     0.0000     8.0000 </r>
       <r>    -4.6385     0.0000     8.0000 </r>
       <r>    -4.5664     0.0000     8.0000 </r>
       <r>    -4.4942     0.0000     8.0000 </r>
       <r>    -4.4220     0.0000     8.0000 </r>
       <r>    -4.3499     0.0000     8.0000 </r>
       <r>    -4.2777     0.0000     8.0000 </r>
       <r>    -4.2055     0.0000     8.0000 </r>
       <r>    -4.1333     0.0000     8.0000 </r>
       <r>    -4.0612     0.0000     8.0000 </r>
       <r>    -3.9890     0.0000     8.0000 </r>
       <r>    -3.9168     0.0000     8.0000 </r>
       <r>    -3.8446     0.0000     8.0000 </r>
       <r>    -3.7725     0.0000     8.0000 </r>
       <r>    -3.7003     0.0000     8.0000 </r>
       <r>    -3.6281     0.0000     8.0000 </r>
       <r>    -3.5559     0.0000     8.0000 </r>
       <r>    -3.4838     0.0000     8.0000 </r>
       <r>    -3.4116     0.0000     8.0000 </r>
       <r>    -3.3394     0.0000     8.0000 </r>
       <r>    -3.2672     0.0000     8.0000 </r>
       <r>    -3.1951     0.0000     8.0000 </r>
       <r>    -3.1229     0.0000     8.0000 </r>
       <r>    -3.0507     0.0000     8.0000 </r>
       <r>    -2.9785     0.0000     8.0000 </r>
       <r>    -2.9064     0.0000     8.0000 </r>
       <r>    -2.8342     0.0000     8.0000 </r>
       <r>    -2.7620     0.0000     8.0000 </r>
       <r>    -2.6899     0.0000     8.0000 </r>
       <r>    -2.6177     0.0000     8.0000 </r>
       <r>    -2.5455     0.0000     8.0000 </r>
       <r>    -2.4733     0.0000     8.0000 </r>
       <r>    -2.4012     0.0000     8.0000 </r>
       <r>    -2.3290     0.0000     8.0000 </r>
       <r>    -2.2568     0.0000     8.0000 </r>
       <r>    -2.1846     0.0000     8.0000 </r>
       <r>    -2.1125     0.0000     8.0000 </r>
       <r>    -2.0403     0.0000     8.0000 </r>
       <r>    -1.9681    -0.0000     8.0000 </r>
       <r>    -1.8959    -0.0000     8.0000 </r>
       <r>    -1.8238    -0.0000     8.0000 </r>
       <r>    -1.7516    -0.0000     8.0000 </r>
       <r>    -1.6794    -0.0000     8.0000 </r>
       <r>    -1.6072    -0.0000     8.0000 </r>
       <r>    -1.5351    -0.0000     8.0000 </r>
       <r>    -1.4629    -0.0000     8.0000 </r>
       <r>    -1.3907    -0.0000     8.0000 </r>
       <r>    -1.3185    -0.0000     8.0000 </r>
       <r>    -1.2464    -0.0000     8.0000 </r>
       <r>    -1.1742    -0.0000     8.0000 </r>
       <r>    -1.1020    -0.0000     8.0000 </r>
       <r>    -1.0299    -0.0001     8.0000 </r>
       <r>    -0.9577    -0.0007     7.9999 </r>
       <r>    -0.8855    -0.0051     7.9996 </r>
       <r>    -0.8133    -0.0279     7.9976 </r>
       <r>    -0.7412    -0.1096     7.9897 </r>
       <r>    -0.6690    -0.2921     7.9686 </r>
       <r>    -0.5968    -0.4375     7.9370 </r>
       <r>    -0.5246     0.0645     7.9417 </r>
       <r>    -0.4525     2.0718     8.0912 </r>
       <r>    -0.3803     5.4168     8.4821 </r>
       <r>    -0.3081     8.0330     9.0619 </r>
       <r>    -0.2359     7.6933     9.6172 </r>
       <r>    -0.1638     4.7074     9.9569 </r>
       <r>    -0.0916     1.5221    10.0668 </r>
       <r>    -0.0194    -0.1402    10.0567 </r>
       <r>     0.0528    -0.4592    10.0235 </r>
       <r>     0.1249    -0.3623     9.9974 </r>
       <r>     0.1971    -0.4316     9.9662 </r>
       <r>     0.2693    -0.7151     9.9146 </r>
       <r>     0.3415    -0.6445     9.8681 </r>
       <r>     0.4136     1.0702     9.9453 </r>
       <r>     0.4858     5.6970    10.3565 </r>
       <r>     0.5580    12.7737    11.2784 </r>
       <r>     0.6301    19.1772    12.6625 </r>
       <r>     0.7023    20.8484    14.1672 </r>
       <r>     0.7745    16.3842    15.3497 </r>
       <r>     0.8467     8.7199    15.9791 </r>
       <r>     0.9188     2.3906    16.1516 </r>
       <r>     0.9910    -0.4998    16.1156 </r>
       <r>     1.0632    -0.8913    16.0512 </r>
       <r>     1.1354    -0.4908    16.0158 </r>
       <r>     1.2075    -0.1695    16.0036 </r>
       <r>     1.2797    -0.0411    16.0006 </r>
       <r>     1.3519    -0.0073    16.0001 </r>
       <r>     1.4241    -0.0010    16.0000 </r>
       <r>     1.4962    -0.0001    16.0000 </r>
       <r>     1.5684    -0.0000    16.0000 </r>
       <r>     1.6406    -0.0000    16.0000 </r>
       <r>     1.7128    -0.0000    16.0000 </r>
       <r>     1.7849    -0.0000    16.0000 </r>
       <r>     1.8571    -0.0000    16.0000 </r>
       <r>     1.9293    -0.0000    16.0000 </r>
       <r>     2.0014    -0.0000    16.0000 </r>
       <r>     2.0736     0.0000    16.0000 </r>
       <r>     2.1458     0.0000    16.0000 </r>
       <r>     2.2180     0.0000    16.0000 </r>
       <r>     2.2901     0.0000    16.0000 </r>
       <r>     2.3623     0.0000    16.0000 </r>
       <r>     2.4345     0.0000    16.0000 </r>
       <r>     2.5067     0.0000    16.0000 </r>
       <r>     2.5788     0.0000    16.0000 </r>
       <r>     2.6510     0.0000    16.0000 </r>
       <r>     2.7232     0.0000    16.0000 </r>
      </set>
     </set>
    </array>
   </total>
  </dos>
  <time name="totalsc">   85.81   86.02</time>
 </calculation>
 <calculation>
  <scstep>
   <time name="dav">    1.96    1.97</time>
   <time name="total">    3.74    3.75</time>
   <energy>
    <i name="alphaZ">      0.24178557 </i>
    <i name="ewald">    128.26094919 </i>
    <i name="hartreedc">   -284.45216077 </i>
    <i name="XCdc">     24.73166211 </i>
    <i name="pawpsdc">    411.73990248 </i>
    <i name="pawaedc">   -412.52977977 </i>
    <i name="eentropy">      0.01491106 </i>
    <i name="bandstr">    -89.10331379 </i>
    <i name="atom">    197.04175453 </i>
    <i name="e_fr_energy">    -24.05428937 </i>
    <i name="e_wo_entrp">    -24.06920044 </i>
    <i name="e_0_energy">    -24.05925973 </i>
   </energy>
  </scstep>
  <scstep>
   <time name="diag">    0.44    0.44</time>
   <time name="diis">    1.42    1.42</time>
   <time name="orth">    0.01    0.01</time>
   <time name="total">    3.51    3.52</time>
   <energy>
    <i name="e_fr_energy">    -24.17485901 </i>
    <i name="e_wo_entrp">    -24.19514216 </i>
    <i name="e_0_energy">    -24.18162006 </i>
   </energy>
  </scstep>
  <scstep>
   <time name="diag">    0.44    0.44</time>
   <time name="diis">    1.43    1.44</time>
   <time name="orth">    0.01    0.01</time>
   <time name="total">    3.51    3.52</time>
   <energy>
    <i name="e_fr_energy">    -24.06120795 </i>
    <i name="e_wo_entrp">    -24.09099449 </i>
    <i name="e_0_energy">    -24.07113680 </i>
   </energy>
  </scstep>
  <scstep>
   <time name="diag">    0.46    0.46</time>
   <time name="diis">    1.45    1.45</time>
   <time name="orth">    0.01    0.01</time>
   <time name="total">    3.68    3.69</time>
   <energy>
    <i name="e_fr_energy">    -24.05055458 </i>
    <i name="e_wo_entrp">    -24.08151717 </i>
    <i name="e_0_energy">    -24.06087545 </i>
   </energy>
  </scstep>
  <scstep>
   <time name="diag">    0.49    0.49</time>
   <time name="diis">    1.45    1.45</time>
   <time name="orth">    0.01    0.01</time>
   <time name="total">    3.73    3.74</time>
   <energy>
    <i name="e_fr_energy">    -24.04798466 </i>
    <i name="e_wo_entrp">    -24.07879037 </i>
    <i name="e_0_energy">    -24.05825323 </i>
   </energy>
  </scstep>
  <scstep>
   <time name="diag">    0.48    0.48</time>
   <time name="diis">    1.46    1.46</time>
   <time name="orth">    0.01    0.01</time>
   <time name="total">    3.74    3.74</time>
   <energy>
    <i name="e_fr_energy">    -24.04683958 </i>
    <i name="e_wo_entrp">    -24.07743252 </i>
    <i name="e_0_energy">    -24.05703723 </i>
   </energy>
  </scstep>
  <scstep>
   <time name="diag">    0.47    0.47</time>
   <time name="diis">    1.53    1.54</time>
   <time name="orth">    0.01    0.01</time>
   <time name="total">    3.78    3.79</time>
   <energy>
    <i name="e_fr_energy">    -24.04723398 </i>
    <i name="e_wo_entrp">    -24.07801860 </i>
    <i name="e_0_energy">    -24.05749552 </i>
   </energy>
  </scstep>
  <scstep>
   <time name="diag">    0.47    0.47</time>
   <time name="diis">    1.55    1.56</time>
   <time name="orth">    0.01    0.01</time>
   <time name="total">    3.79    3.80</time>
   <energy>
    <i name="e_fr_energy">    -24.04697585 </i>
    <i name="e_wo_entrp">    -24.07788521 </i>
    <i name="e_0_energy">    -24.05727897 </i>
   </energy>
  </scstep>
  <scstep>
   <time name="diag">    0.47    0.47</time>
   <time name="diis">    1.60    1.60</time>
   <time name="orth">    0.01    0.01</time>
   <time name="total">    3.80    3.81</time>
   <energy>
    <i name="e_fr_energy">    -24.04721504 </i>
    <i name="e_wo_entrp">    -24.07817074 </i>
    <i name="e_0_energy">    -24.05753361 </i>
   </energy>
  </scstep>
  <scstep>
   <time name="diag">    0.48    0.48</time>
   <time name="diis">    1.60    1.61</time>
   <time name="orth">    0.01    0.01</time>
   <time name="total">    3.82    3.83</time>
   <energy>
    <i name="e_fr_energy">    -24.04722842 </i>
    <i name="e_wo_entrp">    -24.07807817 </i>
    <i name="e_0_energy">    -24.05751167 </i>
   </energy>
  </scstep>
  <scstep>
   <time name="diag">    0.46    0.47</time>
   <time name="diis">    1.56    1.57</time>
   <time name="orth">    0.01    0.01</time>
   <time name="total">    3.78    3.79</time>
   <energy>
    <i name="e_fr_energy">    -24.04728151 </i>
    <i name="e_wo_entrp">    -24.07810197 </i>
    <i name="e_0_energy">    -24.05755500 </i>
   </energy>
  </scstep>
  <scstep>
   <time name="diag">    0.46    0.46</time>
   <time name="diis">    1.54    1.54</time>
   <time name="orth">    0.01    0.01</time>
   <time name="total">    3.79    3.80</time>
   <energy>
    <i name="e_fr_energy">    -24.04731381 </i>
    <i name="e_wo_entrp">    -24.07816909 </i>
    <i name="e_0_energy">    -24.05759890 </i>
   </energy>
  </scstep>
  <scstep>
   <time name="diag">    0.44    0.44</time>
   <time name="diis">    1.18    1.18</time>
   <time name="orth">    0.01    0.01</time>
   <time name="total">    3.47    3.48</time>
   <energy>
    <i name="e_fr_energy">    -24.04733013 </i>
    <i name="e_wo_entrp">    -24.07819286 </i>
    <i name="e_0_energy">    -24.05761771 </i>
   </energy>
  </scstep>
  <scstep>
   <time name="diag">    0.45    0.45</time>
   <time name="diis">    1.14    1.14</time>
   <time name="orth">    0.01    0.01</time>
   <time name="total">    3.43    3.44</time>
   <energy>
    <i name="e_fr_energy">    -24.04733876 </i>
    <i name="e_wo_entrp">    -24.07818632 </i>
    <i name="e_0_energy">    -24.05762128 </i>
   </energy>
  </scstep>
  <scstep>
   <time name="diag">    0.45    0.45</time>
   <time name="diis">    1.38    1.38</time>
   <time name="orth">    0.01    0.01</time>
   <time name="total">    3.71    3.72</time>
   <energy>
    <i name="e_fr_energy">    -24.04734111 </i>
    <i name="e_wo_entrp">    -24.07819010 </i>
    <i name="e_0_energy">    -24.05762411 </i>
   </energy>
  </scstep>
  <scstep>
   <time name="diag">    0.46    0.47</time>
   <time name="diis">    1.17    1.17</time>
   <time name="orth">    0.01    0.01</time>
   <time name="total">    3.51    3.52</time>
   <energy>
    <i name="e_fr_energy">    -24.04734275 </i>
    <i name="e_wo_entrp">    -24.07819490 </i>
    <i name="e_0_energy">    -24.05762680 </i>
   </energy>
  </scstep>
  <scstep>
   <time name="diag">    0.45    0.45</time>
   <time name="diis">    1.17    1.17</time>
   <time name="orth">    0.01    0.01</time>
   <time name="total">    3.24    3.25</time>
   <energy>
    <i name="alphaZ">      0.24178557 </i>
    <i name="ewald">    128.26094919 </i>
    <i name="hartreedc">   -284.16559888 </i>
    <i name="XCdc">     24.71546393 </i>
    <i name="pawpsdc">    412.41279404 </i>
    <i name="pawaedc">   -413.19950799 </i>
    <i name="eentropy">      0.03085129 </i>
    <i name="bandstr">    -89.38583533 </i>
    <i name="atom">    197.04175453 </i>
    <i name="e_fr_energy">    -24.04734364 </i>
    <i name="e_wo_entrp">    -24.07819493 </i>
    <i name="e_0_energy">    -24.05762740 </i>
   </energy>
  </scstep>
  <structure>
   <crystal>
    <varray name="basis" >
     <v>      10.04510254       0.00000000       0.00000000 </v>
     <v>      -0.03038312       9.70687038       0.00000000 </v>
     <v>      -0.29485783       0.29002875      10.27545865 </v>
    </varray>
    <i name="volume">   1001.92409441 </i>
    <varray name="rec_basis" >
     <v>       0.09955100       0.00031160       0.00284786 </v>
     <v>       0.00000000       0.10301982      -0.00290777 </v>
     <v>       0.00000000      -0.00000000       0.09731926 </v>
    </varray>
   </crystal>
   <varray name="positions" >
    <v>       0.53672651       0.40991774       0.36166696 </v>
    <v>       0.39608192       0.48238718       0.43657753 </v>
    <v>       0.55231639       0.56929155       0.44086237 </v>
    <v>       0.52935663       0.41608615       0.54014101 </v>
    <v>       0.50290248       0.46715295       0.44477352 </v>
   </varray>
  </structure>
  <varray name="forces" >
   <v>       0.33366062       0.39864122       0.08015226 </v>
   <v>      -0.30535755      -0.55615891      -0.26706709 </v>
   <v>       0.22564584      -0.02476503       0.34328310 </v>
   <v>      -0.33358184       0.01102881      -0.62448237 </v>
   <v>      -0.50093666       1.26681645      -0.08902017 </v>
  </varray>
  <varray name="stress" >
   <v>       0.19628763       0.15368645       0.11192359 </v>
   <v>       0.15368644      -2.01601602      -0.08246559 </v>
   <v>       0.11192360      -0.08246559      -1.47369764 </v>
  </varray>
  <energy>
   <i name="e_fr_energy">    -24.04734364 </i>
   <i name="e_wo_entrp">    -24.05762740 </i>
   <i name="e_0_energy">      0.03085129 </i>
   <i name="kinetic">      0.06078854 </i>
   <i name="lattice kinetic">      0.00000000 </i>
   <i name="nosepot">      0.00013820 </i>
   <i name="nosekinetic">      0.00025664 </i>
   <i name="total">    -23.98616027 </i>
  </energy>
  <dos>
   <i name="efermi">     -9.02259049 </i>
   <total>
    <array>
     <dimension dim="1">gridpoints</dimension>
     <dimension dim="2">spin</dimension>
     <field>energy</field>
     <field>total</field>
     <field>integrated</field>
     <set>
      <set comment="spin 1">
       <r>   -18.8809     0.0000     0.0000 </r>
       <r>   -18.8089     0.0000     0.0000 </r>
       <r>   -18.7369     0.0000     0.0000 </r>
       <r>   -18.6649     0.0000     0.0000 </r>
       <r>   -18.5929     0.0000     0.0000 </r>
       <r>   -18.5209    -0.0000    -0.0000 </r>
       <r>   -18.4489    -0.0000    -0.0000 </r>
       <r>   -18.3769    -0.0000    -0.0000 </r>
       <r>   -18.3049    -0.0000    -0.0000 </r>
       <r>   -18.2329    -0.0000    -0.0000 </r>
       <r>   -18.1608    -0.0000    -0.0000 </r>
       <r>   -18.0888    -0.0000    -0.0000 </r>
       <r>   -18.0168    -0.0000    -0.0000 </r>
       <r>   -17.9448    -0.0000    -0.0000 </r>
       <r>   -17.8728    -0.0000    -0.0000 </r>
       <r>   -17.8008    -0.0000    -0.0000 </r>
       <r>   -17.7288    -0.0000    -0.0000 </r>
       <r>   -17.6568    -0.0000    -0.0000 </r>
       <r>   -17.5848    -0.0001    -0.0000 </r>
       <r>   -17.5128    -0.0009    -0.0001 </r>
       <r>   -17.4408    -0.0066    -0.0005 </r>
       <r>   -17.3688    -0.0344    -0.0030 </r>
       <r>   -17.2967    -0.1285    -0.0123 </r>
       <r>   -17.2247    -0.3217    -0.0354 </r>
       <r>   -17.1527    -0.4287    -0.0663 </r>
       <r>   -17.0807     0.2256    -0.0501 </r>
       <r>   -17.0087     2.4515     0.1265 </r>
       <r>   -16.9367     5.8475     0.5475 </r>
       <r>   -16.8647     8.1813     1.1367 </r>
       <r>   -16.7927     7.4356     1.6721 </r>
       <r>   -16.7207     4.2854     1.9807 </r>
       <r>   -16.6487     1.2345     2.0696 </r>
       <r>   -16.5767    -0.2245     2.0534 </r>
       <r>   -16.5047    -0.4218     2.0230 </r>
       <r>   -16.4326    -0.2253     2.0068 </r>
       <r>   -16.3606    -0.0742     2.0015 </r>
       <r>   -16.2886    -0.0170     2.0002 </r>
       <r>   -16.2166    -0.0028     2.0000 </r>
       <r>   -16.1446    -0.0003     2.0000 </r>
       <r>   -16.0726    -0.0000     2.0000 </r>
       <r>   -16.0006    -0.0000     2.0000 </r>
       <r>   -15.9286    -0.0000     2.0000 </r>
       <r>   -15.8566    -0.0000     2.0000 </r>
       <r>   -15.7846    -0.0000     2.0000 </r>
       <r>   -15.7126    -0.0000     2.0000 </r>
       <r>   -15.6406    -0.0000     2.0000 </r>
       <r>   -15.5686     0.0000     2.0000 </r>
       <r>   -15.4965     0.0000     2.0000 </r>
       <r>   -15.4245     0.0000     2.0000 </r>
       <r>   -15.3525     0.0000     2.0000 </r>
       <r>   -15.2805     0.0000     2.0000 </r>
       <r>   -15.2085     0.0000     2.0000 </r>
       <r>   -15.1365     0.0000     2.0000 </r>
       <r>   -15.0645     0.0000     2.0000 </r>
       <r>   -14.9925     0.0000     2.0000 </r>
       <r>   -14.9205     0.0000     2.0000 </r>
       <r>   -14.8485     0.0000     2.0000 </r>
       <r>   -14.7765     0.0000     2.0000 </r>
       <r>   -14.7045     0.0000     2.0000 </r>
       <r>   -14.6324     0.0000     2.0000 </r>
       <r>   -14.5604     0.0000     2.0000 </r>
       <r>   -14.4884     0.0000     2.0000 </r>
       <r>   -14.4164     0.0000     2.0000 </r>
       <r>   -14.3444     0.0000     2.0000 </r>
       <r>   -14.2724     0.0000     2.0000 </r>
       <r>   -14.2004     0.0000     2.0000 </r>
       <r>   -14.1284     0.0000     2.0000 </r>
       <r>   -14.0564     0.0000     2.0000 </r>
       <r>   -13.9844     0.0000     2.0000 </r>
       <r>   -13.9124     0.0000     2.0000 </r>
       <r>   -13.8404     0.0000     2.0000 </r>
       <r>   -13.7683     0.0000     2.0000 </r>
       <r>   -13.6963     0.0000     2.0000 </r>
       <r>   -13.6243     0.0000     2.0000 </r>
       <r>   -13.5523     0.0000     2.0000 </r>
       <r>   -13.4803     0.0000     2.0000 </r>
       <r>   -13.4083     0.0000     2.0000 </r>
       <r>   -13.3363     0.0000     2.0000 </r>
       <r>   -13.2643     0.0000     2.0000 </r>
       <r>   -13.1923     0.0000     2.0000 </r>
       <r>   -13.1203     0.0000     2.0000 </r>
       <r>   -13.0483     0.0000     2.0000 </r>
       <r>   -12.9763     0.0000     2.0000 </r>
       <r>   -12.9042     0.0000     2.0000 </r>
       <r>   -12.8322     0.0000     2.0000 </r>
       <r>   -12.7602     0.0000     2.0000 </r>
       <r>   -12.6882     0.0000     2.0000 </r>
       <r>   -12.6162     0.0000     2.0000 </r>
       <r>   -12.5442     0.0000     2.0000 </r>
       <r>   -12.4722     0.0000     2.0000 </r>
       <r>   -12.4002     0.0000     2.0000 </r>
       <r>   -12.3282     0.0000     2.0000 </r>
       <r>   -12.2562     0.0000     2.0000 </r>
       <r>   -12.1842     0.0000     2.0000 </r>
       <r>   -12.1122     0.0000     2.0000 </r>
       <r>   -12.0402     0.0000     2.0000 </r>
       <r>   -11.9681     0.0000     2.0000 </r>
       <r>   -11.8961     0.0000     2.0000 </r>
       <r>   -11.8241     0.0000     2.0000 </r>
       <r>   -11.7521     0.0000     2.0000 </r>
       <r>   -11.6801     0.0000     2.0000 </r>
       <r>   -11.6081     0.0000     2.0000 </r>
       <r>   -11.5361     0.0000     2.0000 </r>
       <r>   -11.4641     0.0000     2.0000 </r>
       <r>   -11.3921     0.0000     2.0000 </r>
       <r>   -11.3201     0.0000     2.0000 </r>
       <r>   -11.2481     0.0000     2.0000 </r>
       <r>   -11.1761     0.0000     2.0000 </r>
       <r>   -11.1040     0.0000     2.0000 </r>
       <r>   -11.0320    -0.0000     2.0000 </r>
       <r>   -10.9600    -0.0000     2.0000 </r>
       <r>   -10.8880    -0.0000     2.0000 </r>
       <r>   -10.8160    -0.0000     2.0000 </r>
       <r>   -10.7440    -0.0000     2.0000 </r>
       <r>   -10.6720    -0.0000     2.0000 </r>
       <r>   -10.6000    -0.0000     2.0000 </r>
       <r>   -10.5280    -0.0000     2.0000 </r>
       <r>   -10.4560    -0.0000     2.0000 </r>
       <r>   -10.3840    -0.0000     2.0000 </r>
       <r>   -10.3120    -0.0000     2.0000 </r>
       <r>   -10.2399    -0.0000     2.0000 </r>
       <r>   -10.1679    -0.0000     2.0000 </r>
       <r>   -10.0959    -0.0002     2.0000 </r>
       <r>   -10.0239    -0.0016     1.9999 </r>
       <r>    -9.9519    -0.0103     1.9991 </r>
       <r>    -9.8799    -0.0499     1.9955 </r>
       <r>    -9.8079    -0.1734     1.9831 </r>
       <r>    -9.7359    -0.4037     1.9540 </r>
       <r>    -9.6639    -0.5042     1.9177 </r>
       <r>    -9.5919     0.2276     1.9341 </r>
       <r>    -9.5199     2.5239     2.1158 </r>
       <r>    -9.4479     6.1988     2.5622 </r>
       <r>    -9.3758    10.2338     3.2991 </r>
       <r>    -9.3038    13.9262     4.3019 </r>
       <r>    -9.2318    16.5932     5.4967 </r>
       <r>    -9.1598    16.4701     6.6827 </r>
       <r>    -9.0878    12.3895     7.5749 </r>
       <r>    -9.0158     6.2461     8.0246 </r>
       <r>    -8.9438     1.4431     8.1286 </r>
       <r>    -8.8718    -0.5645     8.0879 </r>
       <r>    -8.7998    -0.7120     8.0366 </r>
       <r>    -8.7278    -0.3597     8.0107 </r>
       <r>    -8.6558    -0.1170     8.0023 </r>
       <r>    -8.5838    -0.0270     8.0004 </r>
       <r>    -8.5118    -0.0046     8.0000 </r>
       <r>    -8.4397    -0.0006     8.0000 </r>
       <r>    -8.3677    -0.0001     8.0000 </r>
       <r>    -8.2957    -0.0000     8.0000 </r>
       <r>    -8.2237    -0.0000     8.0000 </r>
       <r>    -8.1517    -0.0000     8.0000 </r>
       <r>    -8.0797    -0.0000     8.0000 </r>
       <r>    -8.0077    -0.0000     8.0000 </r>
       <r>    -7.9357    -0.0000     8.0000 </r>
       <r>    -7.8637     0.0000     8.0000 </r>
       <r>    -7.7917     0.0000     8.0000 </r>
       <r>    -7.7197     0.0000     8.0000 </r>
       <r>    -7.6477     0.0000     8.0000 </r>
       <r>    -7.5756     0.0000     8.0000 </r>
       <r>    -7.5036     0.0000     8.0000 </r>
       <r>    -7.4316     0.0000     8.0000 </r>
       <r>    -7.3596     0.0000     8.0000 </r>
       <r>    -7.2876     0.0000     8.0000 </r>
       <r>    -7.2156     0.0000     8.0000 </r>
       <r>    -7.1436     0.0000     8.0000 </r>
       <r>    -7.0716     0.0000     8.0000 </r>
       <r>    -6.9996     0.0000     8.0000 </r>
       <r>    -6.9276     0.0000     8.0000 </r>
       <r>    -6.8556     0.0000     8.0000 </r>
       <r>    -6.7836     0.0000     8.0000 </r>
       <r>    -6.7115     0.0000     8.0000 </r>
       <r>    -6.6395     0.0000     8.0000 </r>
       <r>    -6.5675     0.0000     8.0000 </r>
       <r>    -6.4955     0.0000     8.0000 </r>
       <r>    -6.4235     0.0000     8.0000 </r>
       <r>    -6.3515     0.0000     8.0000 </r>
       <r>    -6.2795     0.0000     8.0000 </r>
       <r>    -6.2075     0.0000     8.0000 </r>
       <r>    -6.1355     0.0000     8.0000 </r>
       <r>    -6.0635     0.0000     8.0000 </r>
       <r>    -5.9915     0.0000     8.0000 </r>
       <r>    -5.9195     0.0000     8.0000 </r>
       <r>    -5.8474     0.0000     8.0000 </r>
       <r>    -5.7754     0.0000     8.0000 </r>
       <r>    -5.7034     0.0000     8.0000 </r>
       <r>    -5.6314     0.0000     8.0000 </r>
       <r>    -5.5594     0.0000     8.0000 </r>
       <r>    -5.4874     0.0000     8.0000 </r>
       <r>    -5.4154     0.0000     8.0000 </r>
       <r>    -5.3434     0.0000     8.0000 </r>
       <r>    -5.2714     0.0000     8.0000 </r>
       <r>    -5.1994     0.0000     8.0000 </r>
       <r>    -5.1274     0.0000     8.0000 </r>
       <r>    -5.0554     0.0000     8.0000 </r>
       <r>    -4.9834     0.0000     8.0000 </r>
       <r>    -4.9113     0.0000     8.0000 </r>
       <r>    -4.8393     0.0000     8.0000 </r>
       <r>    -4.7673     0.0000     8.0000 </r>
       <r>    -4.6953     0.0000     8.0000 </r>
       <r>    -4.6233     0.0000     8.0000 </r>
       <r>    -4.5513     0.0000     8.0000 </r>
       <r>    -4.4793     0.0000     8.0000 </r>
       <r>    -4.4073     0.0000     8.0000 </r>
       <r>    -4.3353     0.0000     8.0000 </r>
       <r>    -4.2633     0.0000     8.0000 </r>
       <r>    -4.1913     0.0000     8.0000 </r>
       <r>    -4.1193     0.0000     8.0000 </r>
       <r>    -4.0472     0.0000     8.0000 </r>
       <r>    -3.9752     0.0000     8.0000 </r>
       <r>    -3.9032     0.0000     8.0000 </r>
       <r>    -3.8312     0.0000     8.0000 </r>
       <r>    -3.7592     0.0000     8.0000 </r>
       <r>    -3.6872     0.0000     8.0000 </r>
       <r>    -3.6152     0.0000     8.0000 </r>
       <r>    -3.5432     0.0000     8.0000 </r>
       <r>    -3.4712     0.0000     8.0000 </r>
       <r>    -3.3992     0.0000     8.0000 </r>
       <r>    -3.3272     0.0000     8.0000 </r>
       <r>    -3.2552     0.0000     8.0000 </r>
       <r>    -3.1831     0.0000     8.0000 </r>
       <r>    -3.1111     0.0000     8.0000 </r>
       <r>    -3.0391     0.0000     8.0000 </r>
       <r>    -2.9671     0.0000     8.0000 </r>
       <r>    -2.8951     0.0000     8.0000 </r>
       <r>    -2.8231     0.0000     8.0000 </r>
       <r>    -2.7511     0.0000     8.0000 </r>
       <r>    -2.6791     0.0000     8.0000 </r>
       <r>    -2.6071     0.0000     8.0000 </r>
       <r>    -2.5351     0.0000     8.0000 </r>
       <r>    -2.4631     0.0000     8.0000 </r>
       <r>    -2.3911     0.0000     8.0000 </r>
       <r>    -2.3190     0.0000     8.0000 </r>
       <r>    -2.2470     0.0000     8.0000 </r>
       <r>    -2.1750     0.0000     8.0000 </r>
       <r>    -2.1030     0.0000     8.0000 </r>
       <r>    -2.0310     0.0000     8.0000 </r>
       <r>    -1.9590    -0.0000     8.0000 </r>
       <r>    -1.8870    -0.0000     8.0000 </r>
       <r>    -1.8150    -0.0000     8.0000 </r>
       <r>    -1.7430    -0.0000     8.0000 </r>
       <r>    -1.6710    -0.0000     8.0000 </r>
       <r>    -1.5990    -0.0000     8.0000 </r>
       <r>    -1.5270    -0.0000     8.0000 </r>
       <r>    -1.4550    -0.0000     8.0000 </r>
       <r>    -1.3829    -0.0000     8.0000 </r>
       <r>    -1.3109    -0.0000     8.0000 </r>
       <r>    -1.2389    -0.0000     8.0000 </r>
       <r>    -1.1669    -0.0000     8.0000 </r>
       <r>    -1.0949    -0.0000     8.0000 </r>
       <r>    -1.0229    -0.0001     8.0000 </r>
       <r>    -0.9509    -0.0009     7.9999 </r>
       <r>    -0.8789    -0.0067     7.9994 </r>
       <r>    -0.8069    -0.0347     7.9969 </r>
       <r>    -0.7349    -0.1292     7.9876 </r>
       <r>    -0.6629    -0.3224     7.9644 </r>
       <r>    -0.5909    -0.4272     7.9337 </r>
       <r>    -0.5188     0.2331     7.9505 </r>
       <r>    -0.4468     2.4648     8.1279 </r>
       <r>    -0.3748     5.8582     8.5498 </r>
       <r>    -0.3028     8.1799     9.1388 </r>
       <r>    -0.2308     7.4233     9.6733 </r>
       <r>    -0.1588     4.2727     9.9810 </r>
       <r>    -0.0868     1.2278    10.0694 </r>
       <r>    -0.0148    -0.2301    10.0528 </r>
       <r>     0.0572    -0.4492    10.0205 </r>
       <r>     0.1292    -0.3433     9.9958 </r>
       <r>     0.2012    -0.4297     9.9648 </r>
       <r>     0.2732    -0.7217     9.9129 </r>
       <r>     0.3453    -0.6367     9.8670 </r>
       <r>     0.4173     1.1239     9.9480 </r>
       <r>     0.4893     5.8272    10.3676 </r>
       <r>     0.5613    12.9837    11.3025 </r>
       <r>     0.6333    19.3971    12.6992 </r>
       <r>     0.7053    20.9454    14.2075 </r>
       <r>     0.7773    16.2900    15.3805 </r>
       <r>     0.8493     8.5225    15.9942 </r>
       <r>     0.9213     2.2334    16.1550 </r>
       <r>     0.9933    -0.5630    16.1145 </r>
       <r>     1.0653    -0.8963    16.0499 </r>
       <r>     1.1373    -0.4821    16.0152 </r>
       <r>     1.2093    -0.1640    16.0034 </r>
       <r>     1.2814    -0.0393    16.0006 </r>
       <r>     1.3534    -0.0069    16.0001 </r>
       <r>     1.4254    -0.0009    16.0000 </r>
       <r>     1.4974    -0.0001    16.0000 </r>
       <r>     1.5694    -0.0000    16.0000 </r>
       <r>     1.6414    -0.0000    16.0000 </r>
       <r>     1.7134    -0.0000    16.0000 </r>
       <r>     1.7854    -0.0000    16.0000 </r>
       <r>     1.8574    -0.0000    16.0000 </r>
       <r>     1.9294    -0.0000    16.0000 </r>
       <r>     2.0014    -0.0000    16.0000 </r>
       <r>     2.0734     0.0000    16.0000 </r>
       <r>     2.1455     0.0000    16.0000 </r>
       <r>     2.2175     0.0000    16.0000 </r>
       <r>     2.2895     0.0000    16.0000 </r>
       <r>     2.3615     0.0000    16.0000 </r>
       <r>     2.4335     0.0000    16.0000 </r>
       <r>     2.5055     0.0000    16.0000 </r>
       <r>     2.5775     0.0000    16.0000 </r>
       <r>     2.6495     0.0000    16.0000 </r>
       <r>     2.7215     0.0000    16.0000 </r>
      </set>
     </set>
    </array>
   </total>
  </dos>
  <time name="totalsc">   69.52   69.69</time>
 </calculation>
 <calculation>
  <scstep>
   <time name="dav">    1.98    1.98</time>
   <time name="total">    3.77    3.78</time>
   <energy>
    <i name="alphaZ">      0.24178557 </i>
    <i name="ewald">    128.39394678 </i>
    <i name="hartreedc">   -283.96798203 </i>
    <i name="XCdc">     24.70872713 </i>
    <i name="pawpsdc">    413.35212729 </i>
    <i name="pawaedc">   -414.13662329 </i>
    <i name="eentropy">      0.01992387 </i>
    <i name="bandstr">    -89.66700259 </i>
    <i name="atom">    197.04175453 </i>
    <i name="e_fr_energy">    -24.01334274 </i>
    <i name="e_wo_entrp">    -24.03326660 </i>
    <i name="e_0_energy">    -24.01998403 </i>
   </energy>
  </scstep>
  <scstep>
   <time name="diag">    0.45    0.45</time>
   <time name="diis">    1.44    1.44</time>
   <time name="orth">    0.01    0.01</time>
   <time name="total">    3.70    3.71</time>
   <energy>
    <i name="e_fr_energy">    -24.02181574 </i>
    <i name="e_wo_entrp">    -24.03418146 </i>
    <i name="e_0_energy">    -24.02593764 </i>
   </energy>
  </scstep>
  <scstep>
   <time name="diag">    0.47    0.47</time>
   <time name="diis">    1.45    1.45</time>
   <time name="orth">    0.01    0.01</time>
   <time name="total">    3.73    3.73</time>
   <energy>
    <i name="e_fr_energy">    -24.01526307 </i>
    <i name="e_wo_entrp">    -24.02691743 </i>
    <i name="e_0_energy">    -24.01914786 </i>
   </energy>
  </scstep>
  <scstep>
   <time name="diag">    0.47    0.47</time>
   <time name="diis">    1.40    1.40</time>
   <time name="orth">    0.01    0.01</time>
   <time name="total">    3.67    3.68</time>
   <energy>
    <i name="e_fr_energy">    -24.00278779 </i>
    <i name="e_wo_entrp">    -24.01447363 </i>
    <i name="e_0_energy">    -24.00668307 </i>
   </energy>
  </scstep>
  <scstep>
   <time name="diag">    0.46    0.46</time>
   <time name="diis">    1.43    1.44</time>
   <time name="orth">    0.01    0.01</time>
   <time name="total">    3.71    3.71</time>
   <energy>
    <i name="e_fr_energy">    -24.00229862 </i>
    <i name="e_wo_entrp">    -24.01401248 </i>
    <i name="e_0_energy">    -24.00620324 </i>
   </energy>
  </scstep>
  <scstep>
   <time name="diag">    0.45    0.45</time>
   <time name="diis">    1.46    1.46</time>
   <time name="orth">    0.01    0.01</time>
   <time name="total">    3.75    3.76</time>
   <energy>
    <i name="e_fr_energy">    -24.00041797 </i>
    <i name="e_wo_entrp">    -24.01211492 </i>
    <i name="e_0_energy">    -24.00431696 </i>
   </energy>
  </scstep>
  <scstep>
   <time name="diag">    0.46    0.46</time>
   <time name="diis">    1.52    1.52</time>
   <time name="orth">    0.01    0.01</time>
   <time name="total">    3.83    3.84</time>
   <energy>
    <i name="e_fr_energy">    -24.00031117 </i>
    <i name="e_wo_entrp">    -24.01199204 </i>
    <i name="e_0_energy">    -24.00420479 </i>
   </energy>
  </scstep>
  <scstep>
   <time name="diag">    0.46    0.46</time>
   <time name="diis">    1.50    1.51</time>
   <time name="orth">    0.01    0.01</time>
   <time name="total">    3.80    3.80</time>
   <energy>
    <i name="e_fr_energy">    -24.00028133 </i>
    <i name="e_wo_entrp">    -24.01193838 </i>
    <i name="e_0_energy">    -24.00416701 </i>
   </energy>
  </scstep>
  <scstep>
   <time name="diag">    0.47    0.47</time>
   <time name="diis">    1.49    1.49</time>
   <time name="orth">    0.01    0.01</time>
   <time name="total">    3.81    3.82</time>
   <energy>
    <i name="e_fr_energy">    -24.00029854 </i>
    <i name="e_wo_entrp">    -24.01194466 </i>
    <i name="e_0_energy">    -24.00418058 </i>
   </energy>
  </scstep>
  <scstep>
   <time name="diag">    0.47    0.47</time>
   <time name="diis">    1.44    1.45</time>
   <time name="orth">    0.01    0.01</time>
   <time name="total">    3.78    3.79</time>
   <energy>
    <i name="e_fr_energy">    -24.00031553 </i>
    <i name="e_wo_entrp">    -24.01195547 </i>
    <i name="e_0_energy">    -24.00419551 </i>
   </energy>
  </scstep>
  <scstep>
   <time name="diag">    0.47    0.47</time>
   <time name="diis">    1.47    1.47</time>
   <time name="orth">    0.01    0.01</time>
   <time name="total">    3.83    3.84</time>
   <energy>
    <i name="e_fr_energy">    -24.00032130 </i>
    <i name="e_wo_entrp">    -24.01195827 </i>
    <i name="e_0_energy">    -24.00420029 </i>
   </energy>
  </scstep>
  <scstep>
   <time name="diag">    0.47    0.47</time>
   <time name="diis">    1.46    1.46</time>
   <time name="orth">    0.01    0.01</time>
   <time name="total">    3.87    3.88</time>
   <energy>
    <i name="e_fr_energy">    -24.00032852 </i>
    <i name="e_wo_entrp">    -24.01196565 </i>
    <i name="e_0_energy">    -24.00420756 </i>
   </energy>
  </scstep>
  <scstep>
   <time name="diag">    0.45    0.46</time>
   <time name="diis">    1.17    1.18</time>
   <time name="orth">    0.01    0.01</time>
   <time name="total">    3.56    3.57</time>
   <energy>
    <i name="e_fr_energy">    -24.00032996 </i>
    <i name="e_wo_entrp">    -24.01196751 </i>
    <i name="e_0_energy">    -24.00420914 </i>
   </energy>
  </scstep>
  <scstep>
   <time name="diag">    0.44    0.44</time>
   <time name="diis">    1.33    1.33</time>
   <time name="orth">    0.01    0.01</time>
   <time name="total">    3.74    3.75</time>
   <energy>
    <i name="e_fr_energy">    -24.00033165 </i>
    <i name="e_wo_entrp">    -24.01196999 </i>
    <i name="e_0_energy">    -24.00421110 </i>
   </energy>
  </scstep>
  <scstep>
   <time name="diag">    0.45    0.45</time>
   <time name="diis">    1.17    1.17</time>
   <time name="orth">    0.01    0.01</time>
   <time name="total">    3.27    3.28</time>
   <energy>
    <i name="alphaZ">      0.24178557 </i>
    <i name="ewald">    128.39394678 </i>
    <i name="hartreedc">   -284.17447680 </i>
    <i name="XCdc">     24.71777007 </i>
    <i name="pawpsdc">    420.92938958 </i>
    <i name="pawaedc">   -421.71832939 </i>
    <i name="eentropy">      0.01163860 </i>
    <i name="bandstr">    -89.44381120 </i>
    <i name="atom">    197.04175453 </i>
    <i name="e_fr_energy">    -24.00033227 </i>
    <i name="e_wo_entrp">    -24.01197087 </i>
    <i name="e_0_energy">    -24.00421180 </i>
   </energy>
  </scstep>
  <structure>
   <crystal>
    <varray name="basis" >
     <v>      10.04510254       0.00000000       0.00000000 </v>
     <v>      -0.03038312       9.70687038       0.00000000 </v>
     <v>      -0.29485783       0.29002875      10.27545865 </v>
    </varray>
    <i name="volume">   1001.92409441 </i>
    <varray name="rec_basis" >
     <v>       0.09955100       0.00031160       0.00284786 </v>
     <v>       0.00000000       0.10301982      -0.00290777 </v>
     <v>       0.00000000      -0.00000000       0.09731926 </v>
    </varray>
   </crystal>
   <varray name="positions" >
    <v>       0.53701507       0.41391086       0.36282988 </v>
    <v>       0.39667617       0.48190249       0.43370422 </v>
    <v>       0.55418820       0.57335292       0.44056930 </v>
    <v>       0.52926244       0.41566805       0.53889846 </v>
    <v>       0.50268098       0.46655752       0.44504377 </v>
   </varray>
  </structure>
  <varray name="forces" >
   <v>       0.71563840      -0.41973720      -1.00972421 </v>
   <v>      -0.08120562      -0.33398560       0.02992789 </v>
   <v>      -0.45450675      -1.75519543       0.11776191 </v>
   <v>      -0.41721355      -0.15182099      -0.16115584 </v>
   <v>       0.78991382       3.26662256      -0.30522924 </v>
  </varray>
  <varray name="stress" >
   <v>      -0.30271600      -1.45110383      -0.14035810 </v>
   <v>      -1.45110383      -2.21870015       0.78532768 </v>
   <v>      -0.14035810       0.78532768       0.08415307 </v>
  </varray>
  <energy>
   <i name="e_fr_energy">    -24.00033227 </i>
   <i name="e_wo_entrp">    -24.00421180 </i>
   <i name="e_0_energy">      0.01163860 </i>
   <i name="kinetic">      0.03578596 </i>
   <i name="lattice kinetic">      0.00000000 </i>
   <i name="nosepot">      0.00113490 </i>
   <i name="nosekinetic">      0.00098656 </i>
   <i name="total">    -23.96242484 </i>
  </energy>
  <dos>
   <i name="efermi">     -8.74111741 </i>
   <total>
    <array>
     <dimension dim="1">gridpoints</dimension>
     <dimension dim="2">spin</dimension>
     <field>energy</field>
     <field>total</field>
     <field>integrated</field>
     <set>
      <set comment="spin 1">
       <r>   -18.8959     0.0000     0.0000 </r>
       <r>   -18.8238     0.0000     0.0000 </r>
       <r>   -18.7518     0.0000     0.0000 </r>
       <r>   -18.6797     0.0000     0.0000 </r>
       <r>   -18.6077     0.0000     0.0000 </r>
       <r>   -18.5356    -0.0000    -0.0000 </r>
       <r>   -18.4635    -0.0000    -0.0000 </r>
       <r>   -18.3915    -0.0000    -0.0000 </r>
       <r>   -18.3194    -0.0000    -0.0000 </r>
       <r>   -18.2474    -0.0000    -0.0000 </r>
       <r>   -18.1753    -0.0000    -0.0000 </r>
       <r>   -18.1032    -0.0000    -0.0000 </r>
       <r>   -18.0312    -0.0000    -0.0000 </r>
       <r>   -17.9591    -0.0000    -0.0000 </r>
       <r>   -17.8871    -0.0000    -0.0000 </r>
       <r>   -17.8150    -0.0000    -0.0000 </r>
       <r>   -17.7429    -0.0000    -0.0000 </r>
       <r>   -17.6709    -0.0000    -0.0000 </r>
       <r>   -17.5988    -0.0001    -0.0000 </r>
       <r>   -17.5268    -0.0010    -0.0001 </r>
       <r>   -17.4547    -0.0068    -0.0006 </r>
       <r>   -17.3827    -0.0351    -0.0031 </r>
       <r>   -17.3106    -0.1307    -0.0125 </r>
       <r>   -17.2385    -0.3251    -0.0359 </r>
       <r>   -17.1665    -0.4266    -0.0667 </r>
       <r>   -17.0944     0.2494    -0.0487 </r>
       <r>   -17.0224     2.5068     0.1319 </r>
       <r>   -16.9503     5.9095     0.5578 </r>
       <r>   -16.8782     8.1989     1.1486 </r>
       <r>   -16.8062     7.3885     1.6810 </r>
       <r>   -16.7341     4.2123     1.9845 </r>
       <r>   -16.6621     1.1849     2.0699 </r>
       <r>   -16.5900    -0.2391     2.0527 </r>
       <r>   -16.5179    -0.4190     2.0225 </r>
       <r>   -16.4459    -0.2205     2.0066 </r>
       <r>   -16.3738    -0.0719     2.0014 </r>
       <r>   -16.3018    -0.0163     2.0002 </r>
       <r>   -16.2297    -0.0027     2.0000 </r>
       <r>   -16.1576    -0.0003     2.0000 </r>
       <r>   -16.0856    -0.0000     2.0000 </r>
       <r>   -16.0135    -0.0000     2.0000 </r>
       <r>   -15.9415    -0.0000     2.0000 </r>
       <r>   -15.8694    -0.0000     2.0000 </r>
       <r>   -15.7974    -0.0000     2.0000 </r>
       <r>   -15.7253    -0.0000     2.0000 </r>
       <r>   -15.6532    -0.0000     2.0000 </r>
       <r>   -15.5812     0.0000     2.0000 </r>
       <r>   -15.5091     0.0000     2.0000 </r>
       <r>   -15.4371     0.0000     2.0000 </r>
       <r>   -15.3650     0.0000     2.0000 </r>
       <r>   -15.2929     0.0000     2.0000 </r>
       <r>   -15.2209     0.0000     2.0000 </r>
       <r>   -15.1488     0.0000     2.0000 </r>
       <r>   -15.0768     0.0000     2.0000 </r>
       <r>   -15.0047     0.0000     2.0000 </r>
       <r>   -14.9326     0.0000     2.0000 </r>
       <r>   -14.8606     0.0000     2.0000 </r>
       <r>   -14.7885     0.0000     2.0000 </r>
       <r>   -14.7165     0.0000     2.0000 </r>
       <r>   -14.6444     0.0000     2.0000 </r>
       <r>   -14.5723     0.0000     2.0000 </r>
       <r>   -14.5003     0.0000     2.0000 </r>
       <r>   -14.4282     0.0000     2.0000 </r>
       <r>   -14.3562     0.0000     2.0000 </r>
       <r>   -14.2841     0.0000     2.0000 </r>
       <r>   -14.2121     0.0000     2.0000 </r>
       <r>   -14.1400     0.0000     2.0000 </r>
       <r>   -14.0679     0.0000     2.0000 </r>
[...]
       <r>     0.2734    -0.7384     9.9092 </r>
       <r>     0.3454    -0.6009     9.8659 </r>
       <r>     0.4175     1.3114     9.9604 </r>
       <r>     0.4895     6.2229    10.4087 </r>
       <r>     0.5616    13.4718    11.3794 </r>
       <r>     0.6336    19.6875    12.7979 </r>
       <r>     0.7057    20.8063    14.2970 </r>
       <r>     0.7777    15.8049    15.4357 </r>
       <r>     0.8498     8.0205    16.0136 </r>
       <r>     0.9218     1.9561    16.1546 </r>
       <r>     0.9939    -0.6254    16.1095 </r>
       <r>     1.0659    -0.8711    16.0467 </r>
       <r>     1.1380    -0.4541    16.0140 </r>
       <r>     1.2100    -0.1515    16.0031 </r>
       <r>     1.2821    -0.0358    16.0005 </r>
       <r>     1.3541    -0.0062    16.0001 </r>
       <r>     1.4262    -0.0008    16.0000 </r>
       <r>     1.4982    -0.0001    16.0000 </r>
       <r>     1.5703    -0.0000    16.0000 </r>
       <r>     1.6423    -0.0000    16.0000 </r>
       <r>     1.7144    -0.0000    16.0000 </r>
       <r>     1.7864    -0.0000    16.0000 </r>
       <r>     1.8585    -0.0000    16.0000 </r>
       <r>     1.9305    -0.0000    16.0000 </r>
       <r>     2.0026    -0.0000    16.0000 </r>
       <r>     2.0746     0.0000    16.0000 </r>
       <r>     2.1467     0.0000    16.0000 </r>
       <r>     2.2187     0.0000    16.0000 </r>
       <r>     2.2908     0.0000    16.0000 </r>
       <r>     2.3628     0.0000    16.0000 </r>
       <r>     2.4349     0.0000    16.0000 </r>
       <r>     2.5069     0.0000    16.0000 </r>
       <r>     2.5790     0.0000    16.0000 </r>
       <r>     2.6510     0.0000    16.0000 </r>
       <r>     2.7231     0.0000    16.0000 </r>
      </set>
     </set>
    </array>
   </total>
  </dos>
  <time name="totalsc">   76.35   77.49</time>
  <eigenvalues>
   <array>
    <dimension dim="1">band</dimension>
    <dimension dim="2">kpoint</dimension>
    <dimension dim="3">spin</dimension>
    <field>eigene</field>
    <field>occ</field>
    <set>
     <set comment="spin 1">
      <set comment="kpoint 1">
       <r>  -17.1012    1.0000 </r>
       <r>   -9.5890    1.0021 </r>
       <r>   -9.3839    1.0339 </r>
       <r>   -9.2595    0.9641 </r>
       <r>   -0.3069    0.0000 </r>
       <r>    0.5680    0.0000 </r>
       <r>    0.6696    0.0000 </r>
       <r>    0.7265    0.0000 </r>
      </set>
      <set comment="kpoint 2">
       <r>  -17.1011    1.0000 </r>
       <r>   -9.5889    1.0021 </r>
       <r>   -9.3838    1.0339 </r>
       <r>   -9.2595    0.9640 </r>
       <r>   -0.3120    0.0000 </r>
       <r>    0.5798    0.0000 </r>
       <r>    0.6825    0.0000 </r>
       <r>    0.7353    0.0000 </r>
      </set>
      <set comment="kpoint 3">
       <r>  -17.1011    1.0000 </r>
       <r>   -9.5890    1.0021 </r>
       <r>   -9.3838    1.0339 </r>
       <r>   -9.2594    0.9639 </r>
       <r>   -0.3007    0.0000 </r>
       <r>    0.5422    0.0000 </r>
       <r>    0.6638    0.0000 </r>
       <r>    0.7138    0.0000 </r>
      </set>
      <set comment="kpoint 4">
       <r>  -17.1012    1.0000 </r>
       <r>   -9.5890    1.0021 </r>
       <r>   -9.3839    1.0339 </r>
       <r>   -9.2594    0.9640 </r>
       <r>   -0.3063    0.0000 </r>
       <r>    0.5728    0.0000 </r>
       <r>    0.6847    0.0000 </r>
       <r>    0.7022    0.0000 </r>
      </set>
     </set>
    </set>
   </array>
  </eigenvalues>
  <separator name="orbital magnetization" >
   <v name="MAGDIPOLOUT">      0.00000000      0.00000000      0.00000000</v>
  </separator>
  <dos>
   <i name="efermi">     -9.11702175 </i>
   <total>
    <array>
     <dimension dim="1">gridpoints</dimension>
     <dimension dim="2">spin</dimension>
     <field>energy</field>
     <field>total</field>
     <field>integrated</field>
     <set>
      <set comment="spin 1">
       <r>   -19.1012     0.0000     0.0000 </r>
       <r>   -19.0284     0.0000     0.0000 </r>
       <r>   -18.9556     0.0000     0.0000 </r>
       <r>   -18.8828     0.0000     0.0000 </r>
       <r>   -18.8100     0.0000     0.0000 </r>
       <r>   -18.7372    -0.0000    -0.0000 </r>
       <r>   -18.6644    -0.0000    -0.0000 </r>
       <r>   -18.5917    -0.0000    -0.0000 </r>
       <r>   -18.5189    -0.0000    -0.0000 </r>
       <r>   -18.4461    -0.0000    -0.0000 </r>
       <r>   -18.3733    -0.0000    -0.0000 </r>
       <r>   -18.3005    -0.0000    -0.0000 </r>
       <r>   -18.2277    -0.0000    -0.0000 </r>
       <r>   -18.1549    -0.0000    -0.0000 </r>
       <r>   -18.0821    -0.0000    -0.0000 </r>
       <r>   -18.0093    -0.0000    -0.0000 </r>
       <r>   -17.9366    -0.0000    -0.0000 </r>
       <r>   -17.8638    -0.0000    -0.0000 </r>
       <r>   -17.7910    -0.0002    -0.0000 </r>
       <r>   -17.7182    -0.0014    -0.0001 </r>
       <r>   -17.6454    -0.0096    -0.0008 </r>
       <r>   -17.5726    -0.0476    -0.0043 </r>
       <r>   -17.4998    -0.1656    -0.0163 </r>
       <r>   -17.4270    -0.3721    -0.0434 </r>
       <r>   -17.3543    -0.3711    -0.0704 </r>
       <r>   -17.2815     0.6469    -0.0233 </r>
       <r>   -17.2087     3.3412     0.2199 </r>
       <r>   -17.1359     6.7455     0.7108 </r>
       <r>   -17.0631     8.3084     1.3156 </r>
       <r>   -16.9903     6.6106     1.7968 </r>
       <r>   -16.9175     3.1879     2.0288 </r>
       <r>   -16.8447     0.5655     2.0700 </r>
       <r>   -16.7719    -0.3856     2.0419 </r>
       <r>   -16.6992    -0.3631     2.0155 </r>
       <r>   -16.6264    -0.1578     2.0040 </r>
       <r>   -16.5536    -0.0446     2.0008 </r>
       <r>   -16.4808    -0.0089     2.0001 </r>
       <r>   -16.4080    -0.0013     2.0000 </r>
       <r>   -16.3352    -0.0001     2.0000 </r>
       <r>   -16.2624    -0.0000     2.0000 </r>
       <r>   -16.1896    -0.0000     2.0000 </r>
       <r>   -16.1169    -0.0000     2.0000 </r>
       <r>   -16.0441    -0.0000     2.0000 </r>
       <r>   -15.9713    -0.0000     2.0000 </r>
       <r>   -15.8985    -0.0000     2.0000 </r>
       <r>   -15.8257    -0.0000     2.0000 </r>
       <r>   -15.7529     0.0000     2.0000 </r>
       <r>   -15.6801     0.0000     2.0000 </r>
       <r>   -15.6073     0.0000     2.0000 </r>
       <r>   -15.5345     0.0000     2.0000 </r>
       <r>   -15.4618     0.0000     2.0000 </r>
       <r>   -15.3890     0.0000     2.0000 </r>
       <r>   -15.3162     0.0000     2.0000 </r>
       <r>   -15.2434     0.0000     2.0000 </r>
       <r>   -15.1706     0.0000     2.0000 </r>
       <r>   -15.0978     0.0000     2.0000 </r>
       <r>   -15.0250     0.0000     2.0000 </r>
       <r>   -14.9522     0.0000     2.0000 </r>
       <r>   -14.8795     0.0000     2.0000 </r>
       <r>   -14.8067     0.0000     2.0000 </r>
       <r>   -14.7339     0.0000     2.0000 </r>
       <r>   -14.6611     0.0000     2.0000 </r>
       <r>   -14.5883     0.0000     2.0000 </r>
       <r>   -14.5155     0.0000     2.0000 </r>
       <r>   -14.4427     0.0000     2.0000 </r>
       <r>   -14.3699     0.0000     2.0000 </r>
       <r>   -14.2971     0.0000     2.0000 </r>
       <r>   -14.2244     0.0000     2.0000 </r>
       <r>   -14.1516     0.0000     2.0000 </r>
       <r>   -14.0788     0.0000     2.0000 </r>
       <r>   -14.0060     0.0000     2.0000 </r>
       <r>   -13.9332     0.0000     2.0000 </r>
       <r>   -13.8604     0.0000     2.0000 </r>
       <r>   -13.7876     0.0000     2.0000 </r>
       <r>   -13.7148     0.0000     2.0000 </r>
       <r>   -13.6421     0.0000     2.0000 </r>
       <r>   -13.5693     0.0000     2.0000 </r>
       <r>   -13.4965     0.0000     2.0000 </r>
       <r>   -13.4237     0.0000     2.0000 </r>
       <r>   -13.3509     0.0000     2.0000 </r>
       <r>   -13.2781     0.0000     2.0000 </r>
       <r>   -13.2053     0.0000     2.0000 </r>
       <r>   -13.1325     0.0000     2.0000 </r>
       <r>   -13.0597     0.0000     2.0000 </r>
       <r>   -12.9870     0.0000     2.0000 </r>
       <r>   -12.9142     0.0000     2.0000 </r>
       <r>   -12.8414     0.0000     2.0000 </r>
       <r>   -12.7686     0.0000     2.0000 </r>
       <r>   -12.6958     0.0000     2.0000 </r>
       <r>   -12.6230     0.0000     2.0000 </r>
       <r>   -12.5502     0.0000     2.0000 </r>
       <r>   -12.4774     0.0000     2.0000 </r>
       <r>   -12.4047     0.0000     2.0000 </r>
       <r>   -12.3319     0.0000     2.0000 </r>
       <r>   -12.2591     0.0000     2.0000 </r>
       <r>   -12.1863     0.0000     2.0000 </r>
       <r>   -12.1135     0.0000     2.0000 </r>
       <r>   -12.0407     0.0000     2.0000 </r>
       <r>   -11.9679     0.0000     2.0000 </r>
       <r>   -11.8951     0.0000     2.0000 </r>
       <r>   -11.8223     0.0000     2.0000 </r>
       <r>   -11.7496     0.0000     2.0000 </r>
       <r>   -11.6768     0.0000     2.0000 </r>
       <r>   -11.6040     0.0000     2.0000 </r>
       <r>   -11.5312     0.0000     2.0000 </r>
       <r>   -11.4584     0.0000     2.0000 </r>
       <r>   -11.3856     0.0000     2.0000 </r>
       <r>   -11.3128     0.0000     2.0000 </r>
       <r>   -11.2400    -0.0000     2.0000 </r>
       <r>   -11.1673    -0.0000     2.0000 </r>
       <r>   -11.0945    -0.0000     2.0000 </r>
       <r>   -11.0217    -0.0000     2.0000 </r>
       <r>   -10.9489    -0.0000     2.0000 </r>
       <r>   -10.8761    -0.0000     2.0000 </r>
       <r>   -10.8033    -0.0000     2.0000 </r>
       <r>   -10.7305    -0.0000     2.0000 </r>
       <r>   -10.6577    -0.0000     2.0000 </r>
       <r>   -10.5849    -0.0000     2.0000 </r>
       <r>   -10.5122    -0.0000     2.0000 </r>
       <r>   -10.4394    -0.0000     2.0000 </r>
       <r>   -10.3666    -0.0000     2.0000 </r>
       <r>   -10.2938    -0.0001     2.0000 </r>
       <r>   -10.2210    -0.0009     1.9999 </r>
       <r>   -10.1482    -0.0067     1.9994 </r>
       <r>   -10.0754    -0.0353     1.9969 </r>
       <r>   -10.0026    -0.1336     1.9871 </r>
       <r>    -9.9299    -0.3388     1.9625 </r>
       <r>    -9.8571    -0.4701     1.9283 </r>
       <r>    -9.7843     0.1309     1.9378 </r>
       <r>    -9.7115     2.2278     2.0999 </r>
       <r>    -9.6387     5.5111     2.5011 </r>
       <r>    -9.5659     8.4364     3.1152 </r>
       <r>    -9.4931    10.2083     3.8582 </r>
       <r>    -9.4203    11.7726     4.7151 </r>
       <r>    -9.3475    13.5457     5.7011 </r>
       <r>    -9.2748    13.8285     6.7076 </r>
       <r>    -9.2020    11.0282     7.5104 </r>
       <r>    -9.1292     6.1642     7.9590 </r>
       <r>    -9.0564     1.8961     8.0971 </r>
       <r>    -8.9836    -0.2192     8.0811 </r>
       <r>    -8.9108    -0.5979     8.0376 </r>
       <r>    -8.8380    -0.3524     8.0119 </r>
       <r>    -8.7652    -0.1262     8.0027 </r>
       <r>    -8.6924    -0.0313     8.0005 </r>
       <r>    -8.6197    -0.0056     8.0001 </r>
       <r>    -8.5469    -0.0007     8.0000 </r>
       <r>    -8.4741    -0.0001     8.0000 </r>
       <r>    -8.4013    -0.0000     8.0000 </r>
       <r>    -8.3285    -0.0000     8.0000 </r>
       <r>    -8.2557    -0.0000     8.0000 </r>
       <r>    -8.1829    -0.0000     8.0000 </r>
       <r>    -8.1101    -0.0000     8.0000 </r>
       <r>    -8.0374    -0.0000     8.0000 </r>
       <r>    -7.9646     0.0000     8.0000 </r>
       <r>    -7.8918     0.0000     8.0000 </r>
       <r>    -7.8190     0.0000     8.0000 </r>
       <r>    -7.7462     0.0000     8.0000 </r>
       <r>    -7.6734     0.0000     8.0000 </r>
       <r>    -7.6006     0.0000     8.0000 </r>
       <r>    -7.5278     0.0000     8.0000 </r>
       <r>    -7.4550     0.0000     8.0000 </r>
       <r>    -7.3823     0.0000     8.0000 </r>
       <r>    -7.3095     0.0000     8.0000 </r>
       <r>    -7.2367     0.0000     8.0000 </r>
       <r>    -7.1639     0.0000     8.0000 </r>
       <r>    -7.0911     0.0000     8.0000 </r>
       <r>    -7.0183     0.0000     8.0000 </r>
       <r>    -6.9455     0.0000     8.0000 </r>
       <r>    -6.8727     0.0000     8.0000 </r>
       <r>    -6.8000     0.0000     8.0000 </r>
       <r>    -6.7272     0.0000     8.0000 </r>
       <r>    -6.6544     0.0000     8.0000 </r>
       <r>    -6.5816     0.0000     8.0000 </r>
       <r>    -6.5088     0.0000     8.0000 </r>
       <r>    -6.4360     0.0000     8.0000 </r>
       <r>    -6.3632     0.0000     8.0000 </r>
       <r>    -6.2904     0.0000     8.0000 </r>
       <r>    -6.2176     0.0000     8.0000 </r>
       <r>    -6.1449     0.0000     8.0000 </r>
       <r>    -6.0721     0.0000     8.0000 </r>
       <r>    -5.9993     0.0000     8.0000 </r>
       <r>    -5.9265     0.0000     8.0000 </r>
       <r>    -5.8537     0.0000     8.0000 </r>
       <r>    -5.7809     0.0000     8.0000 </r>
       <r>    -5.7081     0.0000     8.0000 </r>
       <r>    -5.6353     0.0000     8.0000 </r>
       <r>    -5.5626     0.0000     8.0000 </r>
       <r>    -5.4898     0.0000     8.0000 </r>
       <r>    -5.4170     0.0000     8.0000 </r>
       <r>    -5.3442     0.0000     8.0000 </r>
       <r>    -5.2714     0.0000     8.0000 </r>
       <r>    -5.1986     0.0000     8.0000 </r>
       <r>    -5.1258     0.0000     8.0000 </r>
       <r>    -5.0530     0.0000     8.0000 </r>
       <r>    -4.9802     0.0000     8.0000 </r>
       <r>    -4.9075     0.0000     8.0000 </r>
       <r>    -4.8347     0.0000     8.0000 </r>
       <r>    -4.7619     0.0000     8.0000 </r>
       <r>    -4.6891     0.0000     8.0000 </r>
       <r>    -4.6163     0.0000     8.0000 </r>
       <r>    -4.5435     0.0000     8.0000 </r>
       <r>    -4.4707     0.0000     8.0000 </r>
       <r>    -4.3979     0.0000     8.0000 </r>
       <r>    -4.3252     0.0000     8.0000 </r>
       <r>    -4.2524     0.0000     8.0000 </r>
       <r>    -4.1796     0.0000     8.0000 </r>
       <r>    -4.1068     0.0000     8.0000 </r>
       <r>    -4.0340     0.0000     8.0000 </r>
       <r>    -3.9612     0.0000     8.0000 </r>
       <r>    -3.8884     0.0000     8.0000 </r>
       <r>    -3.8156     0.0000     8.0000 </r>
       <r>    -3.7428     0.0000     8.0000 </r>
       <r>    -3.6701     0.0000     8.0000 </r>
       <r>    -3.5973     0.0000     8.0000 </r>
       <r>    -3.5245     0.0000     8.0000 </r>
       <r>    -3.4517     0.0000     8.0000 </r>
       <r>    -3.3789     0.0000     8.0000 </r>
       <r>    -3.3061     0.0000     8.0000 </r>
       <r>    -3.2333     0.0000     8.0000 </r>
       <r>    -3.1605     0.0000     8.0000 </r>
       <r>    -3.0878     0.0000     8.0000 </r>
       <r>    -3.0150     0.0000     8.0000 </r>
       <r>    -2.9422     0.0000     8.0000 </r>
       <r>    -2.8694     0.0000     8.0000 </r>
       <r>    -2.7966     0.0000     8.0000 </r>
       <r>    -2.7238     0.0000     8.0000 </r>
       <r>    -2.6510     0.0000     8.0000 </r>
       <r>    -2.5782     0.0000     8.0000 </r>
       <r>    -2.5054     0.0000     8.0000 </r>
       <r>    -2.4327     0.0000     8.0000 </r>
       <r>    -2.3599     0.0000     8.0000 </r>
       <r>    -2.2871     0.0000     8.0000 </r>
       <r>    -2.2143     0.0000     8.0000 </r>
       <r>    -2.1415     0.0000     8.0000 </r>
       <r>    -2.0687     0.0000     8.0000 </r>
       <r>    -1.9959     0.0000     8.0000 </r>
       <r>    -1.9231    -0.0000     8.0000 </r>
       <r>    -1.8504    -0.0000     8.0000 </r>
       <r>    -1.7776    -0.0000     8.0000 </r>
       <r>    -1.7048    -0.0000     8.0000 </r>
       <r>    -1.6320    -0.0000     8.0000 </r>
       <r>    -1.5592    -0.0000     8.0000 </r>
       <r>    -1.4864    -0.0000     8.0000 </r>
       <r>    -1.4136    -0.0000     8.0000 </r>
       <r>    -1.3408    -0.0000     8.0000 </r>
       <r>    -1.2680    -0.0000     8.0000 </r>
       <r>    -1.1953    -0.0000     8.0000 </r>
       <r>    -1.1225    -0.0000     8.0000 </r>
       <r>    -1.0497    -0.0000     8.0000 </r>
       <r>    -0.9769    -0.0003     8.0000 </r>
       <r>    -0.9041    -0.0024     7.9998 </r>
       <r>    -0.8313    -0.0153     7.9987 </r>
       <r>    -0.7585    -0.0690     7.9937 </r>
       <r>    -0.6857    -0.2160     7.9779 </r>
       <r>    -0.6130    -0.4164     7.9476 </r>
       <r>    -0.5402    -0.2383     7.9303 </r>
       <r>    -0.4674     1.2046     8.0180 </r>
       <r>    -0.3946     4.2719     8.3289 </r>
       <r>    -0.3218     7.4448     8.8708 </r>
       <r>    -0.2490     8.1558     9.4645 </r>
       <r>    -0.1762     5.7498     9.8830 </r>
       <r>    -0.1034     2.3359    10.0530 </r>
       <r>    -0.0306     0.1612    10.0647 </r>
       <r>     0.0421    -0.4506    10.0319 </r>
       <r>     0.1149    -0.3872    10.0037 </r>
       <r>     0.1877    -0.3863     9.9756 </r>
       <r>     0.2605    -0.6348     9.9294 </r>
       <r>     0.3333    -0.7327     9.8761 </r>
       <r>     0.4061     0.4584     9.9095 </r>
       <r>     0.4789     4.3556    10.2265 </r>
       <r>     0.5517    11.0819    11.0331 </r>
       <r>     0.6244    18.0748    12.3488 </r>
       <r>     0.6972    21.0745    13.8827 </r>
       <r>     0.7700    17.7070    15.1716 </r>
       <r>     0.8428    10.1666    15.9116 </r>
       <r>     0.9156     3.2306    16.1468 </r>
       <r>     0.9884    -0.2725    16.1269 </r>
       <r>     1.0612    -0.9300    16.0592 </r>
       <r>     1.1340    -0.5546    16.0189 </r>
       <r>     1.2068    -0.1992    16.0044 </r>
       <r>     1.2795    -0.0495    16.0007 </r>
       <r>     1.3523    -0.0089    16.0001 </r>
       <r>     1.4251    -0.0012    16.0000 </r>
       <r>     1.4979    -0.0001    16.0000 </r>
       <r>     1.5707    -0.0000    16.0000 </r>
       <r>     1.6435    -0.0000    16.0000 </r>
       <r>     1.7163    -0.0000    16.0000 </r>
       <r>     1.7891    -0.0000    16.0000 </r>
       <r>     1.8618    -0.0000    16.0000 </r>
       <r>     1.9346    -0.0000    16.0000 </r>
       <r>     2.0074    -0.0000    16.0000 </r>
       <r>     2.0802     0.0000    16.0000 </r>
       <r>     2.1530     0.0000    16.0000 </r>
       <r>     2.2258     0.0000    16.0000 </r>
       <r>     2.2986     0.0000    16.0000 </r>
       <r>     2.3714     0.0000    16.0000 </r>
       <r>     2.4442     0.0000    16.0000 </r>
       <r>     2.5169     0.0000    16.0000 </r>
       <r>     2.5897     0.0000    16.0000 </r>
       <r>     2.6625     0.0000    16.0000 </r>
       <r>     2.7353     0.0000    16.0000 </r>
      </set>
     </set>
    </array>
   </total>
  </dos>
 </calculation>
 <structure name="finalpos" >
  <crystal>
   <varray name="basis" >
    <v>      10.04510254       0.00000000       0.00000000 </v>
    <v>      -0.03038312       9.70687038       0.00000000 </v>
    <v>      -0.29485783       0.29002875      10.27545865 </v>
   </varray>
   <i name="volume">   1001.92409441 </i>
   <varray name="rec_basis" >
    <v>       0.09955100       0.00031160       0.00284786 </v>
    <v>       0.00000000       0.10301982      -0.00290777 </v>
    <v>       0.00000000      -0.00000000       0.09731926 </v>
   </varray>
  </crystal>
  <varray name="positions" >
   <v>       0.54327104       0.41491426       0.36147304 </v>
   <v>       0.39609384       0.48122729       0.43183860 </v>
   <v>       0.54779508       0.56542920       0.45556146 </v>
   <v>       0.52737488       0.41022840       0.53729509 </v>
   <v>       0.50289803       0.46764279       0.44419735 </v>
  </varray>
  <varray name="velocities" >
   <v>      -0.00020270       0.00425921       0.00186510 </v>
   <v>       0.00041993       0.00231205       0.00076142 </v>
   <v>      -0.00200103       0.00001718      -0.00129115 </v>
   <v>       0.00036130       0.00115265       0.00005247 </v>
   <v>       0.00011843      -0.00064450      -0.00011555 </v>
  </varray>
 </structure>
</modeling>
