unknown system                          
           1
    10.045103    0.000000    0.000000
    -0.030383    9.706870    0.000000
    -0.294858    0.290029   10.275459
   H    C 
   4   1
Direct configuration=     1
   0.53788060  0.40718744  0.36092525
   0.39440818  0.48040633  0.43860556
   0.55147627  0.56476974  0.44258666
   0.52823731  0.41634598  0.53917024
   0.50310888  0.46790003  0.44460369
Direct configuration=     2
   0.53672651  0.40991774  0.36166696
   0.39608192  0.48238718  0.43657753
   0.55231639  0.56929155  0.44086237
   0.52935663  0.41608615  0.54014101
   0.50290248  0.46715295  0.44477352
Direct configuration=     3
   0.53701507  0.41391086  0.36282988
   0.39667617  0.48190249  0.43370422
   0.55418820  0.57335292  0.44056930
   0.52926244  0.41566805  0.53889846
   0.50268098  0.46655752  0.44504377
Direct configuration=     4
   0.53978008  0.41612136  0.36052434
   0.39682568  0.47995318  0.43131207
   0.55416163  0.57025229  0.44102836
   0.52744257  0.41452159  0.53739207
   0.50259205  0.46688938  0.44552208
Direct configuration=     5
   0.54314121  0.41550652  0.35709564
   0.39542656  0.47759283  0.43001864
   0.55340110  0.56605575  0.44390082
   0.52682235  0.41221429  0.53691144
   0.50254366  0.46767857  0.44571610
Direct configuration=     6
   0.54544363  0.41436009  0.35891483
   0.39275440  0.47631354  0.42906635
   0.55169875  0.56538462  0.44800451
   0.52684294  0.40834063  0.53668629
   0.50271446  0.46825892  0.44532101
Direct configuration=     7
   0.54421258  0.41407188  0.36333053
   0.39053398  0.47557433  0.42829972
   0.55293316  0.56860804  0.45245311
   0.52736418  0.40670794  0.53586886
   0.50285565  0.46821202  0.44471488
Direct configuration=     8
   0.54112484  0.41350301  0.36662898
   0.39309151  0.47499447  0.42838258
   0.55463333  0.57452376  0.45630471
   0.52720245  0.40753135  0.53443660
   0.50277171  0.46774658  0.44423193
Direct configuration=     9
   0.54139744  0.41077388  0.36325612
   0.39485998  0.47628337  0.42888803
   0.55304365  0.57079638  0.45792574
   0.52726195  0.40846181  0.53473494
   0.50272917  0.46809935  0.44431086
Direct configuration=    10
   0.54347374  0.41065505  0.35960794
   0.39567391  0.47891524  0.43107718
   0.54979612  0.56541201  0.45685261
   0.52701357  0.40907576  0.53724262
   0.50277960  0.46828729  0.44431290
