   5   5   0   0
  0.2034678E+03  0.1001649E-08  0.9923078E-09  0.1023565E-08  0.2000000E-14
   50.000000000000000     
  CAR 
 unknown system                          
      2.69514466    -18.83323829  301     -9.07960568      1.00000000
    -18.833  0.0000E+00  0.0000E+00
    -18.761  0.0000E+00  0.0000E+00
    -18.690  0.0000E+00  0.0000E+00
    -18.618  0.0000E+00  0.0000E+00
    -18.546  0.0000E+00  0.0000E+00
    -18.474 -0.3665E-27 -0.2630E-28
    -18.403 -0.1109E-24 -0.7983E-26
    -18.331 -0.2593E-22 -0.1869E-23
    -18.259 -0.4676E-20 -0.3374E-21
    -18.187 -0.6498E-18 -0.4697E-19
    -18.116 -0.6958E-16 -0.5040E-17
    -18.044 -0.5737E-14 -0.4168E-15
    -17.972 -0.3533E-12 -0.2577E-13
    -17.900 -0.1715E-10 -0.1257E-11
    -17.829 -0.6399E-09 -0.4718E-10
    -17.757 -0.1829E-07 -0.1360E-08
    -17.685 -0.4001E-06 -0.3007E-07
    -17.613 -0.6675E-05 -0.5091E-06
    -17.542 -0.8465E-04 -0.6583E-05
    -17.470 -0.8113E-03 -0.6480E-04
    -17.398 -0.5827E-02 -0.4829E-03
    -17.326 -0.3092E-01 -0.2701E-02
    -17.254 -0.1180E+00 -0.1117E-01
    -17.183 -0.3049E+00 -0.3305E-01
    -17.111 -0.4362E+00 -0.6435E-01
    -17.039  0.1173E+00 -0.5593E-01
    -16.967  0.2189E+01  0.1012E+00
    -16.896  0.5541E+01  0.4988E+00
    -16.824  0.8078E+01  0.1078E+01
    -16.752  0.7649E+01  0.1627E+01
    -16.680  0.4642E+01  0.1961E+01
    -16.609  0.1487E+01  0.2067E+01
    -16.537 -0.1440E+00  0.2057E+01
    -16.465 -0.4330E+00  0.2026E+01
    -16.393 -0.2491E+00  0.2008E+01
    -16.322 -0.8631E-01  0.2002E+01
    -16.250 -0.2069E-01  0.2000E+01
    -16.178 -0.3599E-02  0.2000E+01
    -16.106 -0.4645E-03  0.2000E+01
    -16.035 -0.4505E-04  0.2000E+01
    -15.963 -0.3308E-05  0.2000E+01
    -15.891 -0.1848E-06  0.2000E+01
    -15.819 -0.7881E-08  0.2000E+01
    -15.748 -0.2573E-09  0.2000E+01
    -15.676 -0.6441E-11  0.2000E+01
    -15.604 -0.1238E-12  0.2000E+01
    -15.532  0.0000E+00  0.2000E+01
    -15.460  0.0000E+00  0.2000E+01
    -15.389  0.0000E+00  0.2000E+01
    -15.317  0.0000E+00  0.2000E+01
    -15.245  0.0000E+00  0.2000E+01
    -15.173  0.0000E+00  0.2000E+01
    -15.102  0.0000E+00  0.2000E+01
    -15.030  0.0000E+00  0.2000E+01
    -14.958  0.0000E+00  0.2000E+01
    -14.886  0.0000E+00  0.2000E+01
    -14.815  0.0000E+00  0.2000E+01
    -14.743  0.0000E+00  0.2000E+01
    -14.671  0.0000E+00  0.2000E+01
    -14.599  0.0000E+00  0.2000E+01
    -14.528  0.0000E+00  0.2000E+01
    -14.456  0.0000E+00  0.2000E+01
    -14.384  0.0000E+00  0.2000E+01
    -14.312  0.0000E+00  0.2000E+01
    -14.241  0.0000E+00  0.2000E+01
    -14.169  0.0000E+00  0.2000E+01
    -14.097  0.0000E+00  0.2000E+01
    -14.025  0.0000E+00  0.2000E+01
    -13.953  0.0000E+00  0.2000E+01
    -13.882  0.0000E+00  0.2000E+01
    -13.810  0.0000E+00  0.2000E+01
    -13.738  0.0000E+00  0.2000E+01
    -13.666  0.0000E+00  0.2000E+01
    -13.595  0.0000E+00  0.2000E+01
    -13.523  0.0000E+00  0.2000E+01
    -13.451  0.0000E+00  0.2000E+01
    -13.379  0.0000E+00  0.2000E+01
    -13.308  0.0000E+00  0.2000E+01
    -13.236  0.0000E+00  0.2000E+01
    -13.164  0.0000E+00  0.2000E+01
    -13.092  0.0000E+00  0.2000E+01
    -13.021  0.0000E+00  0.2000E+01
    -12.949  0.0000E+00  0.2000E+01
    -12.877  0.0000E+00  0.2000E+01
    -12.805  0.0000E+00  0.2000E+01
    -12.734  0.0000E+00  0.2000E+01
    -12.662  0.0000E+00  0.2000E+01
    -12.590  0.0000E+00  0.2000E+01
    -12.518  0.0000E+00  0.2000E+01
    -12.446  0.0000E+00  0.2000E+01
    -12.375  0.0000E+00  0.2000E+01
    -12.303  0.0000E+00  0.2000E+01
    -12.231  0.0000E+00  0.2000E+01
    -12.159  0.0000E+00  0.2000E+01
    -12.088  0.0000E+00  0.2000E+01
    -12.016  0.0000E+00  0.2000E+01
    -11.944  0.0000E+00  0.2000E+01
    -11.872  0.0000E+00  0.2000E+01
    -11.801  0.0000E+00  0.2000E+01
    -11.729  0.0000E+00  0.2000E+01
    -11.657  0.0000E+00  0.2000E+01
    -11.585  0.0000E+00  0.2000E+01
    -11.514  0.0000E+00  0.2000E+01
    -11.442  0.0000E+00  0.2000E+01
    -11.370  0.0000E+00  0.2000E+01
    -11.298  0.0000E+00  0.2000E+01
    -11.227  0.0000E+00  0.2000E+01
    -11.155  0.0000E+00  0.2000E+01
    -11.083  0.0000E+00  0.2000E+01
    -11.011  0.0000E+00  0.2000E+01
    -10.939 -0.2084E-27  0.2000E+01
    -10.868 -0.7475E-25  0.2000E+01
    -10.796 -0.1814E-22  0.2000E+01
    -10.724 -0.3401E-20  0.2000E+01
    -10.652 -0.4919E-18  0.2000E+01
    -10.581 -0.5489E-16  0.2000E+01
    -10.509 -0.4724E-14  0.2000E+01
    -10.437 -0.3042E-12  0.2000E+01
    -10.365 -0.1549E-10  0.2000E+01
    -10.294 -0.6067E-09  0.2000E+01
    -10.222 -0.1827E-07  0.2000E+01
    -10.150 -0.4222E-06  0.2000E+01
    -10.078 -0.7471E-05  0.2000E+01
    -10.007 -0.1010E-03  0.2000E+01
     -9.935 -0.1038E-02  0.2000E+01
     -9.863 -0.8059E-02  0.1999E+01
     -9.791 -0.4678E-01  0.1996E+01
     -9.720 -0.1991E+00  0.1982E+01
     -9.648 -0.5964E+00  0.1939E+01
     -9.576 -0.1125E+01  0.1858E+01
     -9.504 -0.6938E+00  0.1808E+01
     -9.433  0.2952E+01  0.2020E+01
     -9.361  0.1101E+02  0.2810E+01
     -9.289  0.2021E+02  0.4261E+01
     -9.217  0.2392E+02  0.5977E+01
     -9.145  0.1902E+02  0.7342E+01
     -9.074  0.9628E+01  0.8033E+01
     -9.002  0.2186E+01  0.8189E+01
     -8.930 -0.8520E+00  0.8128E+01
     -8.858 -0.1050E+01  0.8053E+01
     -8.787 -0.5226E+00  0.8015E+01
     -8.715 -0.1684E+00  0.8003E+01
     -8.643 -0.3866E-01  0.8001E+01
     -8.571 -0.6556E-02  0.8000E+01
     -8.500 -0.8359E-03  0.8000E+01
     -8.428 -0.8088E-04  0.8000E+01
     -8.356 -0.5972E-05  0.8000E+01
     -8.284 -0.3377E-06  0.8000E+01
     -8.213 -0.1465E-07  0.8000E+01
     -8.141 -0.4888E-09  0.8000E+01
     -8.069 -0.1254E-10  0.8000E+01
     -7.997 -0.2460E-12  0.8000E+01
     -7.926 -0.6188E-14  0.8000E+01
     -7.854  0.0000E+00  0.8000E+01
     -7.782  0.0000E+00  0.8000E+01
     -7.710  0.0000E+00  0.8000E+01
     -7.638  0.0000E+00  0.8000E+01
     -7.567  0.0000E+00  0.8000E+01
     -7.495  0.0000E+00  0.8000E+01
     -7.423  0.0000E+00  0.8000E+01
     -7.351  0.0000E+00  0.8000E+01
     -7.280  0.0000E+00  0.8000E+01
     -7.208  0.0000E+00  0.8000E+01
     -7.136  0.0000E+00  0.8000E+01
     -7.064  0.0000E+00  0.8000E+01
     -6.993  0.0000E+00  0.8000E+01
     -6.921  0.0000E+00  0.8000E+01
     -6.849  0.0000E+00  0.8000E+01
     -6.777  0.0000E+00  0.8000E+01
     -6.706  0.0000E+00  0.8000E+01
     -6.634  0.0000E+00  0.8000E+01
     -6.562  0.0000E+00  0.8000E+01
     -6.490  0.0000E+00  0.8000E+01
     -6.419  0.0000E+00  0.8000E+01
     -6.347  0.0000E+00  0.8000E+01
     -6.275  0.0000E+00  0.8000E+01
     -6.203  0.0000E+00  0.8000E+01
     -6.131  0.0000E+00  0.8000E+01
     -6.060  0.0000E+00  0.8000E+01
     -5.988  0.0000E+00  0.8000E+01
     -5.916  0.0000E+00  0.8000E+01
     -5.844  0.0000E+00  0.8000E+01
     -5.773  0.0000E+00  0.8000E+01
     -5.701  0.0000E+00  0.8000E+01
     -5.629  0.0000E+00  0.8000E+01
     -5.557  0.0000E+00  0.8000E+01
     -5.486  0.0000E+00  0.8000E+01
     -5.414  0.0000E+00  0.8000E+01
     -5.342  0.0000E+00  0.8000E+01
     -5.270  0.0000E+00  0.8000E+01
     -5.199  0.0000E+00  0.8000E+01
     -5.127  0.0000E+00  0.8000E+01
     -5.055  0.0000E+00  0.8000E+01
     -4.983  0.0000E+00  0.8000E+01
     -4.912  0.0000E+00  0.8000E+01
     -4.840  0.0000E+00  0.8000E+01
     -4.768  0.0000E+00  0.8000E+01
     -4.696  0.0000E+00  0.8000E+01
     -4.625  0.0000E+00  0.8000E+01
     -4.553  0.0000E+00  0.8000E+01
     -4.481  0.0000E+00  0.8000E+01
     -4.409  0.0000E+00  0.8000E+01
     -4.337  0.0000E+00  0.8000E+01
     -4.266  0.0000E+00  0.8000E+01
     -4.194  0.0000E+00  0.8000E+01
     -4.122  0.0000E+00  0.8000E+01
     -4.050  0.0000E+00  0.8000E+01
     -3.979  0.0000E+00  0.8000E+01
     -3.907  0.0000E+00  0.8000E+01
     -3.835  0.0000E+00  0.8000E+01
     -3.763  0.0000E+00  0.8000E+01
     -3.692  0.0000E+00  0.8000E+01
     -3.620  0.0000E+00  0.8000E+01
     -3.548  0.0000E+00  0.8000E+01
     -3.476  0.0000E+00  0.8000E+01
     -3.405  0.0000E+00  0.8000E+01
     -3.333  0.0000E+00  0.8000E+01
     -3.261  0.0000E+00  0.8000E+01
     -3.189  0.0000E+00  0.8000E+01
     -3.118  0.0000E+00  0.8000E+01
     -3.046  0.0000E+00  0.8000E+01
     -2.974  0.0000E+00  0.8000E+01
     -2.902  0.0000E+00  0.8000E+01
     -2.830  0.0000E+00  0.8000E+01
     -2.759  0.0000E+00  0.8000E+01
     -2.687  0.0000E+00  0.8000E+01
     -2.615  0.0000E+00  0.8000E+01
     -2.543  0.0000E+00  0.8000E+01
     -2.472  0.0000E+00  0.8000E+01
     -2.400  0.0000E+00  0.8000E+01
     -2.328  0.0000E+00  0.8000E+01
     -2.256  0.0000E+00  0.8000E+01
     -2.185  0.0000E+00  0.8000E+01
     -2.113  0.0000E+00  0.8000E+01
     -2.041  0.0000E+00  0.8000E+01
     -1.969 -0.3088E-27  0.8000E+01
     -1.898 -0.9413E-25  0.8000E+01
     -1.826 -0.2218E-22  0.8000E+01
     -1.754 -0.4030E-20  0.8000E+01
     -1.682 -0.5644E-18  0.8000E+01
     -1.611 -0.6089E-16  0.8000E+01
     -1.539 -0.5059E-14  0.8000E+01
     -1.467 -0.3135E-12  0.8000E+01
     -1.395 -0.1536E-10  0.8000E+01
     -1.323 -0.5775E-09  0.8000E+01
     -1.252 -0.1664E-07  0.8000E+01
     -1.180 -0.3668E-06  0.8000E+01
     -1.108 -0.6169E-05  0.8000E+01
     -1.036 -0.7886E-04  0.8000E+01
     -0.965 -0.7621E-03  0.8000E+01
     -0.893 -0.5521E-02  0.8000E+01
     -0.821 -0.2957E-01  0.7997E+01
     -0.749 -0.1140E+00  0.7989E+01
     -0.678 -0.2985E+00  0.7968E+01
     -0.606 -0.4377E+00  0.7936E+01
     -0.534  0.8233E-01  0.7942E+01
     -0.462  0.2104E+01  0.8093E+01
     -0.391  0.5440E+01  0.8484E+01
     -0.319  0.8039E+01  0.9061E+01
     -0.247  0.7708E+01  0.9614E+01
     -0.175  0.4746E+01  0.9954E+01
     -0.104  0.1561E+01  0.1007E+02
     -0.032 -0.1231E+00  0.1006E+02
      0.040 -0.4588E+00  0.1002E+02
      0.112 -0.3584E+00  0.9999E+01
      0.183 -0.4124E+00  0.9969E+01
      0.255 -0.7030E+00  0.9919E+01
      0.327 -0.7346E+00  0.9866E+01
      0.399  0.7364E+00  0.9919E+01
      0.471  0.5117E+01  0.1029E+02
      0.542  0.1226E+02  0.1117E+02
      0.614  0.1919E+02  0.1254E+02
      0.686  0.2146E+02  0.1408E+02
      0.758  0.1719E+02  0.1532E+02
      0.829  0.9242E+01  0.1598E+02
      0.901  0.2537E+01  0.1616E+02
      0.973 -0.5447E+00  0.1612E+02
      1.045 -0.9561E+00  0.1605E+02
      1.116 -0.5235E+00  0.1602E+02
      1.188 -0.1796E+00  0.1600E+02
      1.260 -0.4328E-01  0.1600E+02
      1.332 -0.7630E-02  0.1600E+02
      1.403 -0.1004E-02  0.1600E+02
      1.475 -0.9965E-04  0.1600E+02
      1.547 -0.7514E-05  0.1600E+02
      1.619 -0.4323E-06  0.1600E+02
      1.690 -0.1904E-07  0.1600E+02
      1.762 -0.6432E-09  0.1600E+02
      1.834 -0.1670E-10  0.1600E+02
      1.906 -0.3326E-12  0.1600E+02
      1.978 -0.6188E-14  0.1600E+02
      2.049  0.0000E+00  0.1600E+02
      2.121  0.0000E+00  0.1600E+02
      2.193  0.0000E+00  0.1600E+02
      2.265  0.0000E+00  0.1600E+02
      2.336  0.0000E+00  0.1600E+02
      2.408  0.0000E+00  0.1600E+02
      2.480  0.0000E+00  0.1600E+02
      2.552  0.0000E+00  0.1600E+02
      2.623  0.0000E+00  0.1600E+02
      2.695  0.0000E+00  0.1600E+02
      2.70229286    -18.93034947  301     -9.12137369      1.00000000
    -18.930  0.0000E+00  0.0000E+00
    -18.858  0.0000E+00  0.0000E+00
    -18.786  0.0000E+00  0.0000E+00
    -18.714  0.0000E+00  0.0000E+00
    -18.642  0.0000E+00  0.0000E+00
    -18.570 -0.4203E-27 -0.3031E-28
    -18.498 -0.1298E-24 -0.9391E-26
    -18.426 -0.3092E-22 -0.2239E-23
    -18.353 -0.5663E-20 -0.4106E-21
    -18.281 -0.7975E-18 -0.5792E-19
    -18.209 -0.8630E-16 -0.6281E-17
    -18.137 -0.7174E-14 -0.5236E-15
    -18.065 -0.4439E-12 -0.3253E-13
    -17.993 -0.2162E-10 -0.1592E-11
    -17.921 -0.8067E-09 -0.5976E-10
    -17.849 -0.2301E-07 -0.1719E-08
    -17.777 -0.5005E-06 -0.3781E-07
    -17.704 -0.8283E-05 -0.6351E-06
    -17.632 -0.1039E-03 -0.8125E-05
    -17.560 -0.9813E-03 -0.7888E-04
    -17.488 -0.6921E-02 -0.5779E-03
    -17.416 -0.3589E-01 -0.3166E-02
    -17.344 -0.1329E+00 -0.1275E-01
    -17.272 -0.3284E+00 -0.3643E-01
    -17.200 -0.4243E+00 -0.6703E-01
    -17.128  0.2730E+00 -0.4734E-01
    -17.056  0.2561E+01  0.1373E+00
    -16.983  0.5970E+01  0.5678E+00
    -16.911  0.8215E+01  0.1160E+01
    -16.839  0.7341E+01  0.1690E+01
    -16.767  0.4141E+01  0.1988E+01
    -16.695  0.1137E+01  0.2070E+01
    -16.623 -0.2528E+00  0.2052E+01
    -16.551 -0.4160E+00  0.2022E+01
    -16.479 -0.2159E+00  0.2006E+01
    -16.407 -0.6966E-01  0.2001E+01
    -16.334 -0.1567E-01  0.2000E+01
    -16.262 -0.2563E-02  0.2000E+01
    -16.190 -0.3110E-03  0.2000E+01
    -16.118 -0.2833E-04  0.2000E+01
    -16.046 -0.1950E-05  0.2000E+01
    -15.974 -0.1020E-06  0.2000E+01
    -15.902 -0.4062E-08  0.2000E+01
    -15.830 -0.1236E-09  0.2000E+01
    -15.758 -0.2875E-11  0.2000E+01
    -15.685 -0.5543E-13  0.2000E+01
    -15.613  0.0000E+00  0.2000E+01
    -15.541  0.0000E+00  0.2000E+01
    -15.469  0.0000E+00  0.2000E+01
    -15.397  0.0000E+00  0.2000E+01
    -15.325  0.0000E+00  0.2000E+01
    -15.253  0.0000E+00  0.2000E+01
    -15.181  0.0000E+00  0.2000E+01
    -15.109  0.0000E+00  0.2000E+01
    -15.036  0.0000E+00  0.2000E+01
    -14.964  0.0000E+00  0.2000E+01
    -14.892  0.0000E+00  0.2000E+01
    -14.820  0.0000E+00  0.2000E+01
    -14.748  0.0000E+00  0.2000E+01
    -14.676  0.0000E+00  0.2000E+01
    -14.604  0.0000E+00  0.2000E+01
    -14.532  0.0000E+00  0.2000E+01
    -14.460  0.0000E+00  0.2000E+01
    -14.387  0.0000E+00  0.2000E+01
    -14.315  0.0000E+00  0.2000E+01
    -14.243  0.0000E+00  0.2000E+01
    -14.171  0.0000E+00  0.2000E+01
    -14.099  0.0000E+00  0.2000E+01
    -14.027  0.0000E+00  0.2000E+01
    -13.955  0.0000E+00  0.2000E+01
    -13.883  0.0000E+00  0.2000E+01
    -13.811  0.0000E+00  0.2000E+01
    -13.739  0.0000E+00  0.2000E+01
    -13.666  0.0000E+00  0.2000E+01
    -13.594  0.0000E+00  0.2000E+01
    -13.522  0.0000E+00  0.2000E+01
    -13.450  0.0000E+00  0.2000E+01
    -13.378  0.0000E+00  0.2000E+01
    -13.306  0.0000E+00  0.2000E+01
    -13.234  0.0000E+00  0.2000E+01
    -13.162  0.0000E+00  0.2000E+01
    -13.090  0.0000E+00  0.2000E+01
    -13.017  0.0000E+00  0.2000E+01
    -12.945  0.0000E+00  0.2000E+01
    -12.873  0.0000E+00  0.2000E+01
    -12.801  0.0000E+00  0.2000E+01
    -12.729  0.0000E+00  0.2000E+01
    -12.657  0.0000E+00  0.2000E+01
    -12.585  0.0000E+00  0.2000E+01
    -12.513  0.0000E+00  0.2000E+01
    -12.441  0.0000E+00  0.2000E+01
    -12.368  0.0000E+00  0.2000E+01
    -12.296  0.0000E+00  0.2000E+01
    -12.224  0.0000E+00  0.2000E+01
    -12.152  0.0000E+00  0.2000E+01
    -12.080  0.0000E+00  0.2000E+01
    -12.008  0.0000E+00  0.2000E+01
    -11.936  0.0000E+00  0.2000E+01
    -11.864  0.0000E+00  0.2000E+01
    -11.792  0.0000E+00  0.2000E+01
    -11.719  0.0000E+00  0.2000E+01
    -11.647  0.0000E+00  0.2000E+01
    -11.575  0.0000E+00  0.2000E+01
    -11.503  0.0000E+00  0.2000E+01
    -11.431  0.0000E+00  0.2000E+01
    -11.359  0.0000E+00  0.2000E+01
    -11.287  0.0000E+00  0.2000E+01
    -11.215  0.0000E+00  0.2000E+01
    -11.143  0.0000E+00  0.2000E+01
    -11.070  0.0000E+00  0.2000E+01
    -10.998 -0.5873E-27  0.2000E+01
    -10.926 -0.1805E-24  0.2000E+01
    -10.854 -0.4244E-22  0.2000E+01
    -10.782 -0.7681E-20  0.2000E+01
    -10.710 -0.1069E-17  0.2000E+01
    -10.638 -0.1145E-15  0.2000E+01
    -10.566 -0.9430E-14  0.2000E+01
    -10.494 -0.5785E-12  0.2000E+01
    -10.422 -0.2802E-10  0.2000E+01
    -10.349 -0.1041E-08  0.2000E+01
    -10.277 -0.2967E-07  0.2000E+01
    -10.205 -0.6474E-06  0.2000E+01
    -10.133 -0.1080E-04  0.2000E+01
    -10.061 -0.1373E-03  0.2000E+01
     -9.989 -0.1327E-02  0.2000E+01
     -9.917 -0.9680E-02  0.1999E+01
     -9.845 -0.5280E-01  0.1995E+01
     -9.773 -0.2112E+00  0.1980E+01
     -9.700 -0.5930E+00  0.1937E+01
     -9.628 -0.1030E+01  0.1863E+01
     -9.556 -0.4365E+00  0.1832E+01
     -9.484  0.3226E+01  0.2064E+01
     -9.412  0.1089E+02  0.2849E+01
     -9.340  0.1949E+02  0.4255E+01
     -9.268  0.2309E+02  0.5920E+01
     -9.196  0.1874E+02  0.7272E+01
     -9.124  0.9935E+01  0.7988E+01
     -9.051  0.2600E+01  0.8175E+01
     -8.979 -0.6429E+00  0.8129E+01
     -8.907 -0.1016E+01  0.8056E+01
     -8.835 -0.5405E+00  0.8017E+01
     -8.763 -0.1821E+00  0.8004E+01
     -8.691 -0.4333E-01  0.8001E+01
     -8.619 -0.7568E-02  0.8000E+01
     -8.547 -0.9886E-03  0.8000E+01
     -8.475 -0.9753E-04  0.8000E+01
     -8.402 -0.7311E-05  0.8000E+01
     -8.330 -0.4179E-06  0.8000E+01
     -8.258 -0.1827E-07  0.8000E+01
     -8.186 -0.6116E-09  0.8000E+01
     -8.114 -0.1570E-10  0.8000E+01
     -8.042 -0.3079E-12  0.8000E+01
     -7.970 -0.6159E-14  0.8000E+01
     -7.898  0.0000E+00  0.8000E+01
     -7.826  0.0000E+00  0.8000E+01
     -7.753  0.0000E+00  0.8000E+01
     -7.681  0.0000E+00  0.8000E+01
     -7.609  0.0000E+00  0.8000E+01
     -7.537  0.0000E+00  0.8000E+01
     -7.465  0.0000E+00  0.8000E+01
     -7.393  0.0000E+00  0.8000E+01
     -7.321  0.0000E+00  0.8000E+01
     -7.249  0.0000E+00  0.8000E+01
     -7.177  0.0000E+00  0.8000E+01
     -7.105  0.0000E+00  0.8000E+01
     -7.032  0.0000E+00  0.8000E+01
     -6.960  0.0000E+00  0.8000E+01
     -6.888  0.0000E+00  0.8000E+01
     -6.816  0.0000E+00  0.8000E+01
     -6.744  0.0000E+00  0.8000E+01
     -6.672  0.0000E+00  0.8000E+01
     -6.600  0.0000E+00  0.8000E+01
     -6.528  0.0000E+00  0.8000E+01
     -6.456  0.0000E+00  0.8000E+01
     -6.383  0.0000E+00  0.8000E+01
     -6.311  0.0000E+00  0.8000E+01
     -6.239  0.0000E+00  0.8000E+01
     -6.167  0.0000E+00  0.8000E+01
     -6.095  0.0000E+00  0.8000E+01
     -6.023  0.0000E+00  0.8000E+01
     -5.951  0.0000E+00  0.8000E+01
     -5.879  0.0000E+00  0.8000E+01
     -5.807  0.0000E+00  0.8000E+01
     -5.734  0.0000E+00  0.8000E+01
     -5.662  0.0000E+00  0.8000E+01
     -5.590  0.0000E+00  0.8000E+01
     -5.518  0.0000E+00  0.8000E+01
     -5.446  0.0000E+00  0.8000E+01
     -5.374  0.0000E+00  0.8000E+01
     -5.302  0.0000E+00  0.8000E+01
     -5.230  0.0000E+00  0.8000E+01
     -5.158  0.0000E+00  0.8000E+01
     -5.085  0.0000E+00  0.8000E+01
     -5.013  0.0000E+00  0.8000E+01
     -4.941  0.0000E+00  0.8000E+01
     -4.869  0.0000E+00  0.8000E+01
     -4.797  0.0000E+00  0.8000E+01
     -4.725  0.0000E+00  0.8000E+01
     -4.653  0.0000E+00  0.8000E+01
     -4.581  0.0000E+00  0.8000E+01
     -4.509  0.0000E+00  0.8000E+01
     -4.436  0.0000E+00  0.8000E+01
     -4.364  0.0000E+00  0.8000E+01
     -4.292  0.0000E+00  0.8000E+01
     -4.220  0.0000E+00  0.8000E+01
     -4.148  0.0000E+00  0.8000E+01
     -4.076  0.0000E+00  0.8000E+01
     -4.004  0.0000E+00  0.8000E+01
     -3.932  0.0000E+00  0.8000E+01
     -3.860  0.0000E+00  0.8000E+01
     -3.787  0.0000E+00  0.8000E+01
     -3.715  0.0000E+00  0.8000E+01
     -3.643  0.0000E+00  0.8000E+01
     -3.571  0.0000E+00  0.8000E+01
     -3.499  0.0000E+00  0.8000E+01
     -3.427  0.0000E+00  0.8000E+01
     -3.355  0.0000E+00  0.8000E+01
     -3.283  0.0000E+00  0.8000E+01
     -3.211  0.0000E+00  0.8000E+01
     -3.139  0.0000E+00  0.8000E+01
     -3.066  0.0000E+00  0.8000E+01
     -2.994  0.0000E+00  0.8000E+01
     -2.922  0.0000E+00  0.8000E+01
     -2.850  0.0000E+00  0.8000E+01
     -2.778  0.0000E+00  0.8000E+01
     -2.706  0.0000E+00  0.8000E+01
     -2.634  0.0000E+00  0.8000E+01
     -2.562  0.0000E+00  0.8000E+01
     -2.490  0.0000E+00  0.8000E+01
     -2.417  0.0000E+00  0.8000E+01
     -2.345  0.0000E+00  0.8000E+01
     -2.273  0.0000E+00  0.8000E+01
     -2.201  0.0000E+00  0.8000E+01
     -2.129  0.0000E+00  0.8000E+01
     -2.057  0.0000E+00  0.8000E+01
     -1.985  0.0000E+00  0.8000E+01
     -1.913 -0.7167E-26  0.8000E+01
     -1.841 -0.1946E-23  0.8000E+01
     -1.768 -0.4077E-21  0.8000E+01
     -1.696 -0.6567E-19  0.8000E+01
     -1.624 -0.8131E-17  0.8000E+01
     -1.552 -0.7735E-15  0.8000E+01
     -1.480 -0.5496E-13  0.8000E+01
     -1.408 -0.3064E-11  0.8000E+01
     -1.336 -0.1310E-09  0.8000E+01
     -1.264 -0.4288E-08  0.8000E+01
     -1.192 -0.1072E-06  0.8000E+01
     -1.119 -0.2041E-05  0.8000E+01
     -1.047 -0.2951E-04  0.8000E+01
     -0.975 -0.3225E-03  0.8000E+01
     -0.903 -0.2645E-02  0.8000E+01
     -0.831 -0.1609E-01  0.7999E+01
     -0.759 -0.7114E-01  0.7993E+01
     -0.687 -0.2191E+00  0.7978E+01
     -0.615 -0.4181E+00  0.7948E+01
     -0.543 -0.2427E+00  0.7930E+01
     -0.470  0.1174E+01  0.8015E+01
     -0.398  0.4197E+01  0.8317E+01
     -0.326  0.7379E+01  0.8849E+01
     -0.254  0.8201E+01  0.9441E+01
     -0.182  0.5917E+01  0.9867E+01
     -0.110  0.2512E+01  0.1005E+02
     -0.038  0.2481E+00  0.1007E+02
      0.034 -0.4436E+00  0.1003E+02
      0.106 -0.4045E+00  0.1001E+02
      0.178 -0.3982E+00  0.9977E+01
      0.251 -0.6519E+00  0.9930E+01
      0.323 -0.7990E+00  0.9872E+01
      0.395  0.2976E+00  0.9893E+01
      0.467  0.4149E+01  0.1019E+02
      0.539  0.1103E+02  0.1099E+02
      0.611  0.1836E+02  0.1231E+02
      0.683  0.2161E+02  0.1387E+02
      0.755  0.1817E+02  0.1518E+02
      0.827  0.1036E+02  0.1593E+02
      0.900  0.3203E+01  0.1616E+02
      0.972 -0.3600E+00  0.1613E+02
      1.044 -0.9879E+00  0.1606E+02
      1.116 -0.5772E+00  0.1602E+02
      1.188 -0.2052E+00  0.1600E+02
      1.260 -0.5067E-01  0.1600E+02
      1.332 -0.9101E-02  0.1600E+02
      1.404 -0.1214E-02  0.1600E+02
      1.476 -0.1218E-03  0.1600E+02
      1.549 -0.9248E-05  0.1600E+02
      1.621 -0.5342E-06  0.1600E+02
      1.693 -0.2355E-07  0.1600E+02
      1.765 -0.7941E-09  0.1600E+02
      1.837 -0.2052E-10  0.1600E+02
      1.909 -0.4111E-12  0.1600E+02
      1.981 -0.6159E-14  0.1600E+02
      2.053  0.0000E+00  0.1600E+02
      2.125  0.0000E+00  0.1600E+02
      2.198  0.0000E+00  0.1600E+02
      2.270  0.0000E+00  0.1600E+02
      2.342  0.0000E+00  0.1600E+02
      2.414  0.0000E+00  0.1600E+02
      2.486  0.0000E+00  0.1600E+02
      2.558  0.0000E+00  0.1600E+02
      2.630  0.0000E+00  0.1600E+02
      2.702  0.0000E+00  0.1600E+02
      2.70466662    -18.90604670  301     -8.86159670      1.00000000
    -18.906  0.0000E+00  0.0000E+00
    -18.834  0.0000E+00  0.0000E+00
    -18.762  0.0000E+00  0.0000E+00
    -18.690  0.0000E+00  0.0000E+00
    -18.618  0.0000E+00  0.0000E+00
    -18.546 -0.4085E-27 -0.2942E-28
    -18.474 -0.1256E-24 -0.9077E-26
    -18.402 -0.2980E-22 -0.2156E-23
    -18.330 -0.5441E-20 -0.3941E-21
    -18.258 -0.7640E-18 -0.5543E-19
    -18.186 -0.8250E-16 -0.5998E-17
    -18.114 -0.6846E-14 -0.4991E-15
    -18.042 -0.4224E-12 -0.3093E-13
    -17.970 -0.2060E-10 -0.1515E-11
    -17.898 -0.7685E-09 -0.5687E-10
    -17.826 -0.2193E-07 -0.1636E-08
    -17.753 -0.4776E-06 -0.3604E-07
    -17.681 -0.7917E-05 -0.6064E-06
    -17.609 -0.9952E-04 -0.7775E-05
    -17.537 -0.9430E-03 -0.7571E-04
    -17.465 -0.6677E-02 -0.5567E-03
    -17.393 -0.3479E-01 -0.3063E-02
    -17.321 -0.1297E+00 -0.1240E-01
    -17.249 -0.3235E+00 -0.3571E-01
    -17.177 -0.4276E+00 -0.6651E-01
    -17.105  0.2384E+00 -0.4934E-01
    -17.033  0.2481E+01  0.1294E+00
    -16.961  0.5881E+01  0.5530E+00
    -16.889  0.8191E+01  0.1143E+01
    -16.817  0.7410E+01  0.1677E+01
    -16.745  0.4246E+01  0.1983E+01
    -16.673  0.1208E+01  0.2070E+01
    -16.601 -0.2325E+00  0.2053E+01
    -16.529 -0.4203E+00  0.2023E+01
    -16.457 -0.2227E+00  0.2007E+01
    -16.385 -0.7293E-01  0.2001E+01
    -16.313 -0.1663E-01  0.2000E+01
    -16.241 -0.2755E-02  0.2000E+01
    -16.169 -0.3386E-03  0.2000E+01
    -16.097 -0.3125E-04  0.2000E+01
    -16.025 -0.2181E-05  0.2000E+01
    -15.953 -0.1156E-06  0.2000E+01
    -15.881 -0.4674E-08  0.2000E+01
    -15.809 -0.1443E-09  0.2000E+01
    -15.736 -0.3414E-11  0.2000E+01
    -15.664 -0.6165E-13  0.2000E+01
    -15.592  0.0000E+00  0.2000E+01
    -15.520  0.0000E+00  0.2000E+01
    -15.448  0.0000E+00  0.2000E+01
    -15.376  0.0000E+00  0.2000E+01
    -15.304  0.0000E+00  0.2000E+01
    -15.232  0.0000E+00  0.2000E+01
    -15.160  0.0000E+00  0.2000E+01
    -15.088  0.0000E+00  0.2000E+01
    -15.016  0.0000E+00  0.2000E+01
    -14.944  0.0000E+00  0.2000E+01
    -14.872  0.0000E+00  0.2000E+01
    -14.800  0.0000E+00  0.2000E+01
    -14.728  0.0000E+00  0.2000E+01
    -14.656  0.0000E+00  0.2000E+01
    -14.584  0.0000E+00  0.2000E+01
    -14.512  0.0000E+00  0.2000E+01
    -14.440  0.0000E+00  0.2000E+01
    -14.368  0.0000E+00  0.2000E+01
    -14.296  0.0000E+00  0.2000E+01
    -14.224  0.0000E+00  0.2000E+01
    -14.152  0.0000E+00  0.2000E+01
    -14.080  0.0000E+00  0.2000E+01
    -14.008  0.0000E+00  0.2000E+01
    -13.936  0.0000E+00  0.2000E+01
    -13.864  0.0000E+00  0.2000E+01
    -13.792  0.0000E+00  0.2000E+01
    -13.719  0.0000E+00  0.2000E+01
    -13.647  0.0000E+00  0.2000E+01
    -13.575  0.0000E+00  0.2000E+01
    -13.503  0.0000E+00  0.2000E+01
    -13.431  0.0000E+00  0.2000E+01
    -13.359  0.0000E+00  0.2000E+01
    -13.287  0.0000E+00  0.2000E+01
    -13.215  0.0000E+00  0.2000E+01
    -13.143  0.0000E+00  0.2000E+01
    -13.071  0.0000E+00  0.2000E+01
    -12.999  0.0000E+00  0.2000E+01
    -12.927  0.0000E+00  0.2000E+01
    -12.855  0.0000E+00  0.2000E+01
    -12.783  0.0000E+00  0.2000E+01
    -12.711  0.0000E+00  0.2000E+01
    -12.639  0.0000E+00  0.2000E+01
    -12.567  0.0000E+00  0.2000E+01
    -12.495  0.0000E+00  0.2000E+01
    -12.423  0.0000E+00  0.2000E+01
    -12.351  0.0000E+00  0.2000E+01
    -12.279  0.0000E+00  0.2000E+01
    -12.207  0.0000E+00  0.2000E+01
    -12.135  0.0000E+00  0.2000E+01
    -12.063  0.0000E+00  0.2000E+01
    -11.991  0.0000E+00  0.2000E+01
    -11.919  0.0000E+00  0.2000E+01
    -11.847  0.0000E+00  0.2000E+01
    -11.775  0.0000E+00  0.2000E+01
    -11.702  0.0000E+00  0.2000E+01
    -11.630  0.0000E+00  0.2000E+01
    -11.558  0.0000E+00  0.2000E+01
    -11.486  0.0000E+00  0.2000E+01
    -11.414  0.0000E+00  0.2000E+01
    -11.342  0.0000E+00  0.2000E+01
    -11.270  0.0000E+00  0.2000E+01
    -11.198 -0.1674E-27  0.2000E+01
    -11.126 -0.5357E-25  0.2000E+01
    -11.054 -0.1323E-22  0.2000E+01
    -10.982 -0.2512E-20  0.2000E+01
    -10.910 -0.3671E-18  0.2000E+01
    -10.838 -0.4126E-16  0.2000E+01
    -10.766 -0.3563E-14  0.2000E+01
    -10.694 -0.2287E-12  0.2000E+01
    -10.622 -0.1163E-10  0.2000E+01
    -10.550 -0.4516E-09  0.2000E+01
    -10.478 -0.1342E-07  0.2000E+01
    -10.406 -0.3046E-06  0.2000E+01
    -10.334 -0.5264E-05  0.2000E+01
    -10.262 -0.6903E-04  0.2000E+01
    -10.190 -0.6832E-03  0.2000E+01
    -10.118 -0.5061E-02  0.2000E+01
    -10.046 -0.2768E-01  0.1998E+01
     -9.974 -0.1090E+00  0.1990E+01
     -9.902 -0.2931E+00  0.1969E+01
     -9.830 -0.4542E+00  0.1936E+01
     -9.758 -0.1938E-01  0.1935E+01
     -9.685  0.1818E+01  0.2065E+01
     -9.613  0.4948E+01  0.2422E+01
     -9.541  0.7737E+01  0.2979E+01
     -9.469  0.8768E+01  0.3611E+01
     -9.397  0.8644E+01  0.4234E+01
     -9.325  0.8462E+01  0.4843E+01
     -9.253  0.7941E+01  0.5415E+01
     -9.181  0.7002E+01  0.5920E+01
     -9.109  0.6916E+01  0.6418E+01
     -9.037  0.7817E+01  0.6981E+01
     -8.965  0.7651E+01  0.7532E+01
     -8.893  0.5240E+01  0.7910E+01
     -8.821  0.2073E+01  0.8059E+01
     -8.749  0.8428E-01  0.8065E+01
     -8.677 -0.4432E+00  0.8033E+01
     -8.605 -0.3049E+00  0.8011E+01
     -8.533 -0.1170E+00  0.8003E+01
     -8.461 -0.3037E-01  0.8000E+01
     -8.389 -0.5662E-02  0.8000E+01
     -8.317 -0.7784E-03  0.8000E+01
     -8.245 -0.8005E-04  0.8000E+01
     -8.173 -0.6209E-05  0.8000E+01
     -8.101 -0.3654E-06  0.8000E+01
     -8.029 -0.1637E-07  0.8000E+01
     -7.957 -0.5598E-09  0.8000E+01
     -7.885 -0.1465E-10  0.8000E+01
     -7.813 -0.2913E-12  0.8000E+01
     -7.741 -0.6165E-14  0.8000E+01
     -7.668  0.0000E+00  0.8000E+01
     -7.596  0.0000E+00  0.8000E+01
     -7.524  0.0000E+00  0.8000E+01
     -7.452  0.0000E+00  0.8000E+01
     -7.380  0.0000E+00  0.8000E+01
     -7.308  0.0000E+00  0.8000E+01
     -7.236  0.0000E+00  0.8000E+01
     -7.164  0.0000E+00  0.8000E+01
     -7.092  0.0000E+00  0.8000E+01
     -7.020  0.0000E+00  0.8000E+01
     -6.948  0.0000E+00  0.8000E+01
     -6.876  0.0000E+00  0.8000E+01
     -6.804  0.0000E+00  0.8000E+01
     -6.732  0.0000E+00  0.8000E+01
     -6.660  0.0000E+00  0.8000E+01
     -6.588  0.0000E+00  0.8000E+01
     -6.516  0.0000E+00  0.8000E+01
     -6.444  0.0000E+00  0.8000E+01
     -6.372  0.0000E+00  0.8000E+01
     -6.300  0.0000E+00  0.8000E+01
     -6.228  0.0000E+00  0.8000E+01
     -6.156  0.0000E+00  0.8000E+01
     -6.084  0.0000E+00  0.8000E+01
     -6.012  0.0000E+00  0.8000E+01
     -5.940  0.0000E+00  0.8000E+01
     -5.868  0.0000E+00  0.8000E+01
     -5.796  0.0000E+00  0.8000E+01
     -5.724  0.0000E+00  0.8000E+01
     -5.651  0.0000E+00  0.8000E+01
     -5.579  0.0000E+00  0.8000E+01
     -5.507  0.0000E+00  0.8000E+01
     -5.435  0.0000E+00  0.8000E+01
     -5.363  0.0000E+00  0.8000E+01
     -5.291  0.0000E+00  0.8000E+01
     -5.219  0.0000E+00  0.8000E+01
     -5.147  0.0000E+00  0.8000E+01
     -5.075  0.0000E+00  0.8000E+01
     -5.003  0.0000E+00  0.8000E+01
     -4.931  0.0000E+00  0.8000E+01
     -4.859  0.0000E+00  0.8000E+01
     -4.787  0.0000E+00  0.8000E+01
     -4.715  0.0000E+00  0.8000E+01
     -4.643  0.0000E+00  0.8000E+01
     -4.571  0.0000E+00  0.8000E+01
     -4.499  0.0000E+00  0.8000E+01
     -4.427  0.0000E+00  0.8000E+01
     -4.355  0.0000E+00  0.8000E+01
     -4.283  0.0000E+00  0.8000E+01
     -4.211  0.0000E+00  0.8000E+01
     -4.139  0.0000E+00  0.8000E+01
     -4.067  0.0000E+00  0.8000E+01
     -3.995  0.0000E+00  0.8000E+01
     -3.923  0.0000E+00  0.8000E+01
     -3.851  0.0000E+00  0.8000E+01
     -3.779  0.0000E+00  0.8000E+01
     -3.707  0.0000E+00  0.8000E+01
     -3.634  0.0000E+00  0.8000E+01
     -3.562  0.0000E+00  0.8000E+01
     -3.490  0.0000E+00  0.8000E+01
     -3.418  0.0000E+00  0.8000E+01
     -3.346  0.0000E+00  0.8000E+01
     -3.274  0.0000E+00  0.8000E+01
     -3.202  0.0000E+00  0.8000E+01
     -3.130  0.0000E+00  0.8000E+01