    5    5    1    1
  0.2034678E+03  0.1001649E-08  0.9923078E-09  0.1023565E-08  0.2000000E-14
   50.000000000000000     
  CAR 
 unknown system                          
      8      4      8

  0.2500000E+00  0.2500000E+00  0.2500000E+00  0.2500000E+00
    1      -17.038774   1.000000
    2       -9.509756   1.002072
    3       -9.281051   1.035456
    4       -9.178247   0.962426
    5       -0.299478   0.000000
    6        0.552770   0.000000
    7        0.674286   0.000000
    8        0.691286   0.000000

 -0.2500000E+00  0.2500000E+00  0.2500000E+00  0.2500000E+00
    1      -17.038757   1.000000
    2       -9.509864   1.002068
    3       -9.281089   1.035456
    4       -9.178236   0.962406
    5       -0.300583   0.000000
    6        0.556829   0.000000
    7        0.659329   0.000000
    8        0.701571   0.000000

  0.2500000E+00 -0.2500000E+00  0.2500000E+00  0.2500000E+00
    1      -17.038684   1.000000
    2       -9.509807   1.002070
    3       -9.281139   1.035457
    4       -9.178261   0.962449
    5       -0.300548   0.000000
    6        0.553411   0.000000
    7        0.670292   0.000000
    8        0.697066   0.000000

 -0.2500000E+00 -0.2500000E+00  0.2500000E+00  0.2500000E+00
    1      -17.038803   1.000000
    2       -9.509914   1.002066
    3       -9.281163   1.035457
    4       -9.178360   0.962617
    5       -0.298206   0.000000
    6        0.550212   0.000000
    7        0.672740   0.000000
    8        0.683897   0.000000
