       N       E                     dE             d eps       ncg     rms          rms(c)
DAV:   1     0.151664840560E+02    0.15166E+02   -0.19476E+03    96   0.417E+02
DAV:   2    -0.227065610500E+02   -0.37873E+02   -0.37880E+02    64   0.114E+02
DAV:   3    -0.272613766349E+02   -0.45548E+01   -0.45641E+01    64   0.465E+01
DAV:   4    -0.274461801098E+02   -0.18480E+00   -0.18474E+00   128   0.105E+01
DAV:   5    -0.274462382297E+02   -0.58120E-04   -0.58119E-04    96   0.213E-01    0.861E+00
RMM:   6    -0.246261971587E+02    0.28200E+01   -0.52118E+00    64   0.139E+01    0.425E+00
RMM:   7    -0.241469788906E+02    0.47922E+00   -0.11557E+00    64   0.620E+00    0.228E+00
RMM:   8    -0.240152747722E+02    0.13170E+00   -0.13570E-01    64   0.255E+00    0.826E-01
RMM:   9    -0.239973419052E+02    0.17933E-01   -0.19688E-02    64   0.102E+00    0.274E-01
RMM:  10    -0.239953635984E+02    0.19783E-02   -0.32429E-03    64   0.341E-01    0.188E-01
RMM:  11    -0.239944034598E+02    0.96014E-03   -0.65010E-03    64   0.426E-01    0.154E-01
RMM:  12    -0.239909258085E+02    0.34777E-02   -0.16175E-03    64   0.287E-01    0.698E-02
RMM:  13    -0.239910893810E+02   -0.16357E-03   -0.64458E-04    64   0.188E-01    0.441E-02
RMM:  14    -0.239981998395E+02   -0.71105E-02   -0.15021E-03    64   0.197E-01    0.331E-02
RMM:  15    -0.240000888926E+02   -0.18891E-02   -0.31901E-04    64   0.116E-01    0.311E-02
RMM:  16    -0.240018336915E+02   -0.17448E-02   -0.54014E-04    64   0.133E-01    0.276E-02
RMM:  17    -0.240023248824E+02   -0.49119E-03   -0.76227E-05    64   0.511E-02    0.100E-02
RMM:  18    -0.240025752169E+02   -0.25033E-03   -0.14808E-04    64   0.713E-02    0.233E-02
RMM:  19    -0.240025856957E+02   -0.10479E-04   -0.28204E-05    64   0.322E-02    0.494E-03
RMM:  20    -0.240026114714E+02   -0.25776E-04   -0.11156E-05    64   0.212E-02    0.197E-03
RMM:  21    -0.240026158666E+02   -0.43952E-05   -0.39850E-07    48   0.490E-03    0.117E-03
RMM:  22    -0.240026184085E+02   -0.25420E-05   -0.54680E-07    48   0.448E-03    0.414E-04
RMM:  23    -0.240026187454E+02   -0.33684E-06   -0.58290E-08    44   0.193E-03
    1 T=    58. E= -.23972664E+02 F= -.24002619E+02 E0= -.24015247E+02  EK= 0.29953E-01 SP= 0.00E+00 SK= 0.20E-05
       N       E                     dE             d eps       ncg     rms          rms(c)
DAV:   1    -0.239999327386E+02    0.26857E-02   -0.15455E+00    64   0.109E+01    0.589E-01
RMM:   2    -0.239925049974E+02    0.74277E-02   -0.43310E-02    64   0.149E+00    0.337E-01
RMM:   3    -0.239927128273E+02   -0.20783E-03   -0.17762E-02    64   0.797E-01    0.288E-01
RMM:   4    -0.239902133900E+02    0.24994E-02   -0.56907E-03    64   0.453E-01    0.229E-01
RMM:   5    -0.239902102748E+02    0.31151E-05   -0.12700E-02    64   0.686E-01    0.287E-01
RMM:   6    -0.239890989460E+02    0.11113E-02   -0.60260E-03    64   0.465E-01    0.202E-01
RMM:   7    -0.239888934875E+02    0.20546E-03   -0.28620E-03    64   0.330E-01    0.201E-01
RMM:   8    -0.239877730857E+02    0.11204E-02   -0.16849E-03    64   0.244E-01    0.117E-01
RMM:   9    -0.239875130300E+02    0.26006E-03   -0.20853E-03    64   0.283E-01    0.109E-01
RMM:  10    -0.239875275961E+02   -0.14566E-04   -0.10139E-03    64   0.208E-01    0.113E-01
RMM:  11    -0.239872969445E+02    0.23065E-03   -0.13000E-03    64   0.210E-01    0.324E-02
RMM:  12    -0.239873406866E+02   -0.43742E-04   -0.83266E-05    64   0.644E-02    0.195E-02
RMM:  13    -0.239873806203E+02   -0.39934E-04   -0.22870E-04    64   0.895E-02    0.243E-02
RMM:  14    -0.239873791156E+02    0.15047E-05   -0.14186E-05    64   0.241E-02    0.131E-02
RMM:  15    -0.239873939565E+02   -0.14841E-04   -0.22057E-05    64   0.279E-02    0.763E-03
RMM:  16    -0.239873999197E+02   -0.59632E-05   -0.79647E-06    64   0.175E-02    0.389E-03
RMM:  17    -0.239874034056E+02   -0.34859E-05   -0.59368E-07    48   0.563E-03    0.227E-03
RMM:  18    -0.239874052799E+02   -0.18743E-05   -0.98773E-07    48   0.662E-03    0.472E-03
RMM:  19    -0.239874054547E+02   -0.17472E-06   -0.44924E-07    48   0.472E-03
    2 T=    58. E= -.23957040E+02 F= -.23987405E+02 E0= -.24000206E+02  EK= 0.30246E-01 SP= 0.10E-03 SK= 0.19E-04
       N       E                     dE             d eps       ncg     rms          rms(c)
DAV:   1    -0.239836930832E+02    0.37122E-02   -0.13512E+00    64   0.103E+01    0.868E-01
RMM:   2    -0.239898839847E+02   -0.61909E-02   -0.29994E-01    64   0.322E+00    0.902E-01
RMM:   3    -0.239644015902E+02    0.25482E-01   -0.75976E-02    64   0.167E+00    0.451E-01
RMM:   4    -0.239629681545E+02    0.14334E-02   -0.34992E-02    64   0.117E+00    0.264E-01
RMM:   5    -0.239609354190E+02    0.20327E-02   -0.46584E-03    64   0.473E-01    0.140E-01
RMM:   6    -0.239610248688E+02   -0.89450E-04   -0.19056E-03    64   0.272E-01    0.143E-01
RMM:   7    -0.239613450389E+02   -0.32017E-03   -0.45466E-03    64   0.390E-01    0.143E-01
RMM:   8    -0.239611723114E+02    0.17273E-03   -0.30849E-04    64   0.133E-01    0.115E-01
RMM:   9    -0.239609087379E+02    0.26357E-03   -0.41864E-04    64   0.123E-01    0.687E-02
RMM:  10    -0.239608684424E+02    0.40296E-04   -0.10859E-04    64   0.678E-02    0.517E-02
RMM:  11    -0.239608232659E+02    0.45176E-04   -0.16820E-04    64   0.798E-02    0.273E-02
RMM:  12    -0.239608151591E+02    0.81068E-05   -0.39793E-05    64   0.420E-02    0.189E-02
RMM:  13    -0.239608194192E+02   -0.42601E-05   -0.25515E-05    64   0.322E-02    0.126E-02
RMM:  14    -0.239608228327E+02   -0.34136E-05   -0.85855E-06    64   0.193E-02    0.777E-03
RMM:  15    -0.239608257759E+02   -0.29432E-05   -0.52722E-06    64   0.146E-02    0.396E-03
RMM:  16    -0.239608277413E+02   -0.19654E-05   -0.13342E-06    48   0.849E-03    0.205E-03
RMM:  17    -0.239608284418E+02   -0.70056E-06   -0.85210E-07    48   0.724E-03
    3 T=    65. E= -.23926597E+02 F= -.23960828E+02 E0= -.23965494E+02  EK= 0.33847E-01 SP= 0.31E-03 SK= 0.75E-04
       N       E                     dE             d eps       ncg     rms          rms(c)
DAV:   1    -0.239990698990E+02   -0.38242E-01   -0.97486E-01    64   0.963E+00    0.104E+00
RMM:   2    -0.240194499033E+02   -0.20380E-01   -0.38873E-01    64   0.378E+00    0.117E+00
RMM:   3    -0.239702018360E+02    0.49248E-01   -0.19909E-01    64   0.254E+00    0.327E-01
RMM:   4    -0.239722065761E+02   -0.20047E-02   -0.51737E-02    64   0.142E+00    0.287E-01
RMM:   5    -0.239707190551E+02    0.14875E-02   -0.10681E-02    64   0.635E-01    0.189E-01
RMM:   6    -0.239702747756E+02    0.44428E-03   -0.18551E-03    64   0.285E-01    0.130E-01
RMM:   7    -0.239700606219E+02    0.21415E-03   -0.78594E-04    64   0.178E-01    0.997E-02
RMM:   8    -0.239699904496E+02    0.70172E-04   -0.37805E-04    64   0.125E-01    0.737E-02
RMM:   9    -0.239698942860E+02    0.96164E-04   -0.41354E-04    64   0.130E-01    0.379E-02
RMM:  10    -0.239699139947E+02   -0.19709E-04   -0.45602E-05    64   0.476E-02    0.268E-02
RMM:  11    -0.239699310191E+02   -0.17024E-04   -0.41761E-05    64   0.427E-02    0.143E-02
RMM:  12    -0.239699359731E+02   -0.49541E-05   -0.10129E-05    64   0.209E-02    0.782E-03
RMM:  13    -0.239699387217E+02   -0.27485E-05   -0.94607E-06    64   0.198E-02    0.213E-03
RMM:  14    -0.239699396371E+02   -0.91542E-06   -0.60080E-07    48   0.633E-03
    4 T=    76. E= -.23929843E+02 F= -.23969940E+02 E0= -.23973864E+02  EK= 0.39123E-01 SP= 0.72E-03 SK= 0.26E-03
       N       E                     dE             d eps       ncg     rms          rms(c)
DAV:   1    -0.239478300758E+02    0.22109E-01   -0.37664E-01    64   0.626E+00    0.323E-01
RMM:   2    -0.239530368981E+02   -0.52068E-02   -0.39664E-02    64   0.150E+00    0.496E-01
RMM:   3    -0.239693102652E+02   -0.16273E-01   -0.23913E-02    64   0.979E-01    0.772E-01
RMM:   4    -0.239485799279E+02    0.20730E-01   -0.52405E-02    64   0.144E+00    0.238E-01
RMM:   5    -0.239473022554E+02    0.12777E-02   -0.36464E-03    64   0.399E-01    0.150E-01
RMM:   6    -0.239473658906E+02   -0.63635E-04   -0.42344E-03    64   0.393E-01    0.653E-02
RMM:   7    -0.239474971908E+02   -0.13130E-03   -0.39194E-04    64   0.140E-01    0.512E-02
RMM:   8    -0.239475766571E+02   -0.79466E-04   -0.49838E-04    64   0.129E-01    0.161E-02
RMM:   9    -0.239475858311E+02   -0.91740E-05   -0.15207E-05    64   0.294E-02    0.753E-03
RMM:  10    -0.239476069864E+02   -0.21155E-04   -0.62627E-05    64   0.451E-02    0.162E-02
RMM:  11    -0.239476085648E+02   -0.15784E-05   -0.23654E-05    64   0.283E-02    0.573E-03
RMM:  12    -0.239476126731E+02   -0.41082E-05   -0.37718E-06    60   0.132E-02    0.523E-03
RMM:  13    -0.239476128981E+02   -0.22505E-06   -0.35230E-07    48   0.475E-03
    5 T=    58. E= -.23915727E+02 F= -.23947613E+02 E0= -.23951481E+02  EK= 0.29952E-01 SP= 0.15E-02 SK= 0.48E-03
       N       E                     dE             d eps       ncg     rms          rms(c)
DAV:   1    -0.239818614804E+02   -0.34249E-01   -0.41888E-01    64   0.646E+00    0.371E-01
RMM:   2    -0.239894354496E+02   -0.75740E-02   -0.46814E-02    64   0.158E+00    0.569E-01
RMM:   3    -0.239872832550E+02    0.21522E-02   -0.67350E-02    64   0.159E+00    0.393E-01
RMM:   4    -0.239837436471E+02    0.35396E-02   -0.13769E-02    64   0.737E-01    0.236E-01
RMM:   5    -0.239819738481E+02    0.17698E-02   -0.47190E-03    64   0.426E-01    0.740E-02
RMM:   6    -0.239819243647E+02    0.49483E-04   -0.67339E-04    64   0.181E-01    0.431E-02
RMM:   7    -0.239819206133E+02    0.37514E-05   -0.16822E-04    64   0.828E-02    0.233E-02
RMM:   8    -0.239819223598E+02   -0.17464E-05   -0.52474E-05    64   0.489E-02    0.117E-02
RMM:   9    -0.239819280932E+02   -0.57335E-05   -0.20242E-05    64   0.293E-02    0.344E-03
RMM:  10    -0.239819334990E+02   -0.54058E-05   -0.27091E-06    52   0.125E-02    0.225E-03
RMM:  11    -0.239819354402E+02   -0.19412E-05   -0.79809E-07    48   0.682E-03    0.870E-04
RMM:  12    -0.239819359248E+02   -0.48467E-06   -0.39961E-07    48   0.506E-03
    6 T=   128. E= -.23911865E+02 F= -.23981936E+02 E0= -.23986032E+02  EK= 0.66367E-01 SP= 0.23E-02 SK= 0.14E-02
       N       E                     dE             d eps       ncg     rms          rms(c)
DAV:   1    -0.239618946192E+02    0.20041E-01   -0.83503E-01    64   0.899E+00    0.788E-01
RMM:   2    -0.239832824991E+02   -0.21388E-01   -0.10715E-01    64   0.219E+00    0.964E-01
RMM:   3    -0.239771700471E+02    0.61125E-02   -0.15369E-01    64   0.247E+00    0.558E-01
RMM:   4    -0.239622352712E+02    0.14935E-01   -0.16340E-02    64   0.852E-01    0.621E-01
RMM:   5    -0.239519823993E+02    0.10253E-01   -0.92836E-03    64   0.591E-01    0.300E-01
RMM:   6    -0.239595963058E+02   -0.76139E-02   -0.13114E-02    64   0.743E-01    0.845E-01
RMM:   7    -0.239520870909E+02    0.75092E-02   -0.83363E-03    64   0.588E-01    0.304E-01
RMM:   8    -0.239520000103E+02    0.87081E-04   -0.19300E-03    64   0.291E-01    0.197E-01
RMM:   9    -0.239516965866E+02    0.30342E-03   -0.51825E-04    64   0.147E-01    0.892E-02
RMM:  10    -0.239519615457E+02   -0.26496E-03   -0.51791E-04    64   0.142E-01    0.154E-01
RMM:  11    -0.239517214830E+02    0.24006E-03   -0.35065E-04    64   0.118E-01    0.557E-02
RMM:  12    -0.239517687121E+02   -0.47229E-04   -0.10743E-04    64   0.674E-02    0.410E-02
RMM:  13    -0.239517462049E+02    0.22507E-04   -0.22128E-05    64   0.308E-02    0.265E-02
RMM:  14    -0.239517530825E+02   -0.68776E-05   -0.15090E-05    64   0.242E-02    0.163E-02
RMM:  15    -0.239517582846E+02   -0.52021E-05   -0.24361E-06    52   0.117E-02    0.551E-03
RMM:  16    -0.239517611802E+02   -0.28956E-05   -0.11120E-06    48   0.760E-03    0.140E-03
RMM:  17    -0.239517636282E+02   -0.24480E-05   -0.25682E-07    48   0.397E-03    0.353E-03
RMM:  18    -0.239517643634E+02   -0.73522E-06   -0.12978E-07    48   0.258E-03
    7 T=   162. E= -.23858872E+02 F= -.23951764E+02 E0= -.23964079E+02  EK= 0.83584E-01 SP= 0.41E-02 SK= 0.52E-02
       N       E                     dE             d eps       ncg     rms          rms(c)
DAV:   1    -0.239282295621E+02    0.23534E-01   -0.19753E+00    64   0.131E+01    0.941E-01
RMM:   2    -0.240154571993E+02   -0.87228E-01   -0.61626E-01    64   0.481E+00    0.166E+00
RMM:   3    -0.239578321039E+02    0.57625E-01   -0.44731E-01    64   0.376E+00    0.112E+00
RMM:   4    -0.239392244338E+02    0.18608E-01   -0.16338E-02    64   0.970E-01    0.804E-01
RMM:   5    -0.239218177665E+02    0.17407E-01   -0.46466E-02    64   0.127E+00    0.388E-01
RMM:   6    -0.239201793894E+02    0.16384E-02   -0.40466E-03    64   0.426E-01    0.293E-01
RMM:   7    -0.239190166850E+02    0.11627E-02   -0.28389E-03    64   0.339E-01    0.195E-01
RMM:   8    -0.239181268318E+02    0.88985E-03   -0.20269E-03    64   0.290E-01    0.100E-01
RMM:   9    -0.239180499224E+02    0.76909E-04   -0.39600E-04    64   0.131E-01    0.736E-02
RMM:  10    -0.239179818201E+02    0.68102E-04   -0.11205E-04    64   0.734E-02    0.521E-02
RMM:  11    -0.239179737759E+02    0.80442E-05   -0.13042E-04    64   0.695E-02    0.399E-02
RMM:  12    -0.239179597422E+02    0.14034E-04   -0.42056E-05    64   0.404E-02    0.276E-02
RMM:  13    -0.239179512421E+02    0.85001E-05   -0.37274E-05    64   0.372E-02    0.169E-02
RMM:  14    -0.239179486293E+02    0.26128E-05   -0.10808E-05    64   0.212E-02    0.107E-02
RMM:  15    -0.239179502628E+02   -0.16335E-05   -0.14511E-06    48   0.898E-03    0.873E-03
RMM:  16    -0.239179505813E+02   -0.31849E-06   -0.23624E-06    52   0.102E-02
    8 T=   160. E= -.23815130E+02 F= -.23917951E+02 E0= -.23921858E+02  EK= 0.82884E-01 SP= 0.74E-02 SK= 0.13E-01
       N       E                     dE             d eps       ncg     rms          rms(c)
DAV:   1    -0.239319578847E+02   -0.14008E-01   -0.17936E+00    64   0.130E+01    0.467E-01
RMM:   2    -0.239843145618E+02   -0.52357E-01   -0.22213E-01    64   0.311E+00    0.106E+00
RMM:   3    -0.239778294444E+02    0.64851E-02   -0.65702E-02    64   0.161E+00    0.116E+00
RMM:   4    -0.239411856269E+02    0.36644E-01   -0.53860E-02    64   0.148E+00    0.495E-01
RMM:   5    -0.239355822337E+02    0.56034E-02   -0.14583E-02    64   0.768E-01    0.332E-01
RMM:   6    -0.239349432957E+02    0.63894E-03   -0.44160E-03    64   0.405E-01    0.258E-01
RMM:   7    -0.239339954839E+02    0.94781E-03   -0.91768E-04    64   0.205E-01    0.206E-01
RMM:   8    -0.239328520488E+02    0.11434E-02   -0.18333E-03    64   0.266E-01    0.119E-01
RMM:   9    -0.239325162720E+02    0.33578E-03   -0.67164E-04    64   0.162E-01    0.688E-02
RMM:  10    -0.239324134935E+02    0.10278E-03   -0.34463E-04    64   0.121E-01    0.270E-02
RMM:  11    -0.239324229789E+02   -0.94854E-05   -0.77423E-05    64   0.585E-02    0.139E-02
RMM:  12    -0.239324408218E+02   -0.17843E-04   -0.10621E-05    64   0.230E-02    0.976E-03
RMM:  13    -0.239324491978E+02   -0.83761E-05   -0.42991E-06    64   0.138E-02    0.714E-03
RMM:  14    -0.239324512384E+02   -0.20405E-05   -0.33418E-06    60   0.116E-02    0.542E-03
RMM:  15    -0.239324524673E+02   -0.12290E-05   -0.12979E-06    48   0.807E-03    0.311E-03
RMM:  16    -0.239324529929E+02   -0.52561E-06   -0.56259E-07    48   0.602E-03
    9 T=   148. E= -.23821433E+02 F= -.23932453E+02 E0= -.23936423E+02  EK= 0.76588E-01 SP= 0.12E-01 SK= 0.22E-01
       N       E                     dE             d eps       ncg     rms          rms(c)
DAV:   1    -0.240117246376E+02   -0.79272E-01   -0.13423E+00    64   0.114E+01    0.626E-01
RMM:   2    -0.240297857378E+02   -0.18061E-01   -0.11331E-01    64   0.241E+00    0.718E-01
RMM:   3    -0.240303080771E+02   -0.52234E-03   -0.20846E-01    64   0.281E+00    0.874E-01
RMM:   4    -0.240178230934E+02    0.12485E-01   -0.16675E-01    64   0.246E+00    0.845E-01
RMM:   5    -0.240115806154E+02    0.62425E-02   -0.30917E-02    64   0.114E+00    0.430E-01
RMM:   6    -0.240140361601E+02   -0.24555E-02   -0.30113E-02    64   0.106E+00    0.366E-01
RMM:   7    -0.240128472119E+02    0.11889E-02   -0.25581E-03    64   0.346E-01    0.311E-01
RMM:   8    -0.240103167036E+02    0.25305E-02   -0.17512E-03    64   0.258E-01    0.259E-01
RMM:   9    -0.240090887867E+02    0.12279E-02   -0.95497E-04    64   0.197E-01    0.216E-01
RMM:  10    -0.240079374438E+02    0.11513E-02   -0.12169E-03    64   0.221E-01    0.141E-01
RMM:  11    -0.240076828767E+02    0.25457E-03   -0.28561E-04    64   0.112E-01    0.116E-01
RMM:  12    -0.240073749801E+02    0.30790E-03   -0.68819E-04    64   0.169E-01    0.607E-02
RMM:  13    -0.240073191182E+02    0.55862E-04   -0.28426E-04    64   0.109E-01    0.229E-02
RMM:  14    -0.240073396919E+02   -0.20574E-04   -0.41389E-05    64   0.457E-02    0.112E-02
RMM:  15    -0.240073622239E+02   -0.22532E-04   -0.12062E-05    64   0.235E-02    0.857E-03
RMM:  16    -0.240073712176E+02   -0.89937E-05   -0.27092E-06    52   0.115E-02    0.415E-03
RMM:  17    -0.240073748613E+02   -0.36437E-05   -0.23381E-06    52   0.110E-02    0.166E-03
RMM:  18    -0.240073763103E+02   -0.14490E-05   -0.68807E-07    48   0.629E-03    0.142E-03
RMM:  19    -0.240073772478E+02   -0.93755E-06   -0.21188E-07    48   0.392E-03
   10 T=   230. E= -.23829857E+02 F= -.24007377E+02 E0= -.24017161E+02  EK= 0.11867E+00 SP= 0.18E-01 SK= 0.41E-01
