 vasp.5.4.4.18Apr17-6-g9f103f2a35 (build Jul 12 2018 13:43:46) complex           
 executed on             LinuxGNU date 2019.06.22  02:17:35
 running on    1 total cores
 distrk:  each k-point on    1 cores,    1 groups
 distr:  one band on NCORES_PER_BAND=   1 cores,    1 groups


--------------------------------------------------------------------------------------------------------


 INCAR:
 POTCAR:    PAW_PBE H 15Jun2001                   
 POTCAR:    PAW_PBE C 08Apr2002                   
 POTCAR:    PAW_PBE H 15Jun2001                   
   VRHFIN =H: ultrasoft test                                                    
   LEXCH  = PE                                                                  
   EATOM  =    12.4884 eV,    0.9179 Ry                                         
                                                                                
   TITEL  = PAW_PBE H 15Jun2001                                                 
   LULTRA =        F    use ultrasoft PP ?                                      
   IUNSCR =        0    unscreen: 0-lin 1-nonlin 2-no                           
   RPACOR =    0.000    partial core radius                                     
   POMASS =    1.000; ZVAL   =    1.000    mass and valenz                      
   RCORE  =    1.100    outmost cutoff radius                                   
   RWIGS  =    0.700; RWIGS  =    0.370    wigner-seitz radius (au A)           
   ENMAX  =  250.000; ENMIN  =  200.000 eV                                      
   RCLOC  =    0.701    cutoff for local pot                                    
   LCOR   =        T    correct aug charges                                     
   LPAW   =        T    paw PP                                                  
   EAUG   =  400.000                                                            
   RMAX   =    1.123    core radius for proj-oper                               
   RAUG   =    1.200    factor for augmentation sphere                          
   RDEP   =    1.112    radius for radial grids                                 
   RDEPT  =    0.926    core radius for aug-charge                              
                                                                                
   Atomic configuration                                                         
    2 entries                                                                   
     n  l   j            E        occ.                                          
     1  0  0.50        -6.4927   1.0000                                         
     2  1  0.50        -3.4015   0.0000                                         
   Description                                                                  
     l       E           TYP  RCUT    TYP  RCUT                                 
     0     -6.4927494     23  1.100                                             
     0      6.8029130     23  1.100                                             
     1     -4.0817478     23  1.100                                             
  local pseudopotential read in
  atomic valenz-charges read in
  non local Contribution for L=           0  read in
    real space projection operators read in
  non local Contribution for L=           0  read in
    real space projection operators read in
  non local Contribution for L=           1  read in
    real space projection operators read in
    PAW grid and wavefunctions read in

   number of l-projection  operators is LMAX  =           3
   number of lm-projection operators is LMMAX =           5

 POTCAR:    PAW_PBE C 08Apr2002                   
   VRHFIN =C: s2p2                                                              
   LEXCH  = PE                                                                  
   EATOM  =   147.1560 eV,   10.8157 Ry                                         
                                                                                
   TITEL  = PAW_PBE C 08Apr2002                                                 
   LULTRA =        F    use ultrasoft PP ?                                      
   IUNSCR =        1    unscreen: 0-lin 1-nonlin 2-no                           
   RPACOR =    1.200    partial core radius                                     
   POMASS =   12.011; ZVAL   =    4.000    mass and valenz                      
   RCORE  =    1.500    outmost cutoff radius                                   
   RWIGS  =    1.630; RWIGS  =    0.863    wigner-seitz radius (au A)           
   ENMAX  =  400.000; ENMIN  =  300.000 eV                                      
   ICORE  =        2    local potential                                         
   LCOR   =        T    correct aug charges                                     
   LPAW   =        T    paw PP                                                  
   EAUG   =  644.873                                                            
   DEXC   =    0.000                                                            
   RMAX   =    1.529    core radius for proj-oper                               
   RAUG   =    1.300    factor for augmentation sphere                          
   RDEP   =    1.501    radius for radial grids                                 
   RDEPT  =    1.300    core radius for aug-charge                              
                                                                                
   Atomic configuration                                                         
    4 entries                                                                   
     n  l   j            E        occ.                                          
     1  0  0.50      -273.3789   2.0000                                         
     2  0  0.50       -13.7508   2.0000                                         
     2  1  0.50        -5.2854   2.0000                                         
     3  2  1.50        -5.4423   0.0000                                         
   Description                                                                  
     l       E           TYP  RCUT    TYP  RCUT                                 
     0    -13.7508458     23  1.200                                             
     0     -8.2022199     23  1.200                                             
     1     -5.2854383     23  1.500                                             
     1     34.0145650     23  1.500                                             
     2     -5.4423304      7  1.500                                             
  local pseudopotential read in
  partial core-charges read in
  partial kinetic energy density read in
  atomic valenz-charges read in
  non local Contribution for L=           0  read in
    real space projection operators read in
  non local Contribution for L=           0  read in
    real space projection operators read in
  non local Contribution for L=           1  read in
    real space projection operators read in
  non local Contribution for L=           1  read in
    real space projection operators read in
    PAW grid and wavefunctions read in

   number of l-projection  operators is LMAX  =           4
   number of lm-projection operators is LMMAX =           8


 ----------------------------------------------------------------------------- 
|                                                                             |
|  ADVICE TO THIS USER RUNNING 'VASP/VAMP'   (HEAR YOUR MASTER'S VOICE ...):  |
|                                                                             |
|      You have a (more or less) 'small supercell' and for smaller cells      |
|      it is recommended  to use the reciprocal-space projection scheme!      |
|      The real space optimization is not  efficient for small cells and it   |
|      is also less accurate ...                                              |
|      Therefore set LREAL=.FALSE. in the  INCAR file                         |
|                                                                             |
 ----------------------------------------------------------------------------- 


 ----------------------------------------------------------------------------- 
|                                                                             |
|           W    W    AA    RRRRR   N    N  II  N    N   GGGG   !!!           |
|           W    W   A  A   R    R  NN   N  II  NN   N  G    G  !!!           |
|           W    W  A    A  R    R  N N  N  II  N N  N  G       !!!           |
|           W WW W  AAAAAA  RRRRR   N  N N  II  N  N N  G  GGG   !            |
|           WW  WW  A    A  R   R   N   NN  II  N   NN  G    G                |
|           W    W  A    A  R    R  N    N  II  N    N   GGGG   !!!           |
|                                                                             |
|     The real-space-projection scheme for the treatment of the nonlocal      |
|     pseudopotentials has been switched on -- but on file POTCAR I have      |
|     not found any entries signalling me that you have ever performed a      |
|     real-space optimization of all nonlocal projectors! BE WARNED that      |
|     a calculation using the real-space-projection scheme together with      |
|     nonlocal projectors which were not real-space-optimized (according      |
|     to the plane-wave-cutoff used in this calculation) might give more      |
|     or less inaccurate results                                              |
|     I hope you know what you are doing                                      |
|                                                                             |
 ----------------------------------------------------------------------------- 

  PAW_PBE H 15Jun2001                   :
 energy of atom  1       EATOM=  -12.4884
 kinetic energy error for atom=    0.0098 (will be added to EATOM!!)
  PAW_PBE C 08Apr2002                   :
 energy of atom  2       EATOM= -147.1560
 kinetic energy error for atom=    0.0288 (will be added to EATOM!!)


 POSCAR:  H  C                                   
  positions in cartesian coordinates
  No initial velocities read in
 exchange correlation table for  LEXCH =        8
   RHO(1)=    0.500       N(1)  =     2000
   RHO(2)=  100.500       N(2)  =     4000



--------------------------------------------------------------------------------------------------------


 ion  position               nearest neighbor table
   1  0.538  0.407  0.361-   5 1.11
   2  0.395  0.480  0.439-   5 1.09
   3  0.553  0.566  0.443-   5 1.10
   4  0.528  0.416  0.539-   5 1.11
   5  0.503  0.467  0.446-   2 1.09   3 1.10   1 1.11   4 1.11


IMPORTANT INFORMATION: All symmetrisations will be switched off!
NOSYMM: (Re-)initialisation of all symmetry stuff for point group C_1.




Automatic generation of k-mesh.
 generate k-points for:    2    2    2
Space group operators:
 irot       det(A)        alpha          n_x          n_y          n_z        tau_x        tau_y        tau_z
    1     1.000000     0.000000     1.000000     0.000000     0.000000     0.000000     0.000000     0.000000
 
 Subroutine IBZKPT returns following result:
 ===========================================
 
 Found      4 irreducible k-points:
 
 Following reciprocal coordinates:
            Coordinates               Weight
  0.250000  0.250000  0.250000      2.000000
 -0.250000  0.250000  0.250000      2.000000
  0.250000 -0.250000  0.250000      2.000000
 -0.250000 -0.250000  0.250000      2.000000
 
 Following cartesian coordinates:
            Coordinates               Weight
  0.024959  0.025283  0.024231      2.000000
 -0.024959  0.025105  0.024545      2.000000
  0.024959 -0.025105  0.024305      2.000000
 -0.024959 -0.025283  0.024619      2.000000
 


--------------------------------------------------------------------------------------------------------




 Dimension of arrays:
   k-points           NKPTS =      4   k-points in BZ     NKDIM =      4   number of bands    NBANDS=      8
   number of dos      NEDOS =    301   number of ions     NIONS =      5
   non local maximal  LDIM  =      4   non local SUM 2l+1 LMDIM =      8
   total plane-waves  NPLWV = 343000
   max r-space proj   IRMAX =    797   max aug-charges    IRDMAX=   4178
   dimension x,y,z NGX =    70 NGY =   70 NGZ =   70
   dimension x,y,z NGXF=   140 NGYF=  140 NGZF=  140
   support grid    NGXF=   140 NGYF=  140 NGZF=  140
   ions per type =               4   1
   NGX,Y,Z   is equivalent  to a cutoff of  11.62, 11.73, 11.37 a.u.
   NGXF,Y,Z  is equivalent  to a cutoff of  23.24, 23.45, 22.74 a.u.

 SYSTEM =  unknown system                          
 POSCAR =   H  C                                   

 Startparameter for this run:
   NWRITE =      2    write-flag & timer
   PREC   = a         normal or accurate (medium, high low for compatibility)
   ISTART =      0    job   : 0-new  1-cont  2-samecut
   ICHARG =      2    charge: 1-file 2-atom 10-const
   ISPIN  =      1    spin polarized calculation?
   LNONCOLLINEAR =      F non collinear calculations
   LSORBIT =      F    spin-orbit coupling
   INIWAV =      1    electr: 0-lowe 1-rand  2-diag
   LASPH  =      F    aspherical Exc in radial PAW
   METAGGA=      F    non-selfconsistent MetaGGA calc.

 Electronic Relaxation 1
   ENCUT  =  400.0 eV  29.40 Ry    5.42 a.u.  16.33 16.18 16.69*2*pi/ulx,y,z
   ENINI  =  400.0     initial cutoff
   ENAUG  =  644.9 eV  augmentation charge cutoff
   NELM   =     60;   NELMIN=  2; NELMDL= -5     # of ELM steps 
   EDIFF  = 0.1E-05   stopping-criterion for ELM
   LREAL  =      T    real-space projection
   NLSPLINE    = F    spline interpolate recip. space projectors
   LCOMPAT=      F    compatible to vasp.4.4
   GGA_COMPAT  = T    GGA compatible to vasp.4.4-vasp.4.6
   LMAXPAW     = -100 max onsite density
   LMAXMIX     =    2 max onsite mixed and CHGCAR
   VOSKOWN=      0    Vosko Wilk Nusair interpolation
   ROPT   =    0.00000   0.00000
 Ionic relaxation
   EDIFFG = 0.1E-04   stopping-criterion for IOM
   NSW    =     10    number of steps for IOM
   NBLOCK =      1;   KBLOCK =      1    inner block; outer block 
   IBRION =      0    ionic relax: 0-MD 1-quasi-New 2-CG
   NFREE  =      0    steps in history (QN), initial steepest desc. (CG)
   ISIF   =      2    stress and relaxation
   IWAVPR =     12    prediction:  0-non 1-charg 2-wave 3-comb
   ISYM   =      0    0-nonsym 1-usesym 2-fastsym
   LCORR  =      T    Harris-Foulkes like correction to forces

   POTIM  = 2.0000    time-step for ionic-motion
   TEIN   =   50.0    initial temperature
   TEBEG  =   50.0;   TEEND  =  50.0 temperature during run
   SMASS  =   0.00    Nose mass-parameter (am)
   estimated Nose-frequenzy (Omega)   =  0.79E+14 period in steps = 40.00 mass=   0.123E-29a.u.
   SCALEE = 1.0000    scale energy and forces
   NPACO  =    256;   APACO  = 16.0  distance and # of slots for P.C.
   PSTRESS=    0.0 pullay stress

  Mass of Ions in am
   POMASS =   1.00 12.01
  Ionic Valenz
   ZVAL   =   1.00  4.00
  Atomic Wigner-Seitz radii
   RWIGS  =  -1.00 -1.00
  virtual crystal weights 
   VCA    =   1.00  1.00
   NELECT =       8.0000    total number of electrons
   NUPDOWN=      -1.0000    fix difference up-down

 DOS related values:
   EMIN   =  10.00;   EMAX   =-10.00  energy-range for DOS
   EFERMI =   0.00
   ISMEAR =     1;   SIGMA  =   0.20  broadening in eV -4-tet -1-fermi 0-gaus

 Electronic relaxation 2 (details)
   IALGO  =     68    algorithm
   LDIAG  =      T    sub-space diagonalisation (order eigenvalues)
   LSUBROT=      F    optimize rotation matrix (better conditioning)
   TURBO    =      0    0=normal 1=particle mesh
   IRESTART =      0    0=no restart 2=restart with 2 vectors
   NREBOOT  =      0    no. of reboots
   NMIN     =      0    reboot dimension
   EREF     =   0.00    reference energy to select bands
   IMIX   =      4    mixing-type and parameters
     AMIX     =   0.40;   BMIX     =  1.00
     AMIX_MAG =   1.60;   BMIX_MAG =  1.00
     AMIN     =   0.10
     WC   =   100.;   INIMIX=   1;  MIXPRE=   1;  MAXMIX=  50

 Intra band minimization:
   WEIMIN = 0.0010     energy-eigenvalue tresh-hold
   EBREAK =  0.31E-07  absolut break condition
   DEPER  =   0.30     relativ break condition  

   TIME   =   0.40     timestep for ELM

  volume/ion in A,a.u.               =     203.47      1373.07
  Fermi-wavevector in a.u.,A,eV,Ry     =   0.325549  0.615198  1.441974  0.105982
  Thomas-Fermi vector in A             =   1.216640

 Write flags
   LWAVE        =      F    write WAVECAR
   LDOWNSAMPLE  =      F    k-point downsampling of WAVECAR
   LCHARG       =      F    write CHGCAR
   LVTOT        =      F    write LOCPOT, total local potential
   LVHAR        =      F    write LOCPOT, Hartree potential only
   LELF         =      F    write electronic localiz. function (ELF)
   LORBIT       =      0    0 simple, 1 ext, 2 COOP (PROOUT), +10 PAW based schemes


 Dipole corrections
   LMONO  =      F    monopole corrections only (constant potential shift)
   LDIPOL =      F    correct potential (dipole corrections)
   IDIPOL =      0    1-x, 2-y, 3-z, 4-all directions 
   EPSILON=  1.0000000 bulk dielectric constant

 Exchange correlation treatment:
   GGA     =    --    GGA type
   LEXCH   =     8    internal setting for exchange type
   VOSKOWN=      0    Vosko Wilk Nusair interpolation
   LHFCALC =     F    Hartree Fock is set to
   LHFONE  =     F    Hartree Fock one center treatment
   AEXX    =    0.0000 exact exchange contribution

 Linear response parameters
   LEPSILON=     F    determine dielectric tensor
   LRPA    =     F    only Hartree local field effects (RPA)
   LNABLA  =     F    use nabla operator in PAW spheres
   LVEL    =     F    velocity operator in full k-point grid
   LINTERFAST=   F  fast interpolation
   KINTER  =     0    interpolate to denser k-point grid
   CSHIFT  =0.1000    complex shift for real part using Kramers Kronig
   OMEGAMAX=  -1.0    maximum frequency
   DEG_THRESHOLD= 0.2000000E-02 threshold for treating states as degnerate
   RTIME   =   -0.100 relaxation time in fs
  (WPLASMAI=    0.000 imaginary part of plasma frequency in eV, 0.658/RTIME)
   DFIELD  = 0.0000000 0.0000000 0.0000000 field for delta impulse in time

 Orbital magnetization related:
   ORBITALMAG=     F  switch on orbital magnetization
   LCHIMAG   =     F  perturbation theory with respect to B field
   DQ        =  0.001000  dq finite difference perturbation B field
   LLRAUG    =     F  two centre corrections for induced B field



--------------------------------------------------------------------------------------------------------


 molecular dynamics for ions
   using nose mass (canonical ensemble)
 charge density and potential will be updated during run
 non-spin polarized calculation
 RMM-DIIS sequential band-by-band and
  variant of blocked Davidson during initial phase
 perform sub-space diagonalisation
    before iterative eigenvector-optimisation
 modified Broyden-mixing scheme, WC =      100.0
 initial mixing is a Kerker type mixing with AMIX =  0.4000 and BMIX =      1.0000
 Hartree-type preconditioning will be used
 using additional bands            4
 real space projection scheme for non local part
 use partial core corrections
 calculate Harris-corrections to forces   (improved forces if not selfconsistent)
 use gradient corrections 
 use of overlap-Matrix (Vanderbilt PP)
 Methfessel and Paxton  Order N= 1 SIGMA  =   0.20


--------------------------------------------------------------------------------------------------------


  energy-cutoff  :      400.00
  volume of cell :     1017.34
      direct lattice vectors                 reciprocal lattice vectors
    10.016487503  0.000000000  0.000000000     0.099835396  0.000355106 -0.000628065
    -0.035295362  9.923014812  0.000000000     0.000000000  0.100775825 -0.000146823
     0.064338124  0.014912332 10.235440172     0.000000000 -0.000000000  0.097699755

  length of vectors
    10.016487503  9.923077583 10.235653242     0.099838003  0.100775932  0.097699755



 k-points in units of 2pi/SCALE and weight: read from INCAR                         
   0.02495885  0.02528273  0.02423122       0.250
  -0.02495885  0.02510518  0.02454525       0.250
   0.02495885 -0.02510518  0.02430463       0.250
  -0.02495885 -0.02528273  0.02461866       0.250

 k-points in reciprocal lattice and weights: read from INCAR                         
   0.25000000  0.25000000  0.25000000       0.250
  -0.25000000  0.25000000  0.25000000       0.250
   0.25000000 -0.25000000  0.25000000       0.250
  -0.25000000 -0.25000000  0.25000000       0.250

 position of ions in fractional coordinates (direct lattice) 
   0.53818585  0.40680528  0.36056090
   0.39521805  0.48011097  0.43904027
   0.55265838  0.56571959  0.44274872
   0.52843363  0.41617744  0.53939047
   0.50302848  0.46665978  0.44552289

 position of ions in cartesian coordinates  (Angst):
   5.39957130  4.04211162  3.69049950
   3.96999796  4.77069542  4.49377042
   5.54421407  5.62024627  4.53172805
   5.31306306  4.13777845  5.52089890
   5.05077162  4.63731565  4.56012285



--------------------------------------------------------------------------------------------------------


 k-point  1 :   0.2500 0.2500 0.2500  plane waves:   18466
 k-point  2 :  -0.2500 0.2500 0.2500  plane waves:   18476
 k-point  3 :   0.2500-0.2500 0.2500  plane waves:   18470
 k-point  4 :  -0.2500-0.2500 0.2500  plane waves:   18496

 maximum and minimum number of plane-waves per node :     18496    18466

 maximum number of plane-waves:     18496
 maximum index in each direction: 
   IXMAX=   16   IYMAX=   16   IZMAX=   16
   IXMIN=  -16   IYMIN=  -16   IZMIN=  -16


 serial   3D FFT for wavefunctions
 parallel 3D FFT for charge:
    minimum data exchange during FFTs selected (reduces bandwidth)


 total amount of memory used by VASP MPI-rank0   303393. kBytes
=======================================================================

   base      :      30000. kBytes
   nonlr-proj:        164. kBytes
   fftplans  :      94700. kBytes
   grid      :     169030. kBytes
   one-center:         15. kBytes
   wavefun   :       9484. kBytes

     INWAV:  cpu time    0.0000: real time    0.0000
 Broyden mixing: mesh for mixing (old mesh)
   NGX = 33   NGY = 33   NGZ = 33
  (NGX  =140   NGY  =140   NGZ  =140)
  gives a total of  35937 points

 initial charge density was supplied:
 charge density of overlapping atoms calculated
 number of electron       8.0000000 magnetization 
 keeping initial charge density in first step


--------------------------------------------------------------------------------------------------------


 Maximum index for non-local projection operator          725
 Maximum index for augmentation-charges         3866 (set IRDMAX)


--------------------------------------------------------------------------------------------------------


 First call to EWALD:  gamma=   0.176
 Maximum number of real-space cells 3x 3x 3
 Maximum number of reciprocal cells 3x 3x 3

    FEWALD:  cpu time    0.0007: real time    0.0007


--------------------------------------- Iteration      1(   1)  ---------------------------------------


    POTLOK:  cpu time    1.8659: real time    1.8705
    SETDIJ:  cpu time    0.0067: real time    0.0067
     EDDAV:  cpu time    3.0694: real time    3.0766
       DOS:  cpu time    0.0003: real time    0.0003
    --------------------------------------------
      LOOP:  cpu time    4.9422: real time    4.9541

 eigenvalue-minimisations  :    96
 total energy-change (2. order) : 0.1516648E+02  (-0.1947584E+03)
 number of electron       8.0000000 magnetization 
 augmentation part        8.0000000 magnetization 

 Free energy of the ion-electron system (eV)
  ---------------------------------------------------
  alpha Z        PSCENC =         0.23812204
  Ewald energy   TEWEN  =       127.86620219
  -Hartree energ DENC   =      -243.87727521
  -exchange      EXHF   =         0.00000000
  -V(xc)+E(xc)   XCENC  =        21.97115606
  PAW double counting   =       117.05815612     -117.66307307
  entropy T*S    EENTRO =         0.00360759
  eigenvalues    EBANDS =       -87.47216620
  atomic energy  EATOM  =       197.04175453
  Solvation  Ediel_sol  =         0.00000000
  ---------------------------------------------------
  free energy    TOTEN  =        15.16648406 eV

  energy without entropy =       15.16287647  energy(sigma->0) =       15.16528153


--------------------------------------------------------------------------------------------------------




--------------------------------------- Iteration      1(   2)  ---------------------------------------


     EDDAV:  cpu time    2.1915: real time    2.1968
       DOS:  cpu time    0.0002: real time    0.0002
    --------------------------------------------
      LOOP:  cpu time    2.1917: real time    2.1970

 eigenvalue-minimisations  :    64
 total energy-change (2. order) :-0.3787305E+02  (-0.3787985E+02)
 number of electron       8.0000000 magnetization 
 augmentation part        8.0000000 magnetization 

 Free energy of the ion-electron system (eV)
  ---------------------------------------------------
  alpha Z        PSCENC =         0.23812204
  Ewald energy   TEWEN  =       127.86620219
  -Hartree energ DENC   =      -243.87727521
  -exchange      EXHF   =         0.00000000
  -V(xc)+E(xc)   XCENC  =        21.97115606
  PAW double counting   =       117.05815612     -117.66307307
  entropy T*S    EENTRO =         0.01256251
  eigenvalues    EBANDS =      -125.35416623
  atomic energy  EATOM  =       197.04175453
  Solvation  Ediel_sol  =         0.00000000
  ---------------------------------------------------
  free energy    TOTEN  =       -22.70656105 eV

  energy without entropy =      -22.71912356  energy(sigma->0) =      -22.71074855


--------------------------------------------------------------------------------------------------------




--------------------------------------- Iteration      1(   3)  ---------------------------------------


     EDDAV:  cpu time    2.1840: real time    2.1891
       DOS:  cpu time    0.0002: real time    0.0002
    --------------------------------------------
      LOOP:  cpu time    2.1842: real time    2.1893

 eigenvalue-minimisations  :    64
 total energy-change (2. order) :-0.4554816E+01  (-0.4564079E+01)
 number of electron       8.0000000 magnetization 
 augmentation part        8.0000000 magnetization 

 Free energy of the ion-electron system (eV)
  ---------------------------------------------------
  alpha Z        PSCENC =         0.23812204
  Ewald energy   TEWEN  =       127.86620219
  -Hartree energ DENC   =      -243.87727521
  -exchange      EXHF   =         0.00000000
  -V(xc)+E(xc)   XCENC  =        21.97115606
  PAW double counting   =       117.05815612     -117.66307307
  entropy T*S    EENTRO =         0.03694123
  eigenvalues    EBANDS =      -129.93336053
  atomic energy  EATOM  =       197.04175453
  Solvation  Ediel_sol  =         0.00000000
  ---------------------------------------------------
  free energy    TOTEN  =       -27.26137663 eV

  energy without entropy =      -27.29831787  energy(sigma->0) =      -27.27369038


--------------------------------------------------------------------------------------------------------




--------------------------------------- Iteration      1(   4)  ---------------------------------------


     EDDAV:  cpu time    3.9081: real time    3.9173
       DOS:  cpu time    0.0002: real time    0.0002
    --------------------------------------------
      LOOP:  cpu time    3.9083: real time    3.9175

 eigenvalue-minimisations  :   128
 total energy-change (2. order) :-0.1848035E+00  (-0.1847450E+00)
 number of electron       8.0000000 magnetization 
 augmentation part        8.0000000 magnetization 

 Free energy of the ion-electron system (eV)
  ---------------------------------------------------
  alpha Z        PSCENC =         0.23812204
  Ewald energy   TEWEN  =       127.86620219
  -Hartree energ DENC   =      -243.87727521
  -exchange      EXHF   =         0.00000000
  -V(xc)+E(xc)   XCENC  =        21.97115606
  PAW double counting   =       117.05815612     -117.66307307
  entropy T*S    EENTRO =         0.03673793
  eigenvalues    EBANDS =      -130.11796071
  atomic energy  EATOM  =       197.04175453
  Solvation  Ediel_sol  =         0.00000000
  ---------------------------------------------------
  free energy    TOTEN  =       -27.44618011 eV

  energy without entropy =      -27.48291804  energy(sigma->0) =      -27.45842609


--------------------------------------------------------------------------------------------------------




--------------------------------------- Iteration      1(   5)  ---------------------------------------


     EDDAV:  cpu time    3.0171: real time    3.0242
       DOS:  cpu time    0.0002: real time    0.0002
    CHARGE:  cpu time    0.2121: real time    0.2126
    MIXING:  cpu time    0.0419: real time    0.0420
    --------------------------------------------
      LOOP:  cpu time    3.2713: real time    3.2791

 eigenvalue-minimisations  :    96
 total energy-change (2. order) :-0.5811990E-04  (-0.5811882E-04)
 number of electron       8.0000000 magnetization 
 augmentation part        0.2226268 magnetization 

 Broyden mixing:
  rms(total) = 0.86139E+00    rms(broyden)= 0.86118E+00
  rms(prec ) = 0.12152E+01
  weight for this iteration     100.00

 Free energy of the ion-electron system (eV)
  ---------------------------------------------------
  alpha Z        PSCENC =         0.23812204
  Ewald energy   TEWEN  =       127.86620219
  -Hartree energ DENC   =      -243.87727521
  -exchange      EXHF   =         0.00000000
  -V(xc)+E(xc)   XCENC  =        21.97115606
  PAW double counting   =       117.05815612     -117.66307307
  entropy T*S    EENTRO =         0.03673770
  eigenvalues    EBANDS =      -130.11801859
  atomic energy  EATOM  =       197.04175453
  Solvation  Ediel_sol  =         0.00000000
  ---------------------------------------------------
  free energy    TOTEN  =       -27.44623823 eV

  energy without entropy =      -27.48297593  energy(sigma->0) =      -27.45848413


--------------------------------------------------------------------------------------------------------




--------------------------------------- Iteration      1(   6)  ---------------------------------------


    POTLOK:  cpu time    1.8594: real time    1.8638
    SETDIJ:  cpu time    0.0065: real time    0.0065
    EDDIAG:  cpu time    0.4916: real time    0.4928
  RMM-DIIS:  cpu time    1.6011: real time    1.6049
    ORTHCH:  cpu time    0.0114: real time    0.0114
       DOS:  cpu time    0.0002: real time    0.0002
    CHARGE:  cpu time    0.1899: real time    0.1903
    MIXING:  cpu time    0.0412: real time    0.0413
    --------------------------------------------
      LOOP:  cpu time    4.2012: real time    4.2112

 eigenvalue-minimisations  :    64
 total energy-change (2. order) : 0.2820041E+01  (-0.5211785E+00)
 number of electron       8.0000000 magnetization 
 augmentation part        0.1962171 magnetization 

 Broyden mixing:
  rms(total) = 0.42530E+00    rms(broyden)= 0.42521E+00
  rms(prec ) = 0.54974E+00
  weight for this iteration     100.00

 eigenvalues of (default mixing * dielectric matrix)
  average eigenvalue GAMMA=   1.2991
  1.2991

 Free energy of the ion-electron system (eV)
  ---------------------------------------------------
  alpha Z        PSCENC =         0.23812204
  Ewald energy   TEWEN  =       127.86620219
  -Hartree energ DENC   =      -263.34200223
  -exchange      EXHF   =         0.00000000
  -V(xc)+E(xc)   XCENC  =        23.15298480
  PAW double counting   =       235.66893130     -236.44549773
  entropy T*S    EENTRO =         0.03920606
  eigenvalues    EBANDS =      -108.84589812
  atomic energy  EATOM  =       197.04175453
  Solvation  Ediel_sol  =         0.00000000
  ---------------------------------------------------
  free energy    TOTEN  =       -24.62619716 eV

  energy without entropy =      -24.66540322  energy(sigma->0) =      -24.63926585


--------------------------------------------------------------------------------------------------------




--------------------------------------- Iteration      1(   7)  ---------------------------------------


    POTLOK:  cpu time    1.8718: real time    1.8762
    SETDIJ:  cpu time    0.0064: real time    0.0065
    EDDIAG:  cpu time    0.4898: real time    0.4909
  RMM-DIIS:  cpu time    1.5457: real time    1.5494
    ORTHCH:  cpu time    0.0125: real time    0.0125
       DOS:  cpu time    0.0002: real time    0.0002
    CHARGE:  cpu time    0.1994: real time    0.1998
    MIXING:  cpu time    0.0448: real time    0.0449
    --------------------------------------------
      LOOP:  cpu time    4.1706: real time    4.1805

 eigenvalue-minimisations  :    64
 total energy-change (2. order) : 0.4792183E+00  (-0.1155730E+00)
 number of electron       8.0000000 magnetization 
 augmentation part        0.1859705 magnetization 

 Broyden mixing:
  rms(total) = 0.22794E+00    rms(broyden)= 0.22789E+00
  rms(prec ) = 0.27573E+00
  weight for this iteration     100.00

 eigenvalues of (default mixing * dielectric matrix)
  average eigenvalue GAMMA=   1.7313
  1.4613  2.0014

 Free energy of the ion-electron system (eV)
  ---------------------------------------------------
  alpha Z        PSCENC =         0.23812204
  Ewald energy   TEWEN  =       127.86620219
  -Hartree energ DENC   =      -274.75137211
  -exchange      EXHF   =         0.00000000
  -V(xc)+E(xc)   XCENC  =        23.99351713
  PAW double counting   =       357.60007907     -358.41434814
  entropy T*S    EENTRO =         0.03900294
  eigenvalues    EBANDS =       -97.75993653
  atomic energy  EATOM  =       197.04175453
  Solvation  Ediel_sol  =         0.00000000
  ---------------------------------------------------
  free energy    TOTEN  =       -24.14697889 eV

  energy without entropy =      -24.18598183  energy(sigma->0) =      -24.15997987


--------------------------------------------------------------------------------------------------------




--------------------------------------- Iteration      1(   8)  ---------------------------------------


    POTLOK:  cpu time    1.8818: real time    1.8862
    SETDIJ:  cpu time    0.0065: real time    0.0065
    EDDIAG:  cpu time    0.4787: real time    0.4798
  RMM-DIIS:  cpu time    1.5548: real time    1.5585
    ORTHCH:  cpu time    0.0119: real time    0.0119
       DOS:  cpu time    0.0002: real time    0.0002
    CHARGE:  cpu time    0.2010: real time    0.2015
    MIXING:  cpu time    0.0453: real time    0.0455
    --------------------------------------------
      LOOP:  cpu time    4.1803: real time    4.1902

 eigenvalue-minimisations  :    64
 total energy-change (2. order) : 0.1317041E+00  (-0.1356986E-01)
 number of electron       8.0000000 magnetization 
 augmentation part        0.1846724 magnetization 

 Broyden mixing:
  rms(total) = 0.82551E-01    rms(broyden)= 0.82493E-01
  rms(prec ) = 0.11840E+00
  weight for this iteration     100.00

 eigenvalues of (default mixing * dielectric matrix)
  average eigenvalue GAMMA=   1.4182
  2.2402  1.4421  0.5723

 Free energy of the ion-electron system (eV)
  ---------------------------------------------------
  alpha Z        PSCENC =         0.23812204
  Ewald energy   TEWEN  =       127.86620219
  -Hartree energ DENC   =      -279.55932154
  -exchange      EXHF   =         0.00000000
  -V(xc)+E(xc)   XCENC  =        24.46751042
  PAW double counting   =       450.53231451     -451.31901645
  entropy T*S    EENTRO =         0.04097241
  eigenvalues    EBANDS =       -93.32381288
  atomic energy  EATOM  =       197.04175453
  Solvation  Ediel_sol  =         0.00000000
  ---------------------------------------------------
  free energy    TOTEN  =       -24.01527477 eV

  energy without entropy =      -24.05624718  energy(sigma->0) =      -24.02893224


--------------------------------------------------------------------------------------------------------




--------------------------------------- Iteration      1(   9)  ---------------------------------------


    POTLOK:  cpu time    1.8911: real time    1.8957
    SETDIJ:  cpu time    0.0064: real time    0.0064
    EDDIAG:  cpu time    0.4531: real time    0.4542
  RMM-DIIS:  cpu time    1.5906: real time    1.5944
    ORTHCH:  cpu time    0.0127: real time    0.0128
       DOS:  cpu time    0.0002: real time    0.0002
    CHARGE:  cpu time    0.2167: real time    0.2172
    MIXING:  cpu time    0.0462: real time    0.0463
    --------------------------------------------
      LOOP:  cpu time    4.2172: real time    4.2273

 eigenvalue-minimisations  :    64
 total energy-change (2. order) : 0.1793287E-01  (-0.1968793E-02)
 number of electron       8.0000000 magnetization 
 augmentation part        0.1843220 magnetization 

 Broyden mixing:
  rms(total) = 0.27436E-01    rms(broyden)= 0.27366E-01
  rms(prec ) = 0.50900E-01
  weight for this iteration     100.00

 eigenvalues of (default mixing * dielectric matrix)
  average eigenvalue GAMMA=   1.2169
  2.2042  1.4245  0.6194  0.6194

 Free energy of the ion-electron system (eV)
  ---------------------------------------------------
  alpha Z        PSCENC =         0.23812204
  Ewald energy   TEWEN  =       127.86620219
  -Hartree energ DENC   =      -280.77099311
  -exchange      EXHF   =         0.00000000
  -V(xc)+E(xc)   XCENC  =        24.56418380
  PAW double counting   =       465.03602950     -465.81987584
  entropy T*S    EENTRO =         0.03824271
  eigenvalues    EBANDS =       -92.19100773
  atomic energy  EATOM  =       197.04175453
  Solvation  Ediel_sol  =         0.00000000
  ---------------------------------------------------
  free energy    TOTEN  =       -23.99734191 eV

  energy without entropy =      -24.03558462  energy(sigma->0) =      -24.01008948


--------------------------------------------------------------------------------------------------------




--------------------------------------- Iteration      1(  10)  ---------------------------------------


    POTLOK:  cpu time    1.8890: real time    1.8935
    SETDIJ:  cpu time    0.0064: real time    0.0064
    EDDIAG:  cpu time    0.4654: real time    0.4665
  RMM-DIIS:  cpu time    1.6283: real time    1.6322
    ORTHCH:  cpu time    0.0123: real time    0.0123
       DOS:  cpu time    0.0002: real time    0.0002
    CHARGE:  cpu time    0.2032: real time    0.2037
    MIXING:  cpu time    0.0479: real time    0.0481
    --------------------------------------------
      LOOP:  cpu time    4.2529: real time    4.2629

 eigenvalue-minimisations  :    64
 total energy-change (2. order) : 0.1978307E-02  (-0.3242912E-03)
 number of electron       8.0000000 magnetization 
 augmentation part        0.1839696 magnetization 

 Broyden mixing:
  rms(total) = 0.18752E-01    rms(broyden)= 0.18737E-01
  rms(prec ) = 0.38977E-01
  weight for this iteration     100.00

 eigenvalues of (default mixing * dielectric matrix)
  average eigenvalue GAMMA=   1.1954
  2.0441  1.5151  1.2688  0.5744  0.5744

 Free energy of the ion-electron system (eV)
  ---------------------------------------------------
  alpha Z        PSCENC =         0.23812204
  Ewald energy   TEWEN  =       127.86620219
  -Hartree energ DENC   =      -281.41256336
  -exchange      EXHF   =         0.00000000
  -V(xc)+E(xc)   XCENC  =        24.59115887
  PAW double counting   =       463.60642222     -464.39227621
  entropy T*S    EENTRO =         0.03776124
  eigenvalues    EBANDS =       -91.57194512
  atomic energy  EATOM  =       197.04175453
  Solvation  Ediel_sol  =         0.00000000
  ---------------------------------------------------
  free energy    TOTEN  =       -23.99536360 eV

  energy without entropy =      -24.03312484  energy(sigma->0) =      -24.00795068


--------------------------------------------------------------------------------------------------------




--------------------------------------- Iteration      1(  11)  ---------------------------------------


    POTLOK:  cpu time    1.8700: real time    1.8744
    SETDIJ:  cpu time    0.0064: real time    0.0064
    EDDIAG:  cpu time    0.4713: real time    0.4724
  RMM-DIIS:  cpu time    1.5932: real time    1.5970
    ORTHCH:  cpu time    0.0119: real time    0.0120
       DOS:  cpu time    0.0002: real time    0.0002
    CHARGE:  cpu time    0.2212: real time    0.2218
    MIXING:  cpu time    0.0473: real time    0.0474
    --------------------------------------------
      LOOP:  cpu time    4.2215: real time    4.2315

 eigenvalue-minimisations  :    64
 total energy-change (2. order) : 0.9601386E-03  (-0.6500965E-03)
 number of electron       8.0000000 magnetization 
 augmentation part        0.1833388 magnetization 

 Broyden mixing:
  rms(total) = 0.15358E-01    rms(broyden)= 0.15353E-01
  rms(prec ) = 0.28839E-01
  weight for this iteration     100.00

 eigenvalues of (default mixing * dielectric matrix)
  average eigenvalue GAMMA=   1.3289
  2.3152  2.3152  1.0956  1.0956  0.5396  0.6125

 Free energy of the ion-electron system (eV)
  ---------------------------------------------------
  alpha Z        PSCENC =         0.23812204
  Ewald energy   TEWEN  =       127.86620219
  -Hartree energ DENC   =      -282.51736732
  -exchange      EXHF   =         0.00000000
  -V(xc)+E(xc)   XCENC  =        24.63424544
  PAW double counting   =       459.61031423     -460.39794688
  entropy T*S    EENTRO =         0.03790411
  eigenvalues    EBANDS =       -90.50763179
  atomic energy  EATOM  =       197.04175453
  Solvation  Ediel_sol  =         0.00000000
  ---------------------------------------------------
  free energy    TOTEN  =       -23.99440346 eV

  energy without entropy =      -24.03230757  energy(sigma->0) =      -24.00703816


--------------------------------------------------------------------------------------------------------




--------------------------------------- Iteration      1(  12)  ---------------------------------------


    POTLOK:  cpu time    1.8315: real time    1.8359
    SETDIJ:  cpu time    0.0066: real time    0.0066
    EDDIAG:  cpu time    0.4650: real time    0.4661
  RMM-DIIS:  cpu time    1.6314: real time    1.6353
    ORTHCH:  cpu time    0.0126: real time    0.0126
       DOS:  cpu time    0.0002: real time    0.0002
    CHARGE:  cpu time    0.2229: real time    0.2234
    MIXING:  cpu time    0.0485: real time    0.0487
    --------------------------------------------
      LOOP:  cpu time    4.2187: real time    4.2287

 eigenvalue-minimisations  :    64
 total energy-change (2. order) : 0.3477651E-02  (-0.1617462E-03)
 number of electron       8.0000000 magnetization 
 augmentation part        0.1833155 magnetization 

 Broyden mixing:
  rms(total) = 0.69830E-02    rms(broyden)= 0.69760E-02
  rms(prec ) = 0.15797E-01
  weight for this iteration     100.00

 eigenvalues of (default mixing * dielectric matrix)
  average eigenvalue GAMMA=   1.3939
  3.0577  2.4580  1.1871  1.1871  0.6791  0.6791  0.5094

 Free energy of the ion-electron system (eV)
  ---------------------------------------------------
  alpha Z        PSCENC =         0.23812204
  Ewald energy   TEWEN  =       127.86620219
  -Hartree energ DENC   =      -283.14379078
  -exchange      EXHF   =         0.00000000
  -V(xc)+E(xc)   XCENC  =        24.65986338
  PAW double counting   =       457.36940613     -458.15371741
  entropy T*S    EENTRO =         0.03786611
  eigenvalues    EBANDS =       -89.90663200
  atomic energy  EATOM  =       197.04175453
  Solvation  Ediel_sol  =         0.00000000
  ---------------------------------------------------
  free energy    TOTEN  =       -23.99092581 eV

  energy without entropy =      -24.02879192  energy(sigma->0) =      -24.00354785


--------------------------------------------------------------------------------------------------------




--------------------------------------- Iteration      1(  13)  ---------------------------------------


    POTLOK:  cpu time    1.7710: real time    1.7752
    SETDIJ:  cpu time    0.0065: real time    0.0065
    EDDIAG:  cpu time    0.4645: real time    0.4656
  RMM-DIIS:  cpu time    1.6860: real time    1.6900
    ORTHCH:  cpu time    0.0122: real time    0.0122
       DOS:  cpu time    0.0002: real time    0.0002
    CHARGE:  cpu time    0.2173: real time    0.2178
    MIXING:  cpu time    0.0493: real time    0.0494
    --------------------------------------------
      LOOP:  cpu time    4.2069: real time    4.2168

 eigenvalue-minimisations  :    64
 total energy-change (2. order) :-0.1635725E-03  (-0.6445831E-04)
 number of electron       8.0000000 magnetization 
 augmentation part        0.1833358 magnetization 

 Broyden mixing:
  rms(total) = 0.44133E-02    rms(broyden)= 0.44096E-02
  rms(prec ) = 0.10446E-01
  weight for this iteration     100.00

 eigenvalues of (default mixing * dielectric matrix)
  average eigenvalue GAMMA=   1.6646
  4.2489  2.4700  2.4700  1.1663  1.0709  0.6920  0.6920  0.5064

 Free energy of the ion-electron system (eV)
  ---------------------------------------------------
  alpha Z        PSCENC =         0.23812204
  Ewald energy   TEWEN  =       127.86620219
  -Hartree energ DENC   =      -283.52049947
  -exchange      EXHF   =         0.00000000
  -V(xc)+E(xc)   XCENC  =        24.67496857
  PAW double counting   =       456.53440161     -457.31725256
  entropy T*S    EENTRO =         0.03792454
  eigenvalues    EBANDS =       -89.54671083
  atomic energy  EATOM  =       197.04175453
  Solvation  Ediel_sol  =         0.00000000
  ---------------------------------------------------
  free energy    TOTEN  =       -23.99108938 eV

  energy without entropy =      -24.02901392  energy(sigma->0) =      -24.00373089


--------------------------------------------------------------------------------------------------------




--------------------------------------- Iteration      1(  14)  ---------------------------------------


    POTLOK:  cpu time    1.6605: real time    1.6645
    SETDIJ:  cpu time    0.0065: real time    0.0065
    EDDIAG:  cpu time    0.4780: real time    0.4791
  RMM-DIIS:  cpu time    1.6574: real time    1.6613
    ORTHCH:  cpu time    0.0117: real time    0.0118
       DOS:  cpu time    0.0002: real time    0.0002
    CHARGE:  cpu time    0.2093: real time    0.2098
    MIXING:  cpu time    0.0463: real time    0.0464
    --------------------------------------------
      LOOP:  cpu time    4.0699: real time    4.0795

 eigenvalue-minimisations  :    64
 total energy-change (2. order) :-0.7110458E-02  (-0.1502054E-03)
 number of electron       8.0000000 magnetization 
 augmentation part        0.1832113 magnetization 

 Broyden mixing:
  rms(total) = 0.33092E-02    rms(broyden)= 0.33074E-02
  rms(prec ) = 0.58230E-02
  weight for this iteration     100.00

 eigenvalues of (default mixing * dielectric matrix)
  average eigenvalue GAMMA=   1.6700
  4.7755  2.7936  2.1713  1.2730  1.2730  0.8823  0.5051  0.6782  0.6782

 Free energy of the ion-electron system (eV)
  ---------------------------------------------------
  alpha Z        PSCENC =         0.23812204
  Ewald energy   TEWEN  =       127.86620219
  -Hartree energ DENC   =      -283.97276828
  -exchange      EXHF   =         0.00000000
  -V(xc)+E(xc)   XCENC  =        24.68553242
  PAW double counting   =       455.95415796     -456.73788713
  entropy T*S    EENTRO =         0.03780709
  eigenvalues    EBANDS =       -89.11112066
  atomic energy  EATOM  =       197.04175453
  Solvation  Ediel_sol  =         0.00000000
  ---------------------------------------------------
  free energy    TOTEN  =       -23.99819984 eV

  energy without entropy =      -24.03600693  energy(sigma->0) =      -24.01080220


--------------------------------------------------------------------------------------------------------




--------------------------------------- Iteration      1(  15)  ---------------------------------------


    POTLOK:  cpu time    1.6496: real time    1.6535
    SETDIJ:  cpu time    0.0066: real time    0.0066
    EDDIAG:  cpu time    0.4863: real time    0.4875
  RMM-DIIS:  cpu time    1.6283: real time    1.6321
    ORTHCH:  cpu time    0.0122: real time    0.0122
       DOS:  cpu time    0.0002: real time    0.0002
    CHARGE:  cpu time    0.1961: real time    0.1965
    MIXING:  cpu time    0.0519: real time    0.0520
    --------------------------------------------
      LOOP:  cpu time    4.0311: real time    4.0406

 eigenvalue-minimisations  :    64
 total energy-change (2. order) :-0.1889053E-02  (-0.3190127E-04)
 number of electron       8.0000000 magnetization 
 augmentation part        0.1832000 magnetization 

 Broyden mixing:
  rms(total) = 0.31145E-02    rms(broyden)= 0.31121E-02
  rms(prec ) = 0.45891E-02
  weight for this iteration     100.00

 eigenvalues of (default mixing * dielectric matrix)
  average eigenvalue GAMMA=   1.7751
  5.1892  3.1441  2.4516  1.5249  1.3056  1.3056  0.9839  0.5052  0.6703  0.6703

 Free energy of the ion-electron system (eV)
  ---------------------------------------------------
  alpha Z        PSCENC =         0.23812204
  Ewald energy   TEWEN  =       127.86620219
  -Hartree energ DENC   =      -283.85273338
  -exchange      EXHF   =         0.00000000
  -V(xc)+E(xc)   XCENC  =        24.67280194
  PAW double counting   =       454.74728963     -455.53124982
  entropy T*S    EENTRO =         0.03788387
  eigenvalues    EBANDS =       -89.22015988
  atomic energy  EATOM  =       197.04175453
  Solvation  Ediel_sol  =         0.00000000
  ---------------------------------------------------
  free energy    TOTEN  =       -24.00008889 eV

  energy without entropy =      -24.03797276  energy(sigma->0) =      -24.01271685


--------------------------------------------------------------------------------------------------------




--------------------------------------- Iteration      1(  16)  ---------------------------------------


    POTLOK:  cpu time    1.6578: real time    1.6618
    SETDIJ:  cpu time    0.0065: real time    0.0065
    EDDIAG:  cpu time    0.4831: real time    0.4842
  RMM-DIIS:  cpu time    1.6045: real time    1.6083
    ORTHCH:  cpu time    0.0120: real time    0.0120
       DOS:  cpu time    0.0002: real time    0.0002
    CHARGE:  cpu time    0.2150: real time    0.2155
    MIXING:  cpu time    0.0525: real time    0.0526
    --------------------------------------------
      LOOP:  cpu time    4.0316: real time    4.0411

 eigenvalue-minimisations  :    64
 total energy-change (2. order) :-0.1744799E-02  (-0.5401440E-04)
 number of electron       8.0000000 magnetization 
 augmentation part        0.1832813 magnetization 

 Broyden mixing:
  rms(total) = 0.27577E-02    rms(broyden)= 0.27564E-02
  rms(prec ) = 0.36631E-02
  weight for this iteration     100.00

 eigenvalues of (default mixing * dielectric matrix)
  average eigenvalue GAMMA=   1.9454
  6.4514  3.9690  2.4984  2.1665  1.2896  1.2420  0.9720  0.9720  0.5051  0.6665
  0.6665

 Free energy of the ion-electron system (eV)
  ---------------------------------------------------
  alpha Z        PSCENC =         0.23812204
  Ewald energy   TEWEN  =       127.86620219
  -Hartree energ DENC   =      -283.81144183
  -exchange      EXHF   =         0.00000000
  -V(xc)+E(xc)   XCENC  =        24.66997319
  PAW double counting   =       456.37726063     -457.16001105
  entropy T*S    EENTRO =         0.03790192
  eigenvalues    EBANDS =       -89.26159531
  atomic energy  EATOM  =       197.04175453
  Solvation  Ediel_sol  =         0.00000000
  ---------------------------------------------------
  free energy    TOTEN  =       -24.00183369 eV

  energy without entropy =      -24.03973561  energy(sigma->0) =      -24.01446766


--------------------------------------------------------------------------------------------------------




--------------------------------------- Iteration      1(  17)  ---------------------------------------


    POTLOK:  cpu time    1.6315: real time    1.6354
    SETDIJ:  cpu time    0.0064: real time    0.0065
    EDDIAG:  cpu time    0.4702: real time    0.4714
  RMM-DIIS:  cpu time    1.6144: real time    1.6182
    ORTHCH:  cpu time    0.0119: real time    0.0120
       DOS:  cpu time    0.0002: real time    0.0002
    CHARGE:  cpu time    0.2248: real time    0.2253
    MIXING:  cpu time    0.0525: real time    0.0526
    --------------------------------------------
      LOOP:  cpu time    4.0119: real time    4.0216

 eigenvalue-minimisations  :    64
 total energy-change (2. order) :-0.4911909E-03  (-0.7622728E-05)
 number of electron       8.0000000 magnetization 
 augmentation part        0.1832536 magnetization 

 Broyden mixing:
  rms(total) = 0.10047E-02    rms(broyden)= 0.10046E-02
  rms(prec ) = 0.14445E-02
  weight for this iteration     100.00

 eigenvalues of (default mixing * dielectric matrix)
  average eigenvalue GAMMA=   2.0760
  7.2554  4.0450  2.9786  2.6051  1.6889  1.2318  1.2318  1.0481  0.9852  0.5051
  0.6683  0.6683

 Free energy of the ion-electron system (eV)
  ---------------------------------------------------
  alpha Z        PSCENC =         0.23812204
  Ewald energy   TEWEN  =       127.86620219
  -Hartree energ DENC   =      -283.82938004
  -exchange      EXHF   =         0.00000000
  -V(xc)+E(xc)   XCENC  =        24.66870456
  PAW double counting   =       456.13497499     -456.91826226
  entropy T*S    EENTRO =         0.03789732
  eigenvalues    EBANDS =       -89.24233821
  atomic energy  EATOM  =       197.04175453
  Solvation  Ediel_sol  =         0.00000000
  ---------------------------------------------------
  free energy    TOTEN  =       -24.00232488 eV

  energy without entropy =      -24.04022220  energy(sigma->0) =      -24.01495732


--------------------------------------------------------------------------------------------------------




--------------------------------------- Iteration      1(  18)  ---------------------------------------


    POTLOK:  cpu time    1.6400: real time    1.6438
    SETDIJ:  cpu time    0.0065: real time    0.0065
    EDDIAG:  cpu time    0.4746: real time    0.4757
  RMM-DIIS:  cpu time    1.6054: real time    1.6092
    ORTHCH:  cpu time    0.0121: real time    0.0122
       DOS:  cpu time    0.0002: real time    0.0002
    CHARGE:  cpu time    0.2138: real time    0.2143
    MIXING:  cpu time    0.0524: real time    0.0525
    --------------------------------------------
      LOOP:  cpu time    4.0050: real time    4.0144

 eigenvalue-minimisations  :    64
 total energy-change (2. order) :-0.2503346E-03  (-0.1480822E-04)
 number of electron       8.0000000 magnetization 
 augmentation part        0.1831727 magnetization 

 Broyden mixing:
  rms(total) = 0.23322E-02    rms(broyden)= 0.23312E-02
  rms(prec ) = 0.29493E-02
  weight for this iteration     100.00

 eigenvalues of (default mixing * dielectric matrix)
  average eigenvalue GAMMA=   2.0806
  7.6261  4.7139  2.8877  2.4955  2.0297  1.4645  0.5051  0.6690  0.6690  1.0626
  1.0626  1.0172  0.8443

 Free energy of the ion-electron system (eV)
  ---------------------------------------------------
  alpha Z        PSCENC =         0.23812204
  Ewald energy   TEWEN  =       127.86620219
  -Hartree energ DENC   =      -283.87941437
  -exchange      EXHF   =         0.00000000
  -V(xc)+E(xc)   XCENC  =        24.66998785
  PAW double counting   =       455.51660990     -456.30050847
  entropy T*S    EENTRO =         0.03787967
  eigenvalues    EBANDS =       -89.19320856
  atomic energy  EATOM  =       197.04175453
  Solvation  Ediel_sol  =         0.00000000
  ---------------------------------------------------
  free energy    TOTEN  =       -24.00257522 eV

  energy without entropy =      -24.04045489  energy(sigma->0) =      -24.01520177


--------------------------------------------------------------------------------------------------------




--------------------------------------- Iteration      1(  19)  ---------------------------------------


    POTLOK:  cpu time    1.6417: real time    1.6456
    SETDIJ:  cpu time    0.0065: real time    0.0065
    EDDIAG:  cpu time    0.4675: real time    0.4686
  RMM-DIIS:  cpu time    1.5799: real time    1.5836
    ORTHCH:  cpu time    0.0118: real time    0.0119
       DOS:  cpu time    0.0002: real time    0.0002
    CHARGE:  cpu time    0.2000: real time    0.2005
    MIXING:  cpu time    0.0543: real time    0.0545
    --------------------------------------------
      LOOP:  cpu time    3.9620: real time    3.9713

 eigenvalue-minimisations  :    64
 total energy-change (2. order) :-0.1047883E-04  (-0.2820409E-05)
 number of electron       8.0000000 magnetization 
 augmentation part        0.1831961 magnetization 

 Broyden mixing:
  rms(total) = 0.49379E-03    rms(broyden)= 0.49341E-03
  rms(prec ) = 0.64760E-03
  weight for this iteration     100.00

 eigenvalues of (default mixing * dielectric matrix)
  average eigenvalue GAMMA=   2.1830
  8.2989  5.0173  3.4980  2.5960  2.2203  1.4556  1.4556  1.1201  1.1201  0.5051
  0.6689  0.6689  1.0208  0.9165

 Free energy of the ion-electron system (eV)
  ---------------------------------------------------
  alpha Z        PSCENC =         0.23812204
  Ewald energy   TEWEN  =       127.86620219
  -Hartree energ DENC   =      -283.85280816
  -exchange      EXHF   =         0.00000000
  -V(xc)+E(xc)   XCENC  =        24.66952021
  PAW double counting   =       455.80364485     -456.58709837
  entropy T*S    EENTRO =         0.03788168
  eigenvalues    EBANDS =       -89.21980467
  atomic energy  EATOM  =       197.04175453
  Solvation  Ediel_sol  =         0.00000000
  ---------------------------------------------------
  free energy    TOTEN  =       -24.00258570 eV

  energy without entropy =      -24.04046738  energy(sigma->0) =      -24.01521292


--------------------------------------------------------------------------------------------------------




--------------------------------------- Iteration      1(  20)  ---------------------------------------


    POTLOK:  cpu time    1.7239: real time    1.7280
    SETDIJ:  cpu time    0.0065: real time    0.0065
    EDDIAG:  cpu time    0.4501: real time    0.4512
  RMM-DIIS:  cpu time    1.5957: real time    1.5994
    ORTHCH:  cpu time    0.0124: real time    0.0124
       DOS:  cpu time    0.0002: real time    0.0002
    CHARGE:  cpu time    0.2236: real time    0.2242
    MIXING:  cpu time    0.0590: real time    0.0592
    --------------------------------------------
      LOOP:  cpu time    4.0715: real time    4.0811

 eigenvalue-minimisations  :    64
 total energy-change (2. order) :-0.2577565E-04  (-0.1115637E-05)
 number of electron       8.0000000 magnetization 
 augmentation part        0.1832161 magnetization 

 Broyden mixing:
  rms(total) = 0.19740E-03    rms(broyden)= 0.19655E-03
  rms(prec ) = 0.26707E-03
  weight for this iteration     100.00

 eigenvalues of (default mixing * dielectric matrix)
  average eigenvalue GAMMA=   2.1685
  8.4357  5.3481  3.5867  2.5112  2.2910  1.9138  1.5206  1.0984  1.0984  0.5051
  0.6689  0.6689  0.9668  0.9668  0.9463

 Free energy of the ion-electron system (eV)
  ---------------------------------------------------
  alpha Z        PSCENC =         0.23812204
  Ewald energy   TEWEN  =       127.86620219
  -Hartree energ DENC   =      -283.84587644
  -exchange      EXHF   =         0.00000000
  -V(xc)+E(xc)   XCENC  =        24.66928860
  PAW double counting   =       455.82239671     -456.60571736
  entropy T*S    EENTRO =         0.03788416
  eigenvalues    EBANDS =       -89.22666591
  atomic energy  EATOM  =       197.04175453
  Solvation  Ediel_sol  =         0.00000000
  ---------------------------------------------------
  free energy    TOTEN  =       -24.00261147 eV

  energy without entropy =      -24.04049563  energy(sigma->0) =      -24.01523952


--------------------------------------------------------------------------------------------------------




--------------------------------------- Iteration      1(  21)  ---------------------------------------


    POTLOK:  cpu time    1.7440: real time    1.7481
    SETDIJ:  cpu time    0.0065: real time    0.0065
    EDDIAG:  cpu time    0.4634: real time    0.4645
  RMM-DIIS:  cpu time    1.2560: real time    1.2590
    ORTHCH:  cpu time    0.0115: real time    0.0115
       DOS:  cpu time    0.0002: real time    0.0002
    CHARGE:  cpu time    0.2017: real time    0.2022
    MIXING:  cpu time    0.0559: real time    0.0560
    --------------------------------------------
      LOOP:  cpu time    3.7392: real time    3.7480

 eigenvalue-minimisations  :    48
 total energy-change (2. order) :-0.4395172E-05  (-0.3985025E-07)
 number of electron       8.0000000 magnetization 
 augmentation part        0.1832168 magnetization 

 Broyden mixing:
  rms(total) = 0.11749E-03    rms(broyden)= 0.11739E-03
  rms(prec ) = 0.15483E-03
  weight for this iteration     100.00

 eigenvalues of (default mixing * dielectric matrix)
  average eigenvalue GAMMA=   2.2488
  8.6094  5.4332  4.1775  3.0358  2.5021  2.0578  1.5750  1.5750  1.1279  1.1279
  0.5051  0.6689  0.6689  1.0016  1.0016  0.9125

 Free energy of the ion-electron system (eV)
  ---------------------------------------------------
  alpha Z        PSCENC =         0.23812204
  Ewald energy   TEWEN  =       127.86620219
  -Hartree energ DENC   =      -283.85055123
  -exchange      EXHF   =         0.00000000
  -V(xc)+E(xc)   XCENC  =        24.66948677
  PAW double counting   =       455.85258477     -456.63595256
  entropy T*S    EENTRO =         0.03788468
  eigenvalues    EBANDS =       -89.22214706
  atomic energy  EATOM  =       197.04175453
  Solvation  Ediel_sol  =         0.00000000
  ---------------------------------------------------
  free energy    TOTEN  =       -24.00261587 eV

  energy without entropy =      -24.04050055  energy(sigma->0) =      -24.01524409


--------------------------------------------------------------------------------------------------------




--------------------------------------- Iteration      1(  22)  ---------------------------------------


    POTLOK:  cpu time    1.7772: real time    1.7814
    SETDIJ:  cpu time    0.0065: real time    0.0066
    EDDIAG:  cpu time    0.4461: real time    0.4471
  RMM-DIIS:  cpu time    1.2259: real time    1.2287
    ORTHCH:  cpu time    0.0118: real time    0.0118
       DOS:  cpu time    0.0002: real time    0.0002
    CHARGE:  cpu time    0.2048: real time    0.2053
    MIXING:  cpu time    0.0576: real time    0.0577
    --------------------------------------------
      LOOP:  cpu time    3.7301: real time    3.7389

 eigenvalue-minimisations  :    48
 total energy-change (2. order) :-0.2541954E-05  (-0.5467981E-07)
 number of electron       8.0000000 magnetization 
 augmentation part        0.1832141 magnetization 

 Broyden mixing:
  rms(total) = 0.41386E-04    rms(broyden)= 0.41374E-04
  rms(prec ) = 0.57370E-04
  weight for this iteration     100.00

 eigenvalues of (default mixing * dielectric matrix)
  average eigenvalue GAMMA=   2.1867
  8.5965  5.4884  4.1452  3.0386  2.5190  1.9475  1.9475  1.5970  0.5051  1.1401
  1.1401  0.6689  0.6689  0.9820  0.9689  0.9097  0.9097

 Free energy of the ion-electron system (eV)
  ---------------------------------------------------
  alpha Z        PSCENC =         0.23812204
  Ewald energy   TEWEN  =       127.86620219
  -Hartree energ DENC   =      -283.85350654
  -exchange      EXHF   =         0.00000000
  -V(xc)+E(xc)   XCENC  =        24.66956426
  PAW double counting   =       455.85162496     -456.63503510
  entropy T*S    EENTRO =         0.03788514
  eigenvalues    EBANDS =       -89.21922987
  atomic energy  EATOM  =       197.04175453
  Solvation  Ediel_sol  =         0.00000000
  ---------------------------------------------------
  free energy    TOTEN  =       -24.00261841 eV

  energy without entropy =      -24.04050354  energy(sigma->0) =      -24.01524679


--------------------------------------------------------------------------------------------------------




--------------------------------------- Iteration      1(  23)  ---------------------------------------


    POTLOK:  cpu time    1.7644: real time    1.7685
    SETDIJ:  cpu time    0.0065: real time    0.0065
    EDDIAG:  cpu time    0.4703: real time    0.4714
  RMM-DIIS:  cpu time    1.1826: real time    1.1854
    ORTHCH:  cpu time    0.0117: real time    0.0118
       DOS:  cpu time    0.0002: real time    0.0002
    --------------------------------------------
      LOOP:  cpu time    3.4357: real time    3.4438

 eigenvalue-minimisations  :    44
 total energy-change (2. order) :-0.3368447E-06  (-0.5828990E-08)
 number of electron       8.0000000 magnetization 
 augmentation part        0.1832141 magnetization 

 Free energy of the ion-electron system (eV)
  ---------------------------------------------------
  alpha Z        PSCENC =         0.23812204
  Ewald energy   TEWEN  =       127.86620219
  -Hartree energ DENC   =      -283.85137339
  -exchange      EXHF   =         0.00000000
  -V(xc)+E(xc)   XCENC  =        24.66945734
  PAW double counting   =       455.84132783     -456.62472017
  entropy T*S    EENTRO =         0.03788466
  eigenvalues    EBANDS =       -89.22127377
  atomic energy  EATOM  =       197.04175453
  Solvation  Ediel_sol  =         0.00000000
  ---------------------------------------------------
  free energy    TOTEN  =       -24.00261875 eV

  energy without entropy =      -24.04050341  energy(sigma->0) =      -24.01524697


--------------------------------------------------------------------------------------------------------




 average (electrostatic) potential at core
  the test charge radii are     0.5201  0.6991
  (the norm of the test charge is              1.0000)
       1 -41.4161       2 -41.4405       3 -41.5635       4 -41.3744       5 -58.0007



 E-fermi :  -9.0796     XC(G=0):  -0.6926     alpha+bet : -0.2071


 k-point     1 :       0.2500    0.2500    0.2500
  band No.  band energies     occupation 
      1     -16.8332      2.00000
      2      -9.2913      2.06036
      3      -9.2676      2.03538
      4      -9.2152      1.90392
      5      -0.3264      0.00000
      6       0.5531      0.00000
      7       0.6638      0.00000
      8       0.6885      0.00000

 k-point     2 :      -0.2500    0.2500    0.2500
  band No.  band energies     occupation 
      1     -16.8332      2.00000
      2      -9.2913      2.06038
      3      -9.2675      2.03535
      4      -9.2153      1.90427
      5      -0.3259      0.00000
      6       0.5469      0.00000
      7       0.6552      0.00000
      8       0.6942      0.00000

 k-point     3 :       0.2500   -0.2500    0.2500
  band No.  band energies     occupation 
      1     -16.8332      2.00000
      2      -9.2913      2.06039
      3      -9.2675      2.03535
      4      -9.2153      1.90427
      5      -0.3267      0.00000
      6       0.5490      0.00000
      7       0.6593      0.00000
      8       0.6951      0.00000

 k-point     4 :      -0.2500   -0.2500    0.2500
  band No.  band energies     occupation 
      1     -16.8332      2.00000
      2      -9.2915      2.06047
      3      -9.2676      2.03550
      4      -9.2153      1.90436
      5      -0.3249      0.00000
      6       0.5476      0.00000
      7       0.6608      0.00000
      8       0.6858      0.00000


--------------------------------------------------------------------------------------------------------


 soft charge-density along one line, spin component           1
         0         1         2         3         4         5         6         7         8         9
 total charge-density along one line

 pseudopotential strength for first ion, spin component:           1
 -2.340  -4.032  -0.001  -0.002   0.001
 -4.032  -6.862  -0.003  -0.004   0.002
 -0.001  -0.003  -0.337   0.002  -0.001
 -0.002  -0.004   0.002  -0.336  -0.001
  0.001   0.002  -0.001  -0.001  -0.338
 total augmentation occupancy for first ion, spin component:           1
  3.576  -0.660   0.223   0.386  -0.151
 -0.660   0.135  -0.043  -0.072   0.028
  0.223  -0.043   0.019   0.021  -0.008
  0.386  -0.072   0.021   0.046  -0.015
 -0.151   0.028  -0.008  -0.015   0.014


------------------------ aborting loop because EDIFF is reached ----------------------------------------


    CHARGE:  cpu time    0.1925: real time    0.1929
    FORLOC:  cpu time    0.1186: real time    0.1189
    FORNL :  cpu time    0.6587: real time    0.6603
    STRESS:  cpu time    2.1502: real time    2.1553
    FORCOR:  cpu time    1.8432: real time    1.8475
    FORHAR:  cpu time    0.6023: real time    0.6037
    MIXING:  cpu time    0.0591: real time    0.0592
    OFIELD:  cpu time    0.0000: real time    0.0000

  FORCE on cell =-STRESS in cart. coord.  units (eV):
  Direction    XX          YY          ZZ          XY          YZ          ZX
  --------------------------------------------------------------------------------------
  Alpha Z     0.23812     0.23812     0.23812
  Ewald      43.85625    42.46022    41.54969     0.40791     0.25875     0.40531
  Hartree    95.30434    95.23716    93.31034     0.22506     0.13100     0.22370
  E(xc)     -27.13227   -27.14496   -27.12032     0.00175     0.00105     0.00202
  Local    -198.03763  -196.12708  -194.10938    -0.82361    -0.44238    -0.64801
  n-local   -16.53969   -15.17230   -16.05258     0.18951     0.10660    -0.23534
  augment     0.11970     0.11458     0.12293     0.00260     0.00115     0.00040
  Kinetic   101.33479    99.79532   100.85812     0.72602     0.20064     0.05570
  Fock        0.00000     0.00000     0.00000     0.00000     0.00000     0.00000
  -------------------------------------------------------------------------------------
  Total      -0.85640    -0.59893    -1.20307     0.72924     0.25682    -0.19620
  in kB      -1.34872    -0.94323    -1.89469     1.14847     0.40445    -0.30899
  external pressure =       -1.40 kB  Pullay stress =        0.00 kB

  kinetic pressure (ideal gas correction) =      0.03 kB
  total pressure  =     -1.37 kB
  Total+kin.    -1.314      -0.908      -1.883       1.157       0.397      -0.328

 VOLUME and BASIS-vectors are now :
 -----------------------------------------------------------------------------
  energy-cutoff  :      400.00
  volume of cell :     1017.34
      direct lattice vectors                 reciprocal lattice vectors
    10.016487503  0.000000000  0.000000000     0.099835396  0.000355106 -0.000628065
    -0.035295362  9.923014812  0.000000000     0.000000000  0.100775825 -0.000146823
     0.064338124  0.014912332 10.235440172     0.000000000 -0.000000000  0.097699755

  length of vectors
    10.016487503  9.923077583 10.235653242     0.099838003  0.100775932  0.097699755


 FORCES acting on ions
    electron-ion (+dipol)            ewald-force                    non-local-force                 convergence-correction
 -----------------------------------------------------------------------------------------------
   -.165E+02 0.282E+02 0.407E+02   0.179E+02 -.307E+02 -.446E+02   -.143E+01 0.283E+01 0.430E+01   0.753E-05 -.271E-04 -.729E-04
   0.525E+02 -.662E+01 0.315E+01   -.582E+02 0.708E+01 -.352E+01   0.621E+01 -.375E+00 0.961E+00   -.667E-04 0.143E-04 -.246E-04
   -.234E+02 -.470E+02 0.139E+01   0.260E+02 0.518E+02 -.148E+01   -.251E+01 -.457E+01 0.119E+00   0.236E-04 0.621E-04 -.550E-05
   -.122E+02 0.236E+02 -.447E+02   0.133E+02 -.256E+02 0.488E+02   -.137E+01 0.208E+01 -.449E+01   0.190E-04 -.156E-04 0.640E-04
   -.104E+01 0.216E+01 -.660E+00   0.971E+00 -.255E+01 0.787E+00   -.292E+00 0.114E+01 -.174E+00   -.945E-04 0.187E-03 -.254E-03
 -----------------------------------------------------------------------------------------------
   -.596E+00 0.309E+00 -.126E+00   0.178E-14 -.355E-14 0.000E+00   0.611E+00 0.111E+01 0.724E+00   -.111E-03 0.221E-03 -.293E-03


 POSITION                                       TOTAL-FORCE (eV/Angst)
 -----------------------------------------------------------------------------------
      5.39957      4.04211      3.69050         0.038448      0.301220      0.406340
      3.97000      4.77070      4.49377         0.493070      0.093673      0.591565
      5.54421      5.62025      4.53173         0.133769      0.140203      0.034855
      5.31306      4.13778      5.52090        -0.291156      0.130425     -0.388756
      5.05077      4.63732      4.56012        -0.359246      0.750328     -0.046681
 -----------------------------------------------------------------------------------
    total drift:                                0.014885      1.415848      0.597323


--------------------------------------------------------------------------------------------------------



  FREE ENERGIE OF THE ION-ELECTRON SYSTEM (eV)
  ---------------------------------------------------
  free  energy   TOTEN  =       -24.00261875 eV

  energy  without entropy=      -24.04050341  energy(sigma->0) =      -24.01524697



--------------------------------------------------------------------------------------------------------


    POTLOK:  cpu time    1.7984: real time    1.8027


--------------------------------------------------------------------------------------------------------


           RANDOM_SEED =         578496055                0                0
           RANDOM_SEED =         578496055               30                0
   IONSTEP:  cpu time    0.0017: real time    0.0019

  ENERGY OF THE ELECTRON-ION-THERMOSTAT SYSTEM (eV)
  ---------------------------------------------------
% ion-electron   TOTEN  =       -24.002619  see above
  kinetic energy EKIN   =         0.029953
  kin. lattice  EKIN_LAT=         0.000000  (temperature   57.93 K)
  nose potential ES     =         0.000000
  nose kinetic   EPS    =         0.000002
  ---------------------------------------------------
  total energy   ETOTAL =       -23.972664 eV

  maximum distance moved by ions :      0.37E-02


 mean value of Nose-termostat <S>:     1.002 mean value of <T> :    57.931
 mean temperature <T/S>/<1/S>  :    57.931

    WAVPRE:  cpu time    0.4897: real time    0.4959
    FEWALD:  cpu time    0.0004: real time    0.0004
    ORTHCH:  cpu time    0.2543: real time    0.2549
     LOOP+:  cpu time   97.4339: real time   97.6720


--------------------------------------- Iteration      2(   1)  ---------------------------------------


    POTLOK:  cpu time    1.8001: real time    1.8046
    SETDIJ:  cpu time    0.0065: real time    0.0065
     EDDAV:  cpu time    2.2282: real time    2.2335
       DOS:  cpu time    0.0002: real time    0.0002
    CHARGE:  cpu time    0.2177: real time    0.2182
    MIXING:  cpu time    0.0462: real time    0.0463
    --------------------------------------------
      LOOP:  cpu time    4.2990: real time    4.3093

 eigenvalue-minimisations  :    64
 total energy-change (2. order) : 0.2685670E-02  (-0.1545453E+00)
 number of electron       7.9999999 magnetization 
 augmentation part        0.1873429 magnetization 

 Broyden mixing:
  rms(total) = 0.58896E-01    rms(broyden)= 0.58828E-01
  rms(prec ) = 0.70884E-01
  weight for this iteration     100.00

 Free energy of the ion-electron system (eV)
  ---------------------------------------------------
  alpha Z        PSCENC =         0.23812204
  Ewald energy   TEWEN  =       130.91319824
  -Hartree energ DENC   =      -285.60458775
  -exchange      EXHF   =         0.00000000
  -V(xc)+E(xc)   XCENC  =        24.75734428
  PAW double counting   =       455.83586241     -456.61926126
  entropy T*S    EENTRO =         0.01778275
  eigenvalues    EBANDS =       -90.58014796
  atomic energy  EATOM  =       197.04175453
  Solvation  Ediel_sol  =         0.00000000
  ---------------------------------------------------
  free energy    TOTEN  =       -23.99993274 eV

  energy without entropy =      -24.01771548  energy(sigma->0) =      -24.00586032


--------------------------------------------------------------------------------------------------------




--------------------------------------- Iteration      2(   2)  ---------------------------------------


    POTLOK:  cpu time    1.6674: real time    1.6714
    SETDIJ:  cpu time    0.0065: real time    0.0065
    EDDIAG:  cpu time    0.4826: real time    0.4838
  RMM-DIIS:  cpu time    1.6723: real time    1.6762
    ORTHCH:  cpu time    0.0125: real time    0.0125
       DOS:  cpu time    0.0002: real time    0.0002
    CHARGE:  cpu time    0.2224: real time    0.2229
    MIXING:  cpu time    0.0699: real time    0.0701
    --------------------------------------------
      LOOP:  cpu time    4.1338: real time    4.1436

 eigenvalue-minimisations  :    64
 total energy-change (2. order) : 0.7427741E-02  (-0.4330996E-02)
 number of electron       7.9999999 magnetization 
 augmentation part        0.1864754 magnetization 

 Broyden mixing:
  rms(total) = 0.33700E-01    rms(broyden)= 0.33685E-01
  rms(prec ) = 0.40316E-01
  weight for this iteration     100.00

 eigenvalues of (default mixing * dielectric matrix)
  average eigenvalue GAMMA=   2.2096
  8.6154  5.6126  4.3303  3.6004  2.5469  2.4963  1.9411  1.8858  1.5448  1.4744
  1.1235  1.1235  0.5051  0.6689  0.6689  1.0615  0.9285  0.9277  0.9277

 Free energy of the ion-electron system (eV)
  ---------------------------------------------------
  alpha Z        PSCENC =         0.23812204
  Ewald energy   TEWEN  =       130.91319824
  -Hartree energ DENC   =      -287.18075734
  -exchange      EXHF   =         0.00000000
  -V(xc)+E(xc)   XCENC  =        24.84681607
  PAW double counting   =       476.35436691     -477.14645130
  entropy T*S    EENTRO =         0.02175188
  eigenvalues    EBANDS =       -89.08130603
  atomic energy  EATOM  =       197.04175453
  Solvation  Ediel_sol  =         0.00000000
  ---------------------------------------------------
  free energy    TOTEN  =       -23.99250500 eV

  energy without entropy =      -24.01425688  energy(sigma->0) =      -23.99975563


--------------------------------------------------------------------------------------------------------




--------------------------------------- Iteration      2(   3)  ---------------------------------------


    POTLOK:  cpu time    1.6922: real time    1.6962
    SETDIJ:  cpu time    0.0065: real time    0.0065
    EDDIAG:  cpu time    0.4801: real time    0.4812
  RMM-DIIS:  cpu time    1.6187: real time    1.6226
    ORTHCH:  cpu time    0.0120: real time    0.0120
       DOS:  cpu time    0.0002: real time    0.0002
    CHARGE:  cpu time    0.2165: real time    0.2170
    MIXING:  cpu time    0.0723: real time    0.0724
    --------------------------------------------
      LOOP:  cpu time    4.0985: real time    4.1082

 eigenvalue-minimisations  :    64
 total energy-change (2. order) :-0.2078299E-03  (-0.1776235E-02)
 number of electron       7.9999999 magnetization 
 augmentation part        0.1873382 magnetization 

 Broyden mixing:
  rms(total) = 0.28815E-01    rms(broyden)= 0.28781E-01
  rms(prec ) = 0.37232E-01
  weight for this iteration     100.00

 eigenvalues of (default mixing * dielectric matrix)
  average eigenvalue GAMMA=   2.1718
  8.6161  5.6112  4.3366  3.5946  2.5832  2.5027  2.3113  1.8970  1.5560  1.4747
  0.5051  0.6689  0.6689  1.1236  1.1236  0.9315  0.9315  0.9228  1.0600  1.0172

 Free energy of the ion-electron system (eV)
  ---------------------------------------------------
  alpha Z        PSCENC =         0.23812204
[...]
  rms(total) = 0.85684E-03    rms(broyden)= 0.85648E-03
  rms(prec ) = 0.10834E-02
  weight for this iteration     100.00

 eigenvalues of (default mixing * dielectric matrix)
  average eigenvalue GAMMA=   2.3595
  7.4710  6.4943  4.6252  4.6252  4.3939  1.8038  1.8038  3.7768  3.7768  0.5557
  0.5557  0.4804  0.4804  2.2084  2.2084  0.6395  0.8748  0.8748  1.6552  1.6552
  0.8799  0.9613  0.9613  1.1940  1.1940  1.1423  1.2755  3.5015  2.8456  2.8456
  3.1826  3.1826  1.7524  3.0678  2.2458  2.2458  2.0644  2.0644  2.7210  2.7210
  2.7010  2.6700  2.6700  2.3327  2.3327  2.3909  2.4540  2.5049  2.5529

 Free energy of the ion-electron system (eV)
  ---------------------------------------------------
  alpha Z        PSCENC =         0.23812204
  Ewald energy   TEWEN  =       129.01614939
  -Hartree energ DENC   =      -284.83512845
  -exchange      EXHF   =         0.00000000
  -V(xc)+E(xc)   XCENC  =        24.71969360
  PAW double counting   =       447.11654447     -447.90292938
  entropy T*S    EENTRO =         0.02928536
  eigenvalues    EBANDS =       -89.43085378
  atomic energy  EATOM  =       197.04175453
  Solvation  Ediel_sol  =         0.00000000
  ---------------------------------------------------
  free energy    TOTEN  =       -24.00736222 eV

  energy without entropy =      -24.03664758  energy(sigma->0) =      -24.01712401


--------------------------------------------------------------------------------------------------------




--------------------------------------- Iteration     10(  16)  ---------------------------------------


    POTLOK:  cpu time    1.7762: real time    1.7804
    SETDIJ:  cpu time    0.0063: real time    0.0063
    EDDIAG:  cpu time    0.4684: real time    0.4696
  RMM-DIIS:  cpu time    1.2098: real time    1.2127
    ORTHCH:  cpu time    0.0118: real time    0.0119
       DOS:  cpu time    0.0003: real time    0.0003
    CHARGE:  cpu time    0.1999: real time    0.2004
    MIXING:  cpu time    0.1428: real time    0.1432
    --------------------------------------------
      LOOP:  cpu time    3.8155: real time    3.8247

 eigenvalue-minimisations  :    52
 total energy-change (2. order) :-0.8993740E-05  (-0.2709196E-06)
 number of electron       7.9999999 magnetization 
 augmentation part        0.1846328 magnetization 

 Broyden mixing:
  rms(total) = 0.41466E-03    rms(broyden)= 0.41371E-03
  rms(prec ) = 0.53725E-03
  weight for this iteration     100.00

 eigenvalues of (default mixing * dielectric matrix)
  average eigenvalue GAMMA=   2.3175
  5.9463  4.3921  4.1602  4.1602  3.9304  3.9304  0.4037  0.4037  3.6362  0.8927
  0.8927  1.2250  1.2250  0.8642  0.9496  0.9496  1.1863  1.1863  1.1118  1.7904
  1.7904  1.3405  1.4732  3.3211  2.1731  2.1731  3.1843  1.9700  2.4086  2.4086
  2.9605  2.9605  2.3077  2.3077  2.5833  2.5833  2.6548  2.6548  2.4631  2.4631
  2.6368  2.6368  2.5508  2.5220  2.5220

 Free energy of the ion-electron system (eV)
  ---------------------------------------------------
  alpha Z        PSCENC =         0.23812204
  Ewald energy   TEWEN  =       129.01614939
  -Hartree energ DENC   =      -284.82997452
  -exchange      EXHF   =         0.00000000
  -V(xc)+E(xc)   XCENC  =        24.71950117
  PAW double counting   =       447.14718337     -447.93348479
  entropy T*S    EENTRO =         0.02927083
  eigenvalues    EBANDS =       -89.43589324
  atomic energy  EATOM  =       197.04175453
  Solvation  Ediel_sol  =         0.00000000
  ---------------------------------------------------
  free energy    TOTEN  =       -24.00737122 eV

  energy without entropy =      -24.03664205  energy(sigma->0) =      -24.01712816


--------------------------------------------------------------------------------------------------------




--------------------------------------- Iteration     10(  17)  ---------------------------------------


    POTLOK:  cpu time    1.7694: real time    1.7736
    SETDIJ:  cpu time    0.0065: real time    0.0065
    EDDIAG:  cpu time    0.4325: real time    0.4336
  RMM-DIIS:  cpu time    1.1806: real time    1.1834
    ORTHCH:  cpu time    0.0113: real time    0.0113
       DOS:  cpu time    0.0002: real time    0.0002
    CHARGE:  cpu time    0.1684: real time    0.1688
    MIXING:  cpu time    0.1475: real time    0.1479
    --------------------------------------------
      LOOP:  cpu time    3.7165: real time    3.7253

 eigenvalue-minimisations  :    52
 total energy-change (2. order) :-0.3643723E-05  (-0.2338091E-06)
 number of electron       7.9999999 magnetization 
 augmentation part        0.1846379 magnetization 

 Broyden mixing:
  rms(total) = 0.16593E-03    rms(broyden)= 0.16573E-03
  rms(prec ) = 0.22148E-03
  weight for this iteration     100.00

 eigenvalues of (default mixing * dielectric matrix)
  average eigenvalue GAMMA=   2.3044
  5.9873  4.6714  4.0899  4.0899  3.9133  3.9133  3.6351  0.3816  3.5327  0.4466
  0.6796  0.6796  1.2346  1.2346  1.0823  1.0823  0.8740  0.9969  1.0420  1.0420
  1.1513  1.3405  1.8053  1.8053  2.0720  2.0720  3.2432  2.3601  2.3601  1.9180
  2.9495  2.9495  2.6174  2.6174  2.4114  2.4114  2.3231  2.3231  2.6875  2.6875
  2.4768  2.4768  2.6422  2.6422  2.5537  2.4977

 Free energy of the ion-electron system (eV)
  ---------------------------------------------------
  alpha Z        PSCENC =         0.23812204
  Ewald energy   TEWEN  =       129.01614939
  -Hartree energ DENC   =      -284.82672405
  -exchange      EXHF   =         0.00000000
  -V(xc)+E(xc)   XCENC  =        24.71935301
  PAW double counting   =       447.15454253     -447.94081246
  entropy T*S    EENTRO =         0.02932490
  eigenvalues    EBANDS =       -89.43908474
  atomic energy  EATOM  =       197.04175453
  Solvation  Ediel_sol  =         0.00000000
  ---------------------------------------------------
  free energy    TOTEN  =       -24.00737486 eV

  energy without entropy =      -24.03669976  energy(sigma->0) =      -24.01714983


--------------------------------------------------------------------------------------------------------




--------------------------------------- Iteration     10(  18)  ---------------------------------------


    POTLOK:  cpu time    1.7972: real time    1.8015
    SETDIJ:  cpu time    0.0065: real time    0.0065
    EDDIAG:  cpu time    0.4318: real time    0.4328
  RMM-DIIS:  cpu time    1.1221: real time    1.1247
    ORTHCH:  cpu time    0.0114: real time    0.0114
       DOS:  cpu time    0.0002: real time    0.0002
    CHARGE:  cpu time    0.1653: real time    0.1657
    MIXING:  cpu time    0.1801: real time    0.1805
    --------------------------------------------
      LOOP:  cpu time    3.7145: real time    3.7233

 eigenvalue-minimisations  :    48
 total energy-change (2. order) :-0.1448957E-05  (-0.6880655E-07)
 number of electron       7.9999999 magnetization 
 augmentation part        0.1846370 magnetization 

 Broyden mixing:
  rms(total) = 0.14250E-03    rms(broyden)= 0.14231E-03
  rms(prec ) = 0.18108E-03
  weight for this iteration     100.00

 eigenvalues of (default mixing * dielectric matrix)
  average eigenvalue GAMMA=   2.2950
  5.9813  4.3551  4.1841  4.1841  4.0820  4.0820  0.3682  0.3682  1.5359  1.5359
  0.7870  0.7870  0.7849  1.1842  1.1842  1.0164  1.0164  0.9149  3.4746  3.4746
  1.0707  1.3375  1.3375  1.3214  2.1156  2.1156  3.2563  2.4040  2.4040  1.7363
  1.8477  2.9252  2.9252  2.6838  2.6838  2.4860  2.4860  2.3132  2.3132  2.7819
  2.7112  2.7112  2.5862  2.5862  2.5225  2.4503  2.4503

 Free energy of the ion-electron system (eV)
  ---------------------------------------------------
  alpha Z        PSCENC =         0.23812204
  Ewald energy   TEWEN  =       129.01614939
  -Hartree energ DENC   =      -284.82934608
  -exchange      EXHF   =         0.00000000
  -V(xc)+E(xc)   XCENC  =        24.71945464
  PAW double counting   =       447.14622575     -447.93254013
  entropy T*S    EENTRO =         0.02934269
  eigenvalues    EBANDS =       -89.43653914
  atomic energy  EATOM  =       197.04175453
  Solvation  Ediel_sol  =         0.00000000
  ---------------------------------------------------
  free energy    TOTEN  =       -24.00737631 eV

  energy without entropy =      -24.03671900  energy(sigma->0) =      -24.01715721


--------------------------------------------------------------------------------------------------------




--------------------------------------- Iteration     10(  19)  ---------------------------------------


    POTLOK:  cpu time    1.7839: real time    1.7881
    SETDIJ:  cpu time    0.0063: real time    0.0063
    EDDIAG:  cpu time    0.4199: real time    0.4209
  RMM-DIIS:  cpu time    1.1489: real time    1.1517
    ORTHCH:  cpu time    0.0220: real time    0.0220
       DOS:  cpu time    0.0003: real time    0.0003
    --------------------------------------------
      LOOP:  cpu time    3.3813: real time    3.3893

 eigenvalue-minimisations  :    48
 total energy-change (2. order) :-0.9375546E-06  (-0.2118787E-07)
 number of electron       7.9999999 magnetization 
 augmentation part        0.1846370 magnetization 

 Free energy of the ion-electron system (eV)
  ---------------------------------------------------
  alpha Z        PSCENC =         0.23812204
  Ewald energy   TEWEN  =       129.01614939
  -Hartree energ DENC   =      -284.82947721
  -exchange      EXHF   =         0.00000000
  -V(xc)+E(xc)   XCENC  =        24.71944911
  PAW double counting   =       447.14985551     -447.93617615
  entropy T*S    EENTRO =         0.02935111
  eigenvalues    EBANDS =       -89.43640557
  atomic energy  EATOM  =       197.04175453
  Solvation  Ediel_sol  =         0.00000000
  ---------------------------------------------------
  free energy    TOTEN  =       -24.00737725 eV

  energy without entropy =      -24.03672836  energy(sigma->0) =      -24.01716095


--------------------------------------------------------------------------------------------------------




 average (electrostatic) potential at core
  the test charge radii are     0.5201  0.6991
  (the norm of the test charge is              1.0000)
       1 -41.7121       2 -41.4886       3 -41.2882       4 -41.4428       5 -57.9777



 E-fermi :  -9.0264     XC(G=0):  -0.6972     alpha+bet : -0.2071


 k-point     1 :       0.2500    0.2500    0.2500
  band No.  band energies     occupation 
      1     -16.8845      2.00000
      2      -9.4295      2.01519
      3      -9.2311      2.05482
      4      -9.1693      1.92970
      5      -0.3217      0.00000
      6       0.5466      0.00000
      7       0.6657      0.00000
      8       0.6879      0.00000

 k-point     2 :      -0.2500    0.2500    0.2500
  band No.  band energies     occupation 
      1     -16.8844      2.00000
      2      -9.4295      2.01519
      3      -9.2311      2.05484
      4      -9.1694      1.93000
      5      -0.3217      0.00000
      6       0.5467      0.00000
      7       0.6539      0.00000
      8       0.6911      0.00000

 k-point     3 :       0.2500   -0.2500    0.2500
  band No.  band energies     occupation 
      1     -16.8844      2.00000
      2      -9.4295      2.01519
      3      -9.2312      2.05488
      4      -9.1694      1.92995
      5      -0.3224      0.00000
      6       0.5477      0.00000
      7       0.6611      0.00000
      8       0.6897      0.00000

 k-point     4 :      -0.2500   -0.2500    0.2500
  band No.  band energies     occupation 
      1     -16.8845      2.00000
      2      -9.4296      2.01517
      3      -9.2312      2.05491
      4      -9.1694      1.93017
      5      -0.3204      0.00000
      6       0.5443      0.00000
      7       0.6622      0.00000
      8       0.6813      0.00000


--------------------------------------------------------------------------------------------------------


 soft charge-density along one line, spin component           1
         0         1         2         3         4         5         6         7         8         9
 total charge-density along one line

 pseudopotential strength for first ion, spin component:           1
 -2.344  -4.040  -0.001  -0.001   0.001
 -4.040  -6.876  -0.003  -0.004   0.002
 -0.001  -0.003  -0.337   0.002  -0.001
 -0.001  -0.004   0.002  -0.336  -0.001
  0.001   0.002  -0.001  -0.001  -0.338
 total augmentation occupancy for first ion, spin component:           1
  3.569  -0.654   0.267   0.260  -0.144
 -0.654   0.136  -0.049  -0.050   0.027
  0.267  -0.049   0.027   0.016  -0.009
  0.260  -0.050   0.016   0.023  -0.008
 -0.144   0.027  -0.009  -0.008   0.015


------------------------ aborting loop because EDIFF is reached ----------------------------------------


    CHARGE:  cpu time    0.2152: real time    0.2157
    FORLOC:  cpu time    0.1130: real time    0.1133
    FORNL :  cpu time    0.6098: real time    0.6113
    STRESS:  cpu time    1.9783: real time    1.9830
    FORCOR:  cpu time    1.8230: real time    1.8273
    FORHAR:  cpu time    0.5704: real time    0.5718
    MIXING:  cpu time    0.1499: real time    0.1502
    OFIELD:  cpu time    0.0000: real time    0.0000

  FORCE on cell =-STRESS in cart. coord.  units (eV):
  Direction    XX          YY          ZZ          XY          YZ          ZX
  --------------------------------------------------------------------------------------
  Alpha Z     0.23812     0.23812     0.23812
  Ewald      45.18647    45.28468    38.54495     2.11859    -0.04701     2.94658
  Hartree    95.90519    97.18272    91.74142     0.70783    -0.26039     1.16649
  E(xc)     -27.17682   -27.18012   -27.20085     0.01509    -0.00305     0.01753
  Local    -199.57829  -201.68870  -188.95605    -2.64156     0.67154    -4.04672
  n-local   -15.64788   -15.46185   -15.92298     0.52143     0.10871    -0.16768
  augment     0.11800     0.12344     0.11716    -0.00152    -0.00233     0.00006
  Kinetic   100.40036   101.53467   101.00664    -0.77974    -0.26958    -0.11940
  Fock        0.00000     0.00000     0.00000     0.00000     0.00000     0.00000
  -------------------------------------------------------------------------------------
  Total      -0.55485     0.03296    -0.43160    -0.05988     0.19788    -0.20315
  in kB      -0.87381     0.05191    -0.67971    -0.09430     0.31163    -0.31993
  external pressure =       -0.50 kB  Pullay stress =        0.00 kB

  kinetic pressure (ideal gas correction) =      0.15 kB
  total pressure  =     -0.35 kB
  Total+kin.    -0.849       0.233      -0.422      -0.123       0.409      -0.288

 VOLUME and BASIS-vectors are now :
 -----------------------------------------------------------------------------
  energy-cutoff  :      400.00
  volume of cell :     1017.34
      direct lattice vectors                 reciprocal lattice vectors
    10.016487503  0.000000000  0.000000000     0.099835396  0.000355106 -0.000628065
    -0.035295362  9.923014812  0.000000000     0.000000000  0.100775825 -0.000146823
     0.064338124  0.014912332 10.235440172     0.000000000 -0.000000000  0.097699755

  length of vectors
    10.016487503  9.923077583 10.235653242     0.099838003  0.100775932  0.097699755


 FORCES acting on ions
    electron-ion (+dipol)            ewald-force                    non-local-force                 convergence-correction
 -----------------------------------------------------------------------------------------------
   -.200E+02 0.301E+02 0.387E+02   0.222E+02 -.335E+02 -.429E+02   -.238E+01 0.326E+01 0.397E+01   -.483E-04 -.134E-04 -.257E-04
   0.522E+02 -.107E+01 0.669E+01   -.575E+02 0.136E+01 -.736E+01   0.494E+01 0.245E+00 0.517E+00   0.334E-05 0.151E-03 -.123E-03
   -.220E+02 -.476E+02 0.205E+01   0.239E+02 0.522E+02 -.230E+01   -.214E+01 -.454E+01 0.583E+00   -.173E-03 0.521E-04 -.698E-04
   -.127E+02 0.230E+02 -.459E+02   0.140E+02 -.254E+02 0.506E+02   -.193E+01 0.216E+01 -.492E+01   0.229E-04 -.708E-05 -.183E-03
   0.248E+01 -.433E+01 -.148E+01   -.265E+01 0.536E+01 0.197E+01   -.519E+00 0.339E+00 -.619E+00   -.935E-03 0.614E-03 -.219E-02
 -----------------------------------------------------------------------------------------------
   -.762E-03 0.109E+00 0.286E-01   0.178E-14 0.000E+00 0.000E+00   -.202E+01 0.147E+01 -.468E+00   -.113E-02 0.797E-03 -.259E-02


 POSITION                                       TOTAL-FORCE (eV/Angst)
 -----------------------------------------------------------------------------------
      5.46153      4.01659      3.76772        -0.154494     -0.119775     -0.245340
      3.95856      4.66135      4.41728        -0.347068      0.543873     -0.154815
      5.51517      5.64525      4.51643        -0.247757      0.073686      0.332981
      5.31815      4.15891      5.50880        -0.585889     -0.285920     -0.239372
      5.04856      4.64470      4.56234        -0.684191      1.369547     -0.135404
 -----------------------------------------------------------------------------------
    total drift:                               -2.019398      1.581410     -0.441949


--------------------------------------------------------------------------------------------------------



  FREE ENERGIE OF THE ION-ELECTRON SYSTEM (eV)
  ---------------------------------------------------
  free  energy   TOTEN  =       -24.00737725 eV

  energy  without entropy=      -24.03672836  energy(sigma->0) =      -24.01716095

 d Force = 0.9787265E-01[-0.318E-01, 0.228E+00]  d Energy = 0.7492425E-01 0.229E-01
 d Force =-0.5281289E+01[-0.560E+01,-0.497E+01]  d Ewald  =-0.5273305E+01-0.798E-02


--------------------------------------------------------------------------------------------------------


    POTLOK:  cpu time    1.8127: real time    1.8170


--------------------------------------------------------------------------------------------------------


           RANDOM_SEED =         578496055               30                0
   IONSTEP:  cpu time    0.0001: real time    0.0001

  ENERGY OF THE ELECTRON-ION-THERMOSTAT SYSTEM (eV)
  ---------------------------------------------------
% ion-electron   TOTEN  =       -24.007377  see above
  kinetic energy EKIN   =         0.118671
  kin. lattice  EKIN_LAT=         0.000000  (temperature  229.52 K)
  nose potential ES     =         0.017911
  nose kinetic   EPS    =         0.040939
  ---------------------------------------------------
  total energy   ETOTAL =       -23.829857 eV

  maximum distance moved by ions :      0.58E-02


 mean value of Nose-termostat <S>:     1.657 mean value of <T> :   229.518
 mean temperature <T/S>/<1/S>  :   229.518

    WAVPRE:  cpu time    0.4832: real time    0.4913
    FEWALD:  cpu time    0.0004: real time    0.0004
    ORTHCH:  cpu time    0.2189: real time    0.2194
 Prediction of Wavefunctions ALPHA= 0.836 BETA=-0.252
    POTLOK:  cpu time    1.7612: real time    1.7654
    EDDIAG:  cpu time    0.4435: real time    0.4446
     LOOP+:  cpu time   87.3125: real time   87.6714
    4ORBIT:  cpu time    0.0000: real time    0.0000

 total amount of memory used by VASP MPI-rank0   322361. kBytes
=======================================================================

   base      :      30000. kBytes
   nonlr-proj:        164. kBytes
   fftplans  :      94700. kBytes
   grid      :     169030. kBytes
   one-center:         15. kBytes
   wavefun   :      28452. kBytes

  
  
 General timing and accounting informations for this job:
 ========================================================
  
                  Total CPU time used (sec):      810.592
                            User time (sec):      795.037
                          System time (sec):       15.555
                         Elapsed time (sec):      815.871
  
                   Maximum memory used (kb):      502064.
                   Average memory used (kb):           0.
  
                          Minor page faults:      2390931
                          Major page faults:            0
                 Voluntary context switches:          399
