<?xml version="1.0" encoding="ISO-8859-1"?>
<modeling>
 <generator>
  <i name="program" type="string">vasp </i>
  <i name="version" type="string">5.4.4.18Apr17-6-g9f103f2a35  </i>
  <i name="subversion" type="string">(build Jul 12 2018 13:43:46) complex            parallel </i>
  <i name="platform" type="string">LinuxGNU </i>
  <i name="date" type="string">2019 06 22 </i>
  <i name="time" type="string">02:17:35 </i>
 </generator>
 <incar>
  <i type="int" name="ISTART">     0</i>
  <i type="string" name="PREC">a</i>
  <i type="string" name="ALGO">fast</i>
  <i type="int" name="MAXMIX">    50</i>
  <i type="int" name="ICHARG">     2</i>
  <i type="int" name="IBRION">     0</i>
  <i name="EDIFF">      0.00000100</i>
  <i type="int" name="NSW">    10</i>
  <i type="int" name="ISIF">     2</i>
  <i type="int" name="ISYM">     0</i>
  <i type="int" name="NBLOCK">     1</i>
  <i type="int" name="KBLOCK">   100</i>
  <i name="ENCUT">    400.00000000</i>
  <i name="POTIM">      2.00000000</i>
  <i name="TEBEG">     50.00000000</i>
  <i name="TEEND">     50.00000000</i>
  <i name="SMASS">      0.00000000</i>
  <i type="logical" name="LREAL"> T  </i>
  <i type="int" name="ISMEAR">     1</i>
  <i name="SIGMA">      0.20000000</i>
  <i name="KSPACING">      0.50000000</i>
  <i type="logical" name="KGAMMA"> F  </i>
  <i name="PSTRESS">      0.00000000</i>
  <i type="logical" name="LWAVE"> F  </i>
  <i type="logical" name="LCHARG"> F  </i>
  <v type="int" name="KPOINT_BSE">    -1     0     0     0</v>
 </incar>
 <structure name="primitive_cell" >
  <crystal>
   <varray name="basis" >
    <v>      10.01648750       0.00000000       0.00000000 </v>
    <v>      -0.03529536       9.92301481       0.00000000 </v>
    <v>       0.06433812       0.01491233      10.23544017 </v>
   </varray>
   <i name="volume">   1017.33882109 </i>
   <varray name="rec_basis" >
    <v>       0.09983540       0.00035511      -0.00062806 </v>
    <v>       0.00000000       0.10077582      -0.00014682 </v>
    <v>       0.00000000      -0.00000000       0.09769976 </v>
   </varray>
  </crystal>
  <varray name="positions" >
   <v>      -0.46181415       0.40680528       0.36056090 </v>
   <v>      -0.49697152       0.46665978       0.44552289 </v>
   <v>      -0.44734162      -0.43428041       0.44274872 </v>
   <v>       0.39521805       0.48011097       0.43904027 </v>
   <v>      -0.47156637       0.41617744      -0.46060953 </v>
  </varray>
 </structure>
 <varray name="primitive_index" >
  <v type="int" >        1 </v>
  <v type="int" >        5 </v>
  <v type="int" >        3 </v>
  <v type="int" >        2 </v>
  <v type="int" >        4 </v>
 </varray>
 <kpoints>
  <generation param="Monkhorst-Pack">
   <v type="int" name="divisions">       2        2        2 </v>
   <v name="usershift">      0.00000000       0.00000000       0.00000000 </v>
   <v name="genvec1">      0.50000000       0.00000000      -0.00000000 </v>
   <v name="genvec2">      0.00000000       0.50000000      -0.00000000 </v>
   <v name="genvec3">      0.00000000       0.00000000       0.50000000 </v>
   <v name="shift">      0.50000000       0.50000000       0.50000000 </v>
  </generation>
  <varray name="kpointlist" >
   <v>       0.25000000       0.25000000       0.25000000 </v>
   <v>      -0.25000000       0.25000000       0.25000000 </v>
   <v>       0.25000000      -0.25000000       0.25000000 </v>
   <v>      -0.25000000      -0.25000000       0.25000000 </v>
  </varray>
  <varray name="weights" >
   <v>       0.25000000 </v>
   <v>       0.25000000 </v>
   <v>       0.25000000 </v>
   <v>       0.25000000 </v>
  </varray>
 </kpoints>
 <parameters>
  <separator name="general" >
   <i type="string" name="SYSTEM">unknown system</i>
   <i type="logical" name="LCOMPAT"> F  </i>
  </separator>
  <separator name="electronic" >
   <i type="string" name="PREC">a</i>
   <i name="ENMAX">    400.00000000</i>
   <i name="ENAUG">    644.87300000</i>
   <i name="EDIFF">      0.00000100</i>
   <i type="int" name="IALGO">    68</i>
   <i type="int" name="IWAVPR">    12</i>
   <i type="int" name="NBANDS">     8</i>
   <i name="NELECT">      8.00000000</i>
   <i type="int" name="TURBO">     0</i>
   <i type="int" name="IRESTART">     0</i>
   <i type="int" name="NREBOOT">     0</i>
   <i type="int" name="NMIN">     0</i>
   <i name="EREF">      0.00000000</i>
   <separator name="electronic smearing" >
    <i type="int" name="ISMEAR">     1</i>
    <i name="SIGMA">      0.20000000</i>
    <i name="KSPACING">      0.50000000</i>
    <i type="logical" name="KGAMMA"> F  </i>
   </separator>
   <separator name="electronic projectors" >
    <i type="logical" name="LREAL"> T  </i>
    <v name="ROPT">      0.00000000      0.00000000</v>
    <i type="int" name="LMAXPAW">  -100</i>
    <i type="int" name="LMAXMIX">     2</i>
    <i type="logical" name="NLSPLINE"> F  </i>
   </separator>
   <separator name="electronic startup" >
    <i type="int" name="ISTART">     0</i>
    <i type="int" name="ICHARG">     2</i>
    <i type="int" name="INIWAV">     1</i>
   </separator>
   <separator name="electronic spin" >
    <i type="int" name="ISPIN">     1</i>
    <i type="logical" name="LNONCOLLINEAR"> F  </i>
    <v name="MAGMOM">      1.00000000      1.00000000      1.00000000      1.00000000      1.00000000</v>
    <i name="NUPDOWN">     -1.00000000</i>
    <i type="logical" name="LSORBIT"> F  </i>
    <v name="SAXIS">      0.00000000      0.00000000      1.00000000</v>
    <i type="logical" name="LSPIRAL"> F  </i>
    <v name="QSPIRAL">      0.00000000      0.00000000      0.00000000</v>
    <i type="logical" name="LZEROZ"> F  </i>
   </separator>
   <separator name="electronic exchange-correlation" >
    <i type="logical" name="LASPH"> F  </i>
    <i type="logical" name="LMETAGGA"> F  </i>
   </separator>
   <separator name="electronic convergence" >
    <i type="int" name="NELM">    60</i>
    <i type="int" name="NELMDL">    -5</i>
    <i type="int" name="NELMIN">     2</i>
    <i name="ENINI">    400.00000000</i>
    <separator name="electronic convergence detail" >
     <i type="logical" name="LDIAG"> T  </i>
     <i type="logical" name="LSUBROT"> F  </i>
     <i name="WEIMIN">      0.00100000</i>
     <i name="EBREAK">      0.00000003</i>
     <i name="DEPER">      0.30000000</i>
     <i type="int" name="NRMM">     4</i>
     <i name="TIME">      0.40000000</i>
    </separator>
   </separator>
   <separator name="electronic mixer" >
    <i name="AMIX">      0.40000000</i>
    <i name="BMIX">      1.00000000</i>
    <i name="AMIN">      0.10000000</i>
    <i name="AMIX_MAG">      1.60000000</i>
    <i name="BMIX_MAG">      1.00000000</i>
    <separator name="electronic mixer details" >
     <i type="int" name="IMIX">     4</i>
     <i type="logical" name="MIXFIRST"> F  </i>
     <i type="int" name="MAXMIX">    50</i>
     <i name="WC">    100.00000000</i>
     <i type="int" name="INIMIX">     1</i>
     <i type="int" name="MIXPRE">     1</i>
     <i type="int" name="MREMOVE">     5</i>
    </separator>
   </separator>
   <separator name="electronic dipolcorrection" >
    <i type="logical" name="LDIPOL"> F  </i>
    <i type="logical" name="LMONO"> F  </i>
    <i type="int" name="IDIPOL">     0</i>
    <i name="EPSILON">      1.00000000</i>
    <v name="DIPOL">   -100.00000000   -100.00000000   -100.00000000</v>
    <i name="EFIELD">      0.00000000</i>
   </separator>
  </separator>
  <separator name="grids" >
   <i type="int" name="NGX">    70</i>
   <i type="int" name="NGY">    70</i>
   <i type="int" name="NGZ">    70</i>
   <i type="int" name="NGXF">   140</i>
   <i type="int" name="NGYF">   140</i>
   <i type="int" name="NGZF">   140</i>
   <i type="logical" name="ADDGRID"> F  </i>
  </separator>
  <separator name="ionic" >
   <i type="int" name="NSW">    10</i>
   <i type="int" name="IBRION">     0</i>
   <i type="int" name="MDALGO">     0</i>
   <i type="int" name="ISIF">     2</i>
   <i name="PSTRESS">      0.00000000</i>
   <i name="EDIFFG">      0.00001000</i>
   <i type="int" name="NFREE">     0</i>
   <i name="POTIM">      2.00000000</i>
   <i name="SMASS">      0.00161216</i>
   <i name="SCALEE">      1.00000000</i>
  </separator>
  <separator name="ionic md" >
   <i name="TEBEG">     50.00000000</i>
   <i name="TEEND">     50.00000000</i>
   <i type="int" name="NBLOCK">     1</i>
   <i type="int" name="KBLOCK">     1</i>
   <i type="int" name="NPACO">   256</i>
   <i name="APACO">     16.00000000</i>
  </separator>
  <separator name="symmetry" >
   <i type="int" name="ISYM">     0</i>
   <i name="SYMPREC">      0.00001000</i>
  </separator>
  <separator name="dos" >
   <i type="int" name="LORBIT">     0</i>
   <v name="RWIGS">     -1.00000000     -1.00000000</v>
   <i type="int" name="NEDOS">   301</i>
   <i name="EMIN">     10.00000000</i>
   <i name="EMAX">    -10.00000000</i>
   <i name="EFERMI">      0.00000000</i>
  </separator>
  <separator name="writing" >
   <i type="int" name="NWRITE">     2</i>
   <i type="logical" name="LWAVE"> F  </i>
   <i type="logical" name="LDOWNSAMPLE"> F  </i>
   <i type="logical" name="LCHARG"> F  </i>
   <i type="logical" name="LPARD"> F  </i>
   <i type="logical" name="LVTOT"> F  </i>
   <i type="logical" name="LVHAR"> F  </i>
   <i type="logical" name="LELF"> F  </i>
   <i type="logical" name="LOPTICS"> F  </i>
   <v name="STM">      0.00000000      0.00000000      0.00000000      0.00000000      0.00000000      0.00000000      0.00000000</v>
  </separator>
  <separator name="performance" >
   <i type="int" name="NPAR">     1</i>
   <i type="int" name="NSIM">     4</i>
   <i type="int" name="NBLK">    -1</i>
   <i type="logical" name="LPLANE"> T  </i>
   <i type="logical" name="LSCALAPACK"> T  </i>
   <i type="logical" name="LSCAAWARE"> F  </i>
   <i type="logical" name="LSCALU"> F  </i>
   <i type="logical" name="LASYNC"> F  </i>
   <i type="logical" name="LORBITALREAL"> F  </i>
  </separator>
  <separator name="miscellaneous" >
   <i type="int" name="IDIOT">     3</i>
   <i type="int" name="ISPECIAL">     0</i>
   <i type="logical" name="LMUSIC"> F  </i>
   <v name="POMASS">      1.00000000     12.01100000</v>
   <v name="DARWINR">      0.00000000      0.00000000</v>
   <v name="DARWINV">      1.00000000      1.00000000</v>
   <i type="logical" name="LCORR"> T  </i>
  </separator>
  <i type="logical" name="GGA_COMPAT"> T  </i>
  <i type="logical" name="LBERRY"> F  </i>
  <i type="int" name="ICORELEVEL">     0</i>
  <i type="logical" name="LDAU"> F  </i>
  <i type="int" name="I_CONSTRAINED_M">     0</i>
  <separator name="electronic exchange-correlation" >
   <i type="string" name="GGA">--</i>
   <i type="int" name="VOSKOWN">     0</i>
   <i type="logical" name="LHFCALC"> F  </i>
   <i type="string" name="PRECFOCK"></i>
   <i type="logical" name="LSYMGRAD"> F  </i>
   <i type="logical" name="LHFONE"> F  </i>
   <i type="logical" name="LRHFCALC"> F  </i>
   <i type="logical" name="LTHOMAS"> F  </i>
   <i type="logical" name="LMODELHF"> F  </i>
   <i name="ENCUT4O">     -1.00000000</i>
   <i type="int" name="EXXOEP">     0</i>
   <i type="int" name="FOURORBIT">     0</i>
   <i name="AEXX">      0.00000000</i>
   <i name="HFALPHA">      0.00000000</i>
   <i name="MCALPHA">      0.00000000</i>
   <i name="ALDAX">      1.00000000</i>
   <i name="AGGAX">      1.00000000</i>
   <i name="ALDAC">      1.00000000</i>
   <i name="AGGAC">      1.00000000</i>
   <i type="int" name="NKREDX">     1</i>
   <i type="int" name="NKREDY">     1</i>
   <i type="int" name="NKREDZ">     1</i>
   <i type="logical" name="SHIFTRED"> F  </i>
   <i type="logical" name="ODDONLY"> F  </i>
   <i type="logical" name="EVENONLY"> F  </i>
   <i type="int" name="LMAXFOCK">     0</i>
   <i type="int" name="NMAXFOCKAE">     0</i>
   <i type="logical" name="LFOCKAEDFT"> F  </i>
   <i name="HFSCREEN">      0.00000000</i>
   <i name="HFSCREENC">      0.00000000</i>
   <i type="int" name="NBANDSGWLOW">     0</i>
  </separator>
  <separator name="vdW DFT" >
   <i type="logical" name="LUSE_VDW"> F  </i>
   <i name="Zab_VDW">     -0.84910000</i>
   <i name="PARAM1">      0.12340000</i>
   <i name="PARAM2">      1.00000000</i>
   <i name="PARAM3">      0.00000000</i>
  </separator>
  <separator name="model GW" >
   <i type="int" name="MODEL_GW">     0</i>
   <i name="MODEL_EPS0">    122.08065853</i>
   <i name="MODEL_ALPHA">      1.00000000</i>
  </separator>
  <separator name="linear response parameters" >
   <i type="logical" name="LEPSILON"> F  </i>
   <i type="logical" name="LRPA"> F  </i>
   <i type="logical" name="LNABLA"> F  </i>
   <i type="logical" name="LVEL"> F  </i>
   <i type="int" name="KINTER">     0</i>
   <i name="CSHIFT">      0.10000000</i>
   <i name="OMEGAMAX">     -1.00000000</i>
   <i name="DEG_THRESHOLD">      0.00200000</i>
   <i name="RTIME">     -0.10000000</i>
   <i name="WPLASMAI">      0.00000000</i>
   <v name="DFIELD">      0.00000000      0.00000000      0.00000000</v>
   <v name="WPLASMA">      0.00000000      0.00000000      0.00000000      0.00000000      0.00000000      0.00000000      0.00000000      0.00000000      0.00000000</v>
  </separator>
  <separator name="orbital magnetization" >
   <i type="logical" name="NUCIND"> F  </i>
   <v name="MAGPOS">      0.00000000      0.00000000      0.00000000</v>
   <i type="logical" name="LNICSALL"> T  </i>
   <i type="logical" name="ORBITALMAG"> F  </i>
   <i type="logical" name="LMAGBLOCH"> F  </i>
   <i type="logical" name="LCHIMAG"> F  </i>
   <i type="logical" name="LGAUGE"> T  </i>
   <i type="int" name="MAGATOM">     0</i>
   <v name="MAGDIPOL">      0.00000000      0.00000000      0.00000000</v>
   <v name="AVECCONST">      0.00000000      0.00000000      0.00000000</v>
  </separator>
  <separator name="response functions" >
   <i type="logical" name="LADDER"> F  </i>
   <i type="logical" name="LRPAFORCE"> F  </i>
   <i type="logical" name="LFXC"> F  </i>
   <i type="logical" name="LHARTREE"> T  </i>
   <i type="int" name="IBSE">     0</i>
   <v type="int" name="KPOINT">    -1     0     0     0</v>
   <i type="logical" name="LTCTE"> F  </i>
   <i type="logical" name="LTETE"> F  </i>
   <i type="logical" name="LTRIPLET"> F  </i>
   <i type="logical" name="LFXCEPS"> F  </i>
   <i type="logical" name="LFXHEG"> F  </i>
   <i type="int" name="NATURALO">     2</i>
   <i type="logical" name="L2ORDER"> F  </i>
   <i type="logical" name="LMP2LT"> F  </i>
   <i type="logical" name="LUSEW"> F  </i>
   <i name="ENCUTGW">     -2.00000000</i>
   <i name="ENCUTGWSOFT">     -2.00000000</i>
   <i name="ENCUTLF">     -1.00000000</i>
   <i type="int" name="LMAXMP2">    -1</i>
   <i name="SCISSOR">      0.00000000</i>
   <i type="int" name="NOMEGA">     0</i>
   <i type="int" name="NOMEGAR">     0</i>
   <i type="int" name="NBANDSGW">    -1</i>
   <i type="int" name="NBANDSO">    -1</i>
   <i type="int" name="NBANDSV">    -1</i>
   <i type="int" name="NELM">     1</i>
   <i type="int" name="NELMHF">     1</i>
   <i type="int" name="DIM">     3</i>
   <i type="int" name="ANTIRES">     0</i>
   <i name="OMEGAMAX">    -30.00000000</i>
   <i name="OMEGAMIN">    -30.00000000</i>
   <i name="OMEGATL">   -200.00000000</i>
   <i type="int" name="OMEGAGRID">   140</i>
   <i name="CSHIFT">     -0.10000000</i>
   <i type="logical" name="SELFENERGY"> F  </i>
   <i type="logical" name="LSPECTRAL"> F  </i>
   <i type="logical" name="LSPECTRALGW"> F  </i>
   <i type="logical" name="LSINGLES"> F  </i>
   <i type="logical" name="LFERMIGW"> F  </i>
   <i type="logical" name="ODDONLYGW"> F  </i>
   <i type="logical" name="EVENONLYGW"> F  </i>
   <i type="int" name="NKREDLFX">     1</i>
   <i type="int" name="NKREDLFY">     1</i>
   <i type="int" name="NKREDLFZ">     1</i>
   <i type="int" name="MAXMEM">  2800</i>
   <i type="int" name="TELESCOPE">     0</i>
   <i type="int" name="TAUPAR">     1</i>
   <i type="int" name="OMEGAPAR">    -1</i>
   <i name="LAMBDA">      1.00000000</i>
  </separator>
  <separator name="External order field" >
   <i name="OFIELD_KAPPA">      0.00000000</i>
   <v name="OFIELD_K">      0.00000000      0.00000000      0.00000000</v>
   <i name="OFIELD_Q6_NEAR">      0.00000000</i>
   <i name="OFIELD_Q6_FAR">      0.00000000</i>
   <i name="OFIELD_A">      0.00000000</i>
  </separator>
 </parameters>
 <atominfo>
  <atoms>       5 </atoms>
  <types>       2 </types>
  <array name="atoms" >
   <dimension dim="1">ion</dimension>
   <field type="string">element</field>
   <field type="int">atomtype</field>
   <set>
    <rc><c>H </c><c>   1</c></rc>
    <rc><c>H </c><c>   1</c></rc>
    <rc><c>H </c><c>   1</c></rc>
    <rc><c>H </c><c>   1</c></rc>
    <rc><c>C </c><c>   2</c></rc>
   </set>
  </array>
  <array name="atomtypes" >
   <dimension dim="1">type</dimension>
   <field type="int">atomspertype</field>
   <field type="string">element</field>
   <field>mass</field>
   <field>valence</field>
   <field type="string">pseudopotential</field>
   <set>
    <rc><c>   4</c><c>H </c><c>      1.00000000</c><c>      1.00000000</c><c>  PAW_PBE H 15Jun2001                   </c></rc>
    <rc><c>   1</c><c>C </c><c>     12.01100000</c><c>      4.00000000</c><c>  PAW_PBE C 08Apr2002                   </c></rc>
   </set>
  </array>
 </atominfo>
 <structure name="initialpos" >
  <crystal>
   <varray name="basis" >
    <v>      10.01648750       0.00000000       0.00000000 </v>
    <v>      -0.03529536       9.92301481       0.00000000 </v>
    <v>       0.06433812       0.01491233      10.23544017 </v>
   </varray>
   <i name="volume">   1017.33882109 </i>
   <varray name="rec_basis" >
    <v>       0.09983540       0.00035511      -0.00062806 </v>
    <v>       0.00000000       0.10077582      -0.00014682 </v>
    <v>       0.00000000      -0.00000000       0.09769976 </v>
   </varray>
  </crystal>
  <varray name="positions" >
   <v>       0.53818585       0.40680528       0.36056090 </v>
   <v>       0.39521805       0.48011097       0.43904027 </v>
   <v>       0.55265838       0.56571959       0.44274872 </v>
   <v>       0.52843363       0.41617744       0.53939047 </v>
   <v>       0.50302848       0.46665978       0.44552289 </v>
  </varray>
  <varray name="velocities" >
   <v>       0.00037636      -0.00014031       0.00027712 </v>
   <v>      -0.00057245       0.00243356       0.00003925 </v>
   <v>      -0.00079656       0.00036183       0.00060322 </v>
   <v>       0.00267122       0.00122631      -0.00149534 </v>
   <v>      -0.00013975      -0.00032315       0.00004794 </v>
  </varray>
 </structure>
 <calculation>
  <scstep>
   <time name="dav">    3.07    3.08</time>
   <time name="total">    4.94    4.95</time>
   <energy>
    <i name="alphaZ">      0.23812204 </i>
    <i name="ewald">    127.86620219 </i>
    <i name="hartreedc">   -243.87727521 </i>
    <i name="XCdc">     21.97115606 </i>
    <i name="pawpsdc">    117.05815612 </i>
    <i name="pawaedc">   -117.66307307 </i>
    <i name="eentropy">      0.00360759 </i>
    <i name="bandstr">    -87.47216620 </i>
    <i name="atom">    197.04175453 </i>
    <i name="e_fr_energy">     15.16648406 </i>
    <i name="e_wo_entrp">     15.16287647 </i>
    <i name="e_0_energy">     15.16528153 </i>
   </energy>
  </scstep>
  <scstep>
   <time name="dav">    2.19    2.20</time>
   <time name="total">    2.19    2.20</time>
   <energy>
    <i name="e_fr_energy">    -22.70656105 </i>
    <i name="e_wo_entrp">    -22.71912356 </i>
    <i name="e_0_energy">    -22.71074855 </i>
   </energy>
  </scstep>
  <scstep>
   <time name="dav">    2.18    2.19</time>
   <time name="total">    2.18    2.19</time>
   <energy>
    <i name="e_fr_energy">    -27.26137663 </i>
    <i name="e_wo_entrp">    -27.29831787 </i>
    <i name="e_0_energy">    -27.27369038 </i>
   </energy>
  </scstep>
  <scstep>
   <time name="dav">    3.91    3.92</time>
   <time name="total">    3.91    3.92</time>
   <energy>
    <i name="e_fr_energy">    -27.44618011 </i>
    <i name="e_wo_entrp">    -27.48291804 </i>
    <i name="e_0_energy">    -27.45842609 </i>
   </energy>
  </scstep>
  <scstep>
   <time name="dav">    3.02    3.02</time>
   <time name="total">    3.27    3.28</time>
   <energy>
    <i name="e_fr_energy">    -27.44623823 </i>
    <i name="e_wo_entrp">    -27.48297593 </i>
    <i name="e_0_energy">    -27.45848413 </i>
   </energy>
  </scstep>
  <scstep>
   <time name="diag">    0.49    0.49</time>
   <time name="diis">    1.60    1.60</time>
   <time name="orth">    0.01    0.01</time>
   <time name="total">    4.20    4.21</time>
   <energy>
    <i name="e_fr_energy">    -24.62619716 </i>
    <i name="e_wo_entrp">    -24.66540322 </i>
    <i name="e_0_energy">    -24.63926585 </i>
   </energy>
  </scstep>
  <scstep>
   <time name="diag">    0.49    0.49</time>
   <time name="diis">    1.55    1.55</time>
   <time name="orth">    0.01    0.01</time>
   <time name="total">    4.17    4.18</time>
   <energy>
    <i name="e_fr_energy">    -24.14697889 </i>
    <i name="e_wo_entrp">    -24.18598183 </i>
    <i name="e_0_energy">    -24.15997987 </i>
   </energy>
  </scstep>
  <scstep>
   <time name="diag">    0.48    0.48</time>
   <time name="diis">    1.55    1.56</time>
   <time name="orth">    0.01    0.01</time>
   <time name="total">    4.18    4.19</time>
   <energy>
    <i name="e_fr_energy">    -24.01527477 </i>
    <i name="e_wo_entrp">    -24.05624718 </i>
    <i name="e_0_energy">    -24.02893224 </i>
   </energy>
  </scstep>
  <scstep>
   <time name="diag">    0.45    0.45</time>
   <time name="diis">    1.59    1.59</time>
   <time name="orth">    0.01    0.01</time>
   <time name="total">    4.22    4.23</time>
   <energy>
    <i name="e_fr_energy">    -23.99734191 </i>
    <i name="e_wo_entrp">    -24.03558462 </i>
    <i name="e_0_energy">    -24.01008948 </i>
   </energy>
  </scstep>
  <scstep>
   <time name="diag">    0.47    0.47</time>
   <time name="diis">    1.63    1.63</time>
   <time name="orth">    0.01    0.01</time>
   <time name="total">    4.25    4.26</time>
   <energy>
    <i name="e_fr_energy">    -23.99536360 </i>
    <i name="e_wo_entrp">    -24.03312484 </i>
    <i name="e_0_energy">    -24.00795068 </i>
   </energy>
  </scstep>
  <scstep>
   <time name="diag">    0.47    0.47</time>
   <time name="diis">    1.59    1.60</time>
   <time name="orth">    0.01    0.01</time>
   <time name="total">    4.22    4.23</time>
   <energy>
    <i name="e_fr_energy">    -23.99440346 </i>
    <i name="e_wo_entrp">    -24.03230757 </i>
    <i name="e_0_energy">    -24.00703816 </i>
   </energy>
  </scstep>
  <scstep>
   <time name="diag">    0.46    0.47</time>
   <time name="diis">    1.63    1.64</time>
   <time name="orth">    0.01    0.01</time>
   <time name="total">    4.22    4.23</time>
   <energy>
    <i name="e_fr_energy">    -23.99092581 </i>
    <i name="e_wo_entrp">    -24.02879192 </i>
    <i name="e_0_energy">    -24.00354785 </i>
   </energy>
  </scstep>
  <scstep>
   <time name="diag">    0.46    0.47</time>
   <time name="diis">    1.69    1.69</time>
   <time name="orth">    0.01    0.01</time>
   <time name="total">    4.21    4.22</time>
   <energy>
    <i name="e_fr_energy">    -23.99108938 </i>
    <i name="e_wo_entrp">    -24.02901392 </i>
    <i name="e_0_energy">    -24.00373089 </i>
   </energy>
  </scstep>
  <scstep>
   <time name="diag">    0.48    0.48</time>
   <time name="diis">    1.66    1.66</time>
   <time name="orth">    0.01    0.01</time>
   <time name="total">    4.07    4.08</time>
   <energy>
    <i name="e_fr_energy">    -23.99819984 </i>
    <i name="e_wo_entrp">    -24.03600693 </i>
    <i name="e_0_energy">    -24.01080220 </i>
   </energy>
  </scstep>
  <scstep>
   <time name="diag">    0.49    0.49</time>
   <time name="diis">    1.63    1.63</time>
   <time name="orth">    0.01    0.01</time>
   <time name="total">    4.03    4.04</time>
   <energy>
    <i name="e_fr_energy">    -24.00008889 </i>
    <i name="e_wo_entrp">    -24.03797276 </i>
    <i name="e_0_energy">    -24.01271685 </i>
   </energy>
  </scstep>
  <scstep>
   <time name="diag">    0.48    0.48</time>
   <time name="diis">    1.60    1.61</time>
   <time name="orth">    0.01    0.01</time>
   <time name="total">    4.03    4.04</time>
   <energy>
    <i name="e_fr_energy">    -24.00183369 </i>
    <i name="e_wo_entrp">    -24.03973561 </i>
    <i name="e_0_energy">    -24.01446766 </i>
   </energy>
  </scstep>
  <scstep>
   <time name="diag">    0.47    0.47</time>
   <time name="diis">    1.61    1.62</time>
   <time name="orth">    0.01    0.01</time>
   <time name="total">    4.01    4.02</time>
   <energy>
    <i name="e_fr_energy">    -24.00232488 </i>
    <i name="e_wo_entrp">    -24.04022220 </i>
    <i name="e_0_energy">    -24.01495732 </i>
   </energy>
  </scstep>
  <scstep>
   <time name="diag">    0.47    0.48</time>
   <time name="diis">    1.61    1.61</time>
   <time name="orth">    0.01    0.01</time>
   <time name="total">    4.00    4.01</time>
   <energy>
    <i name="e_fr_energy">    -24.00257522 </i>
    <i name="e_wo_entrp">    -24.04045489 </i>
    <i name="e_0_energy">    -24.01520177 </i>
   </energy>
  </scstep>
  <scstep>
   <time name="diag">    0.47    0.47</time>
   <time name="diis">    1.58    1.58</time>
   <time name="orth">    0.01    0.01</time>
   <time name="total">    3.96    3.97</time>
   <energy>
    <i name="e_fr_energy">    -24.00258570 </i>
    <i name="e_wo_entrp">    -24.04046738 </i>
    <i name="e_0_energy">    -24.01521292 </i>
   </energy>
  </scstep>
  <scstep>
   <time name="diag">    0.45    0.45</time>
   <time name="diis">    1.60    1.60</time>
   <time name="orth">    0.01    0.01</time>
   <time name="total">    4.07    4.08</time>
   <energy>
    <i name="e_fr_energy">    -24.00261147 </i>
    <i name="e_wo_entrp">    -24.04049563 </i>
    <i name="e_0_energy">    -24.01523952 </i>
   </energy>
  </scstep>
  <scstep>
   <time name="diag">    0.46    0.46</time>
   <time name="diis">    1.26    1.26</time>
   <time name="orth">    0.01    0.01</time>
   <time name="total">    3.74    3.75</time>
   <energy>
    <i name="e_fr_energy">    -24.00261587 </i>
    <i name="e_wo_entrp">    -24.04050055 </i>
    <i name="e_0_energy">    -24.01524409 </i>
   </energy>
  </scstep>
  <scstep>
   <time name="diag">    0.45    0.45</time>
   <time name="diis">    1.23    1.23</time>
   <time name="orth">    0.01    0.01</time>
   <time name="total">    3.73    3.74</time>
   <energy>
    <i name="e_fr_energy">    -24.00261841 </i>
    <i name="e_wo_entrp">    -24.04050354 </i>
    <i name="e_0_energy">    -24.01524679 </i>
   </energy>
  </scstep>
  <scstep>
   <time name="diag">    0.47    0.47</time>
   <time name="diis">    1.18    1.19</time>
   <time name="orth">    0.01    0.01</time>
   <time name="total">    3.44    3.44</time>
   <energy>
    <i name="alphaZ">      0.23812204 </i>
    <i name="ewald">    127.86620219 </i>
    <i name="hartreedc">   -283.85137339 </i>
    <i name="XCdc">     24.66945734 </i>
    <i name="pawpsdc">    455.84132783 </i>
    <i name="pawaedc">   -456.62472017 </i>
    <i name="eentropy">      0.03788466 </i>
    <i name="bandstr">    -89.22127377 </i>
    <i name="atom">    197.04175453 </i>
    <i name="e_fr_energy">    -24.00261875 </i>
    <i name="e_wo_entrp">    -24.04050341 </i>
    <i name="e_0_energy">    -24.01524697 </i>
   </energy>
  </scstep>
  <structure>
   <crystal>
    <varray name="basis" >
     <v>      10.01648750       0.00000000       0.00000000 </v>
     <v>      -0.03529536       9.92301481       0.00000000 </v>
     <v>       0.06433812       0.01491233      10.23544017 </v>
    </varray>
    <i name="volume">   1017.33882109 </i>
    <varray name="rec_basis" >
     <v>       0.09983540       0.00035511      -0.00062806 </v>
     <v>       0.00000000       0.10077582      -0.00014682 </v>
     <v>       0.00000000      -0.00000000       0.09769976 </v>
    </varray>
   </crystal>
   <varray name="positions" >
    <v>       0.53818585       0.40680528       0.36056090 </v>
    <v>       0.39521805       0.48011097       0.43904027 </v>
    <v>       0.55265838       0.56571959       0.44274872 </v>
    <v>       0.52843363       0.41617744       0.53939047 </v>
    <v>       0.50302848       0.46665978       0.44552289 </v>
   </varray>
  </structure>
  <varray name="forces" >
   <v>       0.03844844       0.30122013       0.40633999 </v>
   <v>       0.49306954       0.09367344       0.59156484 </v>
   <v>       0.13376880       0.14020258       0.03485516 </v>
   <v>      -0.29115622       0.13042452      -0.38875559 </v>
   <v>      -0.35924598       0.75032756      -0.04668108 </v>
  </varray>
  <varray name="stress" >
   <v>      -1.34871936       1.14846643      -0.30898967 </v>
   <v>       1.14846643      -0.94323479       0.40445334 </v>
   <v>      -0.30898967       0.40445334      -1.89468771 </v>
  </varray>
  <energy>
   <i name="e_fr_energy">    -24.00261875 </i>
   <i name="e_wo_entrp">    -24.01524697 </i>
   <i name="e_0_energy">      0.03788466 </i>
   <i name="kinetic">      0.02995287 </i>
   <i name="lattice kinetic">      0.00000000 </i>
   <i name="nosepot">      0.00000000 </i>
   <i name="nosekinetic">      0.00000201 </i>
   <i name="total">    -23.97266387 </i>
  </energy>
  <dos>
   <i name="efermi">     -9.07960568 </i>
   <total>
    <array>
     <dimension dim="1">gridpoints</dimension>
     <dimension dim="2">spin</dimension>
     <field>energy</field>
     <field>total</field>
     <field>integrated</field>
     <set>
      <set comment="spin 1">
       <r>   -18.8332     0.0000     0.0000 </r>
       <r>   -18.7615     0.0000     0.0000 </r>
       <r>   -18.6897     0.0000     0.0000 </r>
       <r>   -18.6180     0.0000     0.0000 </r>
       <r>   -18.5462     0.0000     0.0000 </r>
       <r>   -18.4744    -0.0000    -0.0000 </r>
       <r>   -18.4027    -0.0000    -0.0000 </r>
       <r>   -18.3309    -0.0000    -0.0000 </r>
       <r>   -18.2591    -0.0000    -0.0000 </r>
       <r>   -18.1874    -0.0000    -0.0000 </r>
       <r>   -18.1156    -0.0000    -0.0000 </r>
       <r>   -18.0439    -0.0000    -0.0000 </r>
       <r>   -17.9721    -0.0000    -0.0000 </r>
       <r>   -17.9003    -0.0000    -0.0000 </r>
       <r>   -17.8286    -0.0000    -0.0000 </r>
       <r>   -17.7568    -0.0000    -0.0000 </r>
       <r>   -17.6851    -0.0000    -0.0000 </r>
       <r>   -17.6133    -0.0000    -0.0000 </r>
       <r>   -17.5415    -0.0001    -0.0000 </r>
       <r>   -17.4698    -0.0008    -0.0001 </r>
       <r>   -17.3980    -0.0058    -0.0005 </r>
       <r>   -17.3263    -0.0309    -0.0027 </r>
       <r>   -17.2545    -0.1180    -0.0112 </r>
       <r>   -17.1827    -0.3049    -0.0330 </r>
       <r>   -17.1110    -0.4362    -0.0643 </r>
       <r>   -17.0392     0.1173    -0.0559 </r>
       <r>   -16.9674     2.1894     0.1012 </r>
       <r>   -16.8957     5.5408     0.4988 </r>
       <r>   -16.8239     8.0780     1.0785 </r>
       <r>   -16.7522     7.6494     1.6274 </r>
       <r>   -16.6804     4.6420     1.9605 </r>
       <r>   -16.6086     1.4872     2.0673 </r>
       <r>   -16.5369    -0.1440     2.0569 </r>
       <r>   -16.4651    -0.4330     2.0259 </r>
       <r>   -16.3934    -0.2491     2.0080 </r>
       <r>   -16.3216    -0.0863     2.0018 </r>
       <r>   -16.2498    -0.0207     2.0003 </r>
       <r>   -16.1781    -0.0036     2.0000 </r>
       <r>   -16.1063    -0.0005     2.0000 </r>
       <r>   -16.0345    -0.0000     2.0000 </r>
       <r>   -15.9628    -0.0000     2.0000 </r>
       <r>   -15.8910    -0.0000     2.0000 </r>
       <r>   -15.8193    -0.0000     2.0000 </r>
       <r>   -15.7475    -0.0000     2.0000 </r>
       <r>   -15.6757    -0.0000     2.0000 </r>
       <r>   -15.6040    -0.0000     2.0000 </r>
       <r>   -15.5322     0.0000     2.0000 </r>
       <r>   -15.4605     0.0000     2.0000 </r>
       <r>   -15.3887     0.0000     2.0000 </r>
       <r>   -15.3169     0.0000     2.0000 </r>
       <r>   -15.2452     0.0000     2.0000 </r>
       <r>   -15.1734     0.0000     2.0000 </r>
       <r>   -15.1017     0.0000     2.0000 </r>
       <r>   -15.0299     0.0000     2.0000 </r>
       <r>   -14.9581     0.0000     2.0000 </r>
       <r>   -14.8864     0.0000     2.0000 </r>
       <r>   -14.8146     0.0000     2.0000 </r>
       <r>   -14.7428     0.0000     2.0000 </r>
       <r>   -14.6711     0.0000     2.0000 </r>
       <r>   -14.5993     0.0000     2.0000 </r>
       <r>   -14.5276     0.0000     2.0000 </r>
       <r>   -14.4558     0.0000     2.0000 </r>
       <r>   -14.3840     0.0000     2.0000 </r>
       <r>   -14.3123     0.0000     2.0000 </r>
       <r>   -14.2405     0.0000     2.0000 </r>
       <r>   -14.1688     0.0000     2.0000 </r>
       <r>   -14.0970     0.0000     2.0000 </r>
       <r>   -14.0252     0.0000     2.0000 </r>
       <r>   -13.9535     0.0000     2.0000 </r>
       <r>   -13.8817     0.0000     2.0000 </r>
       <r>   -13.8099     0.0000     2.0000 </r>
       <r>   -13.7382     0.0000     2.0000 </r>
       <r>   -13.6664     0.0000     2.0000 </r>
       <r>   -13.5947     0.0000     2.0000 </r>
       <r>   -13.5229     0.0000     2.0000 </r>
       <r>   -13.4511     0.0000     2.0000 </r>
       <r>   -13.3794     0.0000     2.0000 </r>
       <r>   -13.3076     0.0000     2.0000 </r>
       <r>   -13.2359     0.0000     2.0000 </r>
       <r>   -13.1641     0.0000     2.0000 </r>
       <r>   -13.0923     0.0000     2.0000 </r>
       <r>   -13.0206     0.0000     2.0000 </r>
       <r>   -12.9488     0.0000     2.0000 </r>
       <r>   -12.8771     0.0000     2.0000 </r>
       <r>   -12.8053     0.0000     2.0000 </r>
       <r>   -12.7335     0.0000     2.0000 </r>
       <r>   -12.6618     0.0000     2.0000 </r>
       <r>   -12.5900     0.0000     2.0000 </r>
       <r>   -12.5182     0.0000     2.0000 </r>
       <r>   -12.4465     0.0000     2.0000 </r>
       <r>   -12.3747     0.0000     2.0000 </r>
       <r>   -12.3030     0.0000     2.0000 </r>
       <r>   -12.2312     0.0000     2.0000 </r>
       <r>   -12.1594     0.0000     2.0000 </r>
       <r>   -12.0877     0.0000     2.0000 </r>
       <r>   -12.0159     0.0000     2.0000 </r>
       <r>   -11.9442     0.0000     2.0000 </r>
       <r>   -11.8724     0.0000     2.0000 </r>
       <r>   -11.8006     0.0000     2.0000 </r>
       <r>   -11.7289     0.0000     2.0000 </r>
       <r>   -11.6571     0.0000     2.0000 </r>
       <r>   -11.5853     0.0000     2.0000 </r>
       <r>   -11.5136     0.0000     2.0000 </r>
       <r>   -11.4418     0.0000     2.0000 </r>
       <r>   -11.3701     0.0000     2.0000 </r>
       <r>   -11.2983     0.0000     2.0000 </r>
       <r>   -11.2265     0.0000     2.0000 </r>
       <r>   -11.1548     0.0000     2.0000 </r>
       <r>   -11.0830     0.0000     2.0000 </r>
       <r>   -11.0113     0.0000     2.0000 </r>
       <r>   -10.9395    -0.0000     2.0000 </r>
       <r>   -10.8677    -0.0000     2.0000 </r>
       <r>   -10.7960    -0.0000     2.0000 </r>
       <r>   -10.7242    -0.0000     2.0000 </r>
       <r>   -10.6525    -0.0000     2.0000 </r>
       <r>   -10.5807    -0.0000     2.0000 </r>
       <r>   -10.5089    -0.0000     2.0000 </r>
       <r>   -10.4372    -0.0000     2.0000 </r>
       <r>   -10.3654    -0.0000     2.0000 </r>
       <r>   -10.2936    -0.0000     2.0000 </r>
       <r>   -10.2219    -0.0000     2.0000 </r>
       <r>   -10.1501    -0.0000     2.0000 </r>
       <r>   -10.0784    -0.0000     2.0000 </r>
       <r>   -10.0066    -0.0001     2.0000 </r>
       <r>    -9.9348    -0.0010     1.9999 </r>
       <r>    -9.8631    -0.0081     1.9993 </r>
       <r>    -9.7913    -0.0468     1.9960 </r>
       <r>    -9.7196    -0.1991     1.9817 </r>
       <r>    -9.6478    -0.5964     1.9389 </r>
       <r>    -9.5760    -1.1247     1.8582 </r>
       <r>    -9.5043    -0.6938     1.8084 </r>
       <r>    -9.4325     2.9517     2.0202 </r>
       <r>    -9.3607    11.0109     2.8104 </r>
       <r>    -9.2890    20.2094     4.2606 </r>
       <r>    -9.2172    23.9188     5.9771 </r>
       <r>    -9.1455    19.0154     7.3416 </r>
       <r>    -9.0737     9.6277     8.0325 </r>
       <r>    -9.0019     2.1859     8.1894 </r>
       <r>    -8.9302    -0.8520     8.1283 </r>
       <r>    -8.8584    -1.0502     8.0529 </r>
       <r>    -8.7867    -0.5226     8.0154 </r>
       <r>    -8.7149    -0.1684     8.0033 </r>
       <r>    -8.6431    -0.0387     8.0005 </r>
       <r>    -8.5714    -0.0066     8.0001 </r>
       <r>    -8.4996    -0.0008     8.0000 </r>
       <r>    -8.4279    -0.0001     8.0000 </r>
       <r>    -8.3561    -0.0000     8.0000 </r>
       <r>    -8.2843    -0.0000     8.0000 </r>
       <r>    -8.2126    -0.0000     8.0000 </r>
       <r>    -8.1408    -0.0000     8.0000 </r>
       <r>    -8.0690    -0.0000     8.0000 </r>
       <r>    -7.9973    -0.0000     8.0000 </r>
       <r>    -7.9255    -0.0000     8.0000 </r>
       <r>    -7.8538     0.0000     8.0000 </r>
       <r>    -7.7820     0.0000     8.0000 </r>
       <r>    -7.7102     0.0000     8.0000 </r>
       <r>    -7.6385     0.0000     8.0000 </r>
       <r>    -7.5667     0.0000     8.0000 </r>
       <r>    -7.4950     0.0000     8.0000 </r>
       <r>    -7.4232     0.0000     8.0000 </r>
       <r>    -7.3514     0.0000     8.0000 </r>
       <r>    -7.2797     0.0000     8.0000 </r>
       <r>    -7.2079     0.0000     8.0000 </r>
       <r>    -7.1362     0.0000     8.0000 </r>
       <r>    -7.0644     0.0000     8.0000 </r>
       <r>    -6.9926     0.0000     8.0000 </r>
       <r>    -6.9209     0.0000     8.0000 </r>
       <r>    -6.8491     0.0000     8.0000 </r>
       <r>    -6.7773     0.0000     8.0000 </r>
       <r>    -6.7056     0.0000     8.0000 </r>
       <r>    -6.6338     0.0000     8.0000 </r>
       <r>    -6.5621     0.0000     8.0000 </r>
       <r>    -6.4903     0.0000     8.0000 </r>
       <r>    -6.4185     0.0000     8.0000 </r>
       <r>    -6.3468     0.0000     8.0000 </r>
       <r>    -6.2750     0.0000     8.0000 </r>
       <r>    -6.2033     0.0000     8.0000 </r>
       <r>    -6.1315     0.0000     8.0000 </r>
       <r>    -6.0597     0.0000     8.0000 </r>
       <r>    -5.9880     0.0000     8.0000 </r>
       <r>    -5.9162     0.0000     8.0000 </r>
       <r>    -5.8444     0.0000     8.0000 </r>
       <r>    -5.7727     0.0000     8.0000 </r>
       <r>    -5.7009     0.0000     8.0000 </r>
       <r>    -5.6292     0.0000     8.0000 </r>
       <r>    -5.5574     0.0000     8.0000 </r>
       <r>    -5.4856     0.0000     8.0000 </r>
       <r>    -5.4139     0.0000     8.0000 </r>
       <r>    -5.3421     0.0000     8.0000 </r>
       <r>    -5.2704     0.0000     8.0000 </r>
       <r>    -5.1986     0.0000     8.0000 </r>
       <r>    -5.1268     0.0000     8.0000 </r>
       <r>    -5.0551     0.0000     8.0000 </r>
       <r>    -4.9833     0.0000     8.0000 </r>
       <r>    -4.9116     0.0000     8.0000 </r>
       <r>    -4.8398     0.0000     8.0000 </r>
       <r>    -4.7680     0.0000     8.0000 </r>
       <r>    -4.6963     0.0000     8.0000 </r>
       <r>    -4.6245     0.0000     8.0000 </r>
       <r>    -4.5527     0.0000     8.0000 </r>
       <r>    -4.4810     0.0000     8.0000 </r>
       <r>    -4.4092     0.0000     8.0000 </r>
       <r>    -4.3375     0.0000     8.0000 </r>
       <r>    -4.2657     0.0000     8.0000 </r>
       <r>    -4.1939     0.0000     8.0000 </r>
       <r>    -4.1222     0.0000     8.0000 </r>
       <r>    -4.0504     0.0000     8.0000 </r>
       <r>    -3.9787     0.0000     8.0000 </r>
       <r>    -3.9069     0.0000     8.0000 </r>
       <r>    -3.8351     0.0000     8.0000 </r>
       <r>    -3.7634     0.0000     8.0000 </r>
       <r>    -3.6916     0.0000     8.0000 </r>
       <r>    -3.6198     0.0000     8.0000 </r>
       <r>    -3.5481     0.0000     8.0000 </r>
       <r>    -3.4763     0.0000     8.0000 </r>
       <r>    -3.4046     0.0000     8.0000 </r>
       <r>    -3.3328     0.0000     8.0000 </r>
       <r>    -3.2610     0.0000     8.0000 </r>
       <r>    -3.1893     0.0000     8.0000 </r>
       <r>    -3.1175     0.0000     8.0000 </r>
       <r>    -3.0458     0.0000     8.0000 </r>
       <r>    -2.9740     0.0000     8.0000 </r>
       <r>    -2.9022     0.0000     8.0000 </r>
       <r>    -2.8305     0.0000     8.0000 </r>
       <r>    -2.7587     0.0000     8.0000 </r>
       <r>    -2.6870     0.0000     8.0000 </r>
       <r>    -2.6152     0.0000     8.0000 </r>
       <r>    -2.5434     0.0000     8.0000 </r>
       <r>    -2.4717     0.0000     8.0000 </r>
       <r>    -2.3999     0.0000     8.0000 </r>
       <r>    -2.3281     0.0000     8.0000 </r>
       <r>    -2.2564     0.0000     8.0000 </r>
       <r>    -2.1846     0.0000     8.0000 </r>
       <r>    -2.1129     0.0000     8.0000 </r>
       <r>    -2.0411     0.0000     8.0000 </r>
       <r>    -1.9693    -0.0000     8.0000 </r>
       <r>    -1.8976    -0.0000     8.0000 </r>
       <r>    -1.8258    -0.0000     8.0000 </r>
       <r>    -1.7541    -0.0000     8.0000 </r>
       <r>    -1.6823    -0.0000     8.0000 </r>
       <r>    -1.6105    -0.0000     8.0000 </r>
       <r>    -1.5388    -0.0000     8.0000 </r>
       <r>    -1.4670    -0.0000     8.0000 </r>
       <r>    -1.3952    -0.0000     8.0000 </r>
       <r>    -1.3235    -0.0000     8.0000 </r>
       <r>    -1.2517    -0.0000     8.0000 </r>
       <r>    -1.1800    -0.0000     8.0000 </r>
       <r>    -1.1082    -0.0000     8.0000 </r>
       <r>    -1.0364    -0.0001     8.0000 </r>
       <r>    -0.9647    -0.0008     7.9999 </r>
       <r>    -0.8929    -0.0055     7.9995 </r>
       <r>    -0.8212    -0.0296     7.9974 </r>
       <r>    -0.7494    -0.1140     7.9892 </r>
       <r>    -0.6776    -0.2985     7.9678 </r>
       <r>    -0.6059    -0.4377     7.9364 </r>
       <r>    -0.5341     0.0823     7.9423 </r>
       <r>    -0.4624     2.1040     8.0933 </r>
       <r>    -0.3906     5.4400     8.4837 </r>
       <r>    -0.3188     8.0394     9.0606 </r>
       <r>    -0.2471     7.7082     9.6138 </r>
       <r>    -0.1753     4.7456     9.9543 </r>
       <r>    -0.1035     1.5613    10.0663 </r>
       <r>    -0.0318    -0.1231    10.0575 </r>
       <r>     0.0400    -0.4588    10.0246 </r>
       <r>     0.1117    -0.3584     9.9989 </r>
       <r>     0.1835    -0.4124     9.9693 </r>
       <r>     0.2553    -0.7030     9.9188 </r>
       <r>     0.3270    -0.7346     9.8661 </r>
       <r>     0.3988     0.7364     9.9190 </r>
       <r>     0.4705     5.1169    10.2862 </r>
       <r>     0.5423    12.2647    11.1663 </r>
       <r>     0.6141    19.1869    12.5432 </r>
       <r>     0.6858    21.4624    14.0833 </r>
       <r>     0.7576    17.1856    15.3166 </r>
       <r>     0.8294     9.2421    15.9798 </r>
       <r>     0.9011     2.5371    16.1619 </r>
       <r>     0.9729    -0.5447    16.1228 </r>
       <r>     1.0446    -0.9561    16.0542 </r>
       <r>     1.1164    -0.5235    16.0166 </r>
       <r>     1.1882    -0.1796    16.0037 </r>
       <r>     1.2599    -0.0433    16.0006 </r>
       <r>     1.3317    -0.0076    16.0001 </r>
       <r>     1.4034    -0.0010    16.0000 </r>
       <r>     1.4752    -0.0001    16.0000 </r>
       <r>     1.5470    -0.0000    16.0000 </r>
       <r>     1.6187    -0.0000    16.0000 </r>
       <r>     1.6905    -0.0000    16.0000 </r>
       <r>     1.7622    -0.0000    16.0000 </r>
       <r>     1.8340    -0.0000    16.0000 </r>
       <r>     1.9058    -0.0000    16.0000 </r>
       <r>     1.9775    -0.0000    16.0000 </r>
       <r>     2.0493     0.0000    16.0000 </r>
       <r>     2.1211     0.0000    16.0000 </r>
       <r>     2.1928     0.0000    16.0000 </r>
       <r>     2.2646     0.0000    16.0000 </r>
       <r>     2.3363     0.0000    16.0000 </r>
       <r>     2.4081     0.0000    16.0000 </r>
       <r>     2.4799     0.0000    16.0000 </r>
       <r>     2.5516     0.0000    16.0000 </r>
       <r>     2.6234     0.0000    16.0000 </r>
       <r>     2.6951     0.0000    16.0000 </r>
      </set>
     </set>
    </array>
   </total>
  </dos>
  <time name="totalsc">   97.43   97.67</time>
 </calculation>
 <calculation>
  <scstep>
   <time name="dav">    2.23    2.23</time>
   <time name="total">    4.30    4.31</time>
   <energy>
    <i name="alphaZ">      0.23812204 </i>
    <i name="ewald">    130.91319824 </i>
    <i name="hartreedc">   -285.60458775 </i>
    <i name="XCdc">     24.75734428 </i>
    <i name="pawpsdc">    455.83586241 </i>
    <i name="pawaedc">   -456.61926126 </i>
    <i name="eentropy">      0.01778275 </i>
    <i name="bandstr">    -90.58014796 </i>
    <i name="atom">    197.04175453 </i>
    <i name="e_fr_energy">    -23.99993274 </i>
    <i name="e_wo_entrp">    -24.01771548 </i>
    <i name="e_0_energy">    -24.00586032 </i>
   </energy>
  </scstep>
  <scstep>
   <time name="diag">    0.48    0.48</time>
   <time name="diis">    1.67    1.68</time>
   <time name="orth">    0.01    0.01</time>
   <time name="total">    4.13    4.14</time>
   <energy>
    <i name="e_fr_energy">    -23.99250500 </i>
    <i name="e_wo_entrp">    -24.01425688 </i>
    <i name="e_0_energy">    -23.99975563 </i>
   </energy>
  </scstep>
  <scstep>
   <time name="diag">    0.48    0.48</time>
   <time name="diis">    1.62    1.62</time>
   <time name="orth">    0.01    0.01</time>
   <time name="total">    4.10    4.11</time>
   <energy>
    <i name="e_fr_energy">    -23.99271283 </i>
    <i name="e_wo_entrp">    -24.02167054 </i>
    <i name="e_0_energy">    -24.00236540 </i>
   </energy>
  </scstep>
  <scstep>
   <time name="diag">    0.48    0.48</time>
   <time name="diis">    1.61    1.62</time>
   <time name="orth">    0.01    0.01</time>
   <time name="total">    4.10    4.11</time>
   <energy>
    <i name="e_fr_energy">    -23.99021339 </i>
    <i name="e_wo_entrp">    -24.02281256 </i>
    <i name="e_0_energy">    -24.00107978 </i>
   </energy>
  </scstep>
  <scstep>
   <time name="diag">    0.46    0.46</time>
   <time name="diis">    1.65    1.66</time>
   <time name="orth">    0.01    0.01</time>
   <time name="total">    4.14    4.15</time>
   <energy>
    <i name="e_fr_energy">    -23.99021027 </i>
    <i name="e_wo_entrp">    -24.02465477 </i>
    <i name="e_0_energy">    -24.00169177 </i>
   </energy>
  </scstep>
  <scstep>
   <time name="diag">    0.47    0.47</time>
   <time name="diis">    1.67    1.68</time>
   <time name="orth">    0.01    0.01</time>
   <time name="total">    4.15    4.16</time>
   <energy>
    <i name="e_fr_energy">    -23.98909895 </i>
    <i name="e_wo_entrp">    -24.02447517 </i>
    <i name="e_0_energy">    -24.00089102 </i>
   </energy>
  </scstep>
  <scstep>
   <time name="diag">    0.47    0.47</time>
   <time name="diis">    1.66    1.67</time>
   <time name="orth">    0.01    0.01</time>
   <time name="total">    4.09    4.10</time>
   <energy>
    <i name="e_fr_energy">    -23.98889349 </i>
    <i name="e_wo_entrp">    -24.02538165 </i>
    <i name="e_0_energy">    -24.00105621 </i>
   </energy>
  </scstep>
  <scstep>
   <time name="diag">    0.47    0.47</time>
   <time name="diis">    1.64    1.64</time>
   <time name="orth">    0.01    0.01</time>
   <time name="total">    4.08    4.09</time>
   <energy>
    <i name="e_fr_energy">    -23.98777309 </i>
    <i name="e_wo_entrp">    -24.02540783 </i>
    <i name="e_0_energy">    -24.00031800 </i>
   </energy>
  </scstep>
  <scstep>
   <time name="diag">    0.47    0.47</time>
   <time name="diis">    1.63    1.64</time>
   <time name="orth">    0.01    0.01</time>
   <time name="total">    4.04    4.05</time>
   <energy>
    <i name="e_fr_energy">    -23.98751303 </i>
    <i name="e_wo_entrp">    -24.02614408 </i>
    <i name="e_0_energy">    -24.00039005 </i>
   </energy>
  </scstep>
  <scstep>
   <time name="diag">    0.46    0.47</time>
   <time name="diis">    1.62    1.63</time>
   <time name="orth">    0.01    0.01</time>
   <time name="total">    4.06    4.07</time>
   <energy>
    <i name="e_fr_energy">    -23.98752760 </i>
    <i name="e_wo_entrp">    -24.02577564 </i>
    <i name="e_0_energy">    -24.00027694 </i>
   </energy>
  </scstep>
  <scstep>
   <time name="diag">    0.48    0.48</time>
   <time name="diis">    1.60    1.60</time>
   <time name="orth">    0.01    0.01</time>
   <time name="total">    4.02    4.02</time>
   <energy>
    <i name="e_fr_energy">    -23.98729694 </i>
    <i name="e_wo_entrp">    -24.02568379 </i>
    <i name="e_0_energy">    -24.00009256 </i>
   </energy>
  </scstep>
  <scstep>
   <time name="diag">    0.48    0.48</time>
   <time name="diis">    1.58    1.58</time>
   <time name="orth">    0.01    0.01</time>
   <time name="total">    4.03    4.04</time>
   <energy>
    <i name="e_fr_energy">    -23.98734069 </i>
    <i name="e_wo_entrp">    -24.02580289 </i>
    <i name="e_0_energy">    -24.00016142 </i>
   </energy>
  </scstep>
  <scstep>
   <time name="diag">    0.46    0.46</time>
   <time name="diis">    1.59    1.59</time>
   <time name="orth">    0.01    0.01</time>
   <time name="total">    4.05    4.06</time>
   <energy>
    <i name="e_fr_energy">    -23.98738062 </i>
    <i name="e_wo_entrp">    -24.02588617 </i>
    <i name="e_0_energy">    -24.00021580 </i>
   </energy>
  </scstep>
  <scstep>
   <time name="diag">    0.46    0.46</time>
   <time name="diis">    1.54    1.55</time>
   <time name="orth">    0.01    0.01</time>
   <time name="total">    4.02    4.03</time>
   <energy>
    <i name="e_fr_energy">    -23.98737912 </i>
    <i name="e_wo_entrp">    -24.02576797 </i>
    <i name="e_0_energy">    -24.00017540 </i>
   </energy>
  </scstep>
  <scstep>
   <time name="diag">    0.46    0.46</time>
   <time name="diis">    1.56    1.56</time>
   <time name="orth">    0.01    0.01</time>
   <time name="total">    4.03    4.04</time>
   <energy>
    <i name="e_fr_energy">    -23.98739396 </i>
    <i name="e_wo_entrp">    -24.02584695 </i>
    <i name="e_0_energy">    -24.00021162 </i>
   </energy>
  </scstep>
  <scstep>
   <time name="diag">    0.47    0.47</time>
   <time name="diis">    1.54    1.55</time>
   <time name="orth">    0.01    0.01</time>
   <time name="total">    4.11    4.12</time>
   <energy>
    <i name="e_fr_energy">    -23.98739992 </i>
    <i name="e_wo_entrp">    -24.02582334 </i>
    <i name="e_0_energy">    -24.00020773 </i>
   </energy>
  </scstep>
  <scstep>
   <time name="diag">    0.46    0.47</time>
   <time name="diis">    1.21    1.21</time>
   <time name="orth">    0.01    0.01</time>
   <time name="total">    3.81    3.82</time>
   <energy>
    <i name="e_fr_energy">    -23.98740341 </i>
    <i name="e_wo_entrp">    -24.02582176 </i>
    <i name="e_0_energy">    -24.00020952 </i>
   </energy>
  </scstep>
  <scstep>
   <time name="diag">    0.46    0.46</time>
   <time name="diis">    1.20    1.20</time>
   <time name="orth">    0.01    0.01</time>
   <time name="total">    3.80    3.81</time>
   <energy>
    <i name="e_fr_energy">    -23.98740528 </i>
    <i name="e_wo_entrp">    -24.02578276 </i>
    <i name="e_0_energy">    -24.00019777 </i>
   </energy>
  </scstep>
  <scstep>
   <time name="diag">    0.47    0.47</time>
   <time name="diis">    1.26    1.26</time>
   <time name="orth">    0.01    0.01</time>
   <time name="total">    3.53    3.54</time>
   <energy>
    <i name="alphaZ">      0.23812204 </i>
    <i name="ewald">    130.91319824 </i>
    <i name="hartreedc">   -286.51920702 </i>
    <i name="XCdc">     24.81084071 </i>
    <i name="pawpsdc">    479.80849490 </i>
    <i name="pawaedc">   -480.60225016 </i>
    <i name="eentropy">      0.03840222 </i>
    <i name="bandstr">    -89.71676090 </i>
    <i name="atom">    197.04175453 </i>
    <i name="e_fr_energy">    -23.98740545 </i>
    <i name="e_wo_entrp">    -24.02580768 </i>
    <i name="e_0_energy">    -24.00020620 </i>
   </energy>
  </scstep>
  <structure>
   <crystal>
    <varray name="basis" >
     <v>      10.01648750       0.00000000       0.00000000 </v>
     <v>      -0.03529536       9.92301481       0.00000000 </v>
     <v>       0.06433812       0.01491233      10.23544017 </v>
    </varray>
    <i name="volume">   1017.33882109 </i>
    <varray name="rec_basis" >
     <v>       0.09983540       0.00035511      -0.00062806 </v>
     <v>       0.00000000       0.10077582      -0.00014682 </v>
     <v>       0.00000000      -0.00000000       0.09769976 </v>
    </varray>
   </crystal>
   <varray name="positions" >
    <v>       0.53870030       0.40749023       0.36222855 </v>
    <v>       0.39652812       0.48255939       0.44116837 </v>
    <v>       0.55237495       0.56628234       0.44334211 </v>
    <v>       0.52998826       0.41756822       0.53629085 </v>
    <v>       0.50277073       0.46623625       0.44541552 </v>
   </varray>
  </structure>
  <varray name="forces" >
   <v>       0.73342814      -0.17997496      -0.83458122 </v>
   <v>      -0.37190000       0.04201852      -0.12176825 </v>
   <v>      -0.12384615      -0.00343482      -0.32282287 </v>
   <v>      -0.25059621      -0.40699603       0.39430944 </v>
   <v>      -0.12057439       1.34677646      -0.25855681 </v>
  </varray>
  <varray name="stress" >
   <v>      -0.25565924      -0.00748225       0.19437200 </v>
   <v>      -0.00748225       0.07398509       0.23343219 </v>
   <v>       0.19437200       0.23343219       0.12979057 </v>
  </varray>
  <energy>
   <i name="e_fr_energy">    -23.98740545 </i>
   <i name="e_wo_entrp">    -24.00020620 </i>
   <i name="e_0_energy">      0.03840222 </i>
   <i name="kinetic">      0.03024551 </i>
   <i name="lattice kinetic">      0.00000000 </i>
   <i name="nosepot">      0.00010113 </i>
   <i name="nosekinetic">      0.00001895 </i>
   <i name="total">    -23.95703987 </i>
  </energy>
  <dos>
   <i name="efermi">     -9.12137369 </i>
   <total>
    <array>
     <dimension dim="1">gridpoints</dimension>
     <dimension dim="2">spin</dimension>
     <field>energy</field>
     <field>total</field>
     <field>integrated</field>
     <set>
      <set comment="spin 1">
       <r>   -18.9303     0.0000     0.0000 </r>
       <r>   -18.8582     0.0000     0.0000 </r>
       <r>   -18.7861     0.0000     0.0000 </r>
       <r>   -18.7140     0.0000     0.0000 </r>
       <r>   -18.6419     0.0000     0.0000 </r>
       <r>   -18.5698    -0.0000    -0.0000 </r>
       <r>   -18.4977    -0.0000    -0.0000 </r>
       <r>   -18.4256    -0.0000    -0.0000 </r>
       <r>   -18.3535    -0.0000    -0.0000 </r>
       <r>   -18.2814    -0.0000    -0.0000 </r>
       <r>   -18.2093    -0.0000    -0.0000 </r>
       <r>   -18.1372    -0.0000    -0.0000 </r>
       <r>   -18.0650    -0.0000    -0.0000 </r>
       <r>   -17.9929    -0.0000    -0.0000 </r>
       <r>   -17.9208    -0.0000    -0.0000 </r>
       <r>   -17.8487    -0.0000    -0.0000 </r>
       <r>   -17.7766    -0.0000    -0.0000 </r>
       <r>   -17.7045    -0.0000    -0.0000 </r>
       <r>   -17.6324    -0.0001    -0.0000 </r>
       <r>   -17.5603    -0.0010    -0.0001 </r>
       <r>   -17.4882    -0.0069    -0.0006 </r>
       <r>   -17.4161    -0.0359    -0.0032 </r>
       <r>   -17.3440    -0.1329    -0.0127 </r>
       <r>   -17.2718    -0.3284    -0.0364 </r>
       <r>   -17.1997    -0.4243    -0.0670 </r>
       <r>   -17.1276     0.2730    -0.0473 </r>
       <r>   -17.0555     2.5611     0.1373 </r>
       <r>   -16.9834     5.9697     0.5678 </r>
       <r>   -16.9113     8.2148     1.1602 </r>
       <r>   -16.8392     7.3415     1.6895 </r>
       <r>   -16.7671     4.1410     1.9881 </r>
       <r>   -16.6950     1.1373     2.0702 </r>
       <r>   -16.6229    -0.2528     2.0519 </r>
       <r>   -16.5508    -0.4160     2.0219 </r>
       <r>   -16.4787    -0.2159     2.0064 </r>
       <r>   -16.4065    -0.0697     2.0013 </r>
       <r>   -16.3344    -0.0157     2.0002 </r>
       <r>   -16.2623    -0.0026     2.0000 </r>
       <r>   -16.1902    -0.0003     2.0000 </r>
       <r>   -16.1181    -0.0000     2.0000 </r>
       <r>   -16.0460    -0.0000     2.0000 </r>
       <r>   -15.9739    -0.0000     2.0000 </r>
       <r>   -15.9018    -0.0000     2.0000 </r>
       <r>   -15.8297    -0.0000     2.0000 </r>
       <r>   -15.7576    -0.0000     2.0000 </r>
       <r>   -15.6855    -0.0000     2.0000 </r>
       <r>   -15.6133     0.0000     2.0000 </r>
       <r>   -15.5412     0.0000     2.0000 </r>
       <r>   -15.4691     0.0000     2.0000 </r>
       <r>   -15.3970     0.0000     2.0000 </r>
       <r>   -15.3249     0.0000     2.0000 </r>
       <r>   -15.2528     0.0000     2.0000 </r>
       <r>   -15.1807     0.0000     2.0000 </r>
       <r>   -15.1086     0.0000     2.0000 </r>
       <r>   -15.0365     0.0000     2.0000 </r>
       <r>   -14.9644     0.0000     2.0000 </r>
       <r>   -14.8923     0.0000     2.0000 </r>
       <r>   -14.8201     0.0000     2.0000 </r>
       <r>   -14.7480     0.0000     2.0000 </r>
       <r>   -14.6759     0.0000     2.0000 </r>
       <r>   -14.6038     0.0000     2.0000 </r>
       <r>   -14.5317     0.0000     2.0000 </r>
       <r>   -14.4596     0.0000     2.0000 </r>
       <r>   -14.3875     0.0000     2.0000 </r>
       <r>   -14.3154     0.0000     2.0000 </r>
       <r>   -14.2433     0.0000     2.0000 </r>
       <r>   -14.1712     0.0000     2.0000 </r>
       <r>   -14.0991     0.0000     2.0000 </r>
       <r>   -14.0270     0.0000     2.0000 </r>
       <r>   -13.9548     0.0000     2.0000 </r>
       <r>   -13.8827     0.0000     2.0000 </r>
       <r>   -13.8106     0.0000     2.0000 </r>
       <r>   -13.7385     0.0000     2.0000 </r>
       <r>   -13.6664     0.0000     2.0000 </r>
       <r>   -13.5943     0.0000     2.0000 </r>
       <r>   -13.5222     0.0000     2.0000 </r>
       <r>   -13.4501     0.0000     2.0000 </r>
       <r>   -13.3780     0.0000     2.0000 </r>
       <r>   -13.3059     0.0000     2.0000 </r>
       <r>   -13.2338     0.0000     2.0000 </r>
       <r>   -13.1616     0.0000     2.0000 </r>
       <r>   -13.0895     0.0000     2.0000 </r>
       <r>   -13.0174     0.0000     2.0000 </r>
       <r>   -12.9453     0.0000     2.0000 </r>
       <r>   -12.8732     0.0000     2.0000 </r>
       <r>   -12.8011     0.0000     2.0000 </r>
       <r>   -12.7290     0.0000     2.0000 </r>
       <r>   -12.6569     0.0000     2.0000 </r>
       <r>   -12.5848     0.0000     2.0000 </r>
       <r>   -12.5127     0.0000     2.0000 </r>
       <r>   -12.4406     0.0000     2.0000 </r>
       <r>   -12.3684     0.0000     2.0000 </r>
       <r>   -12.2963     0.0000     2.0000 </r>
       <r>   -12.2242     0.0000     2.0000 </r>
       <r>   -12.1521     0.0000     2.0000 </r>
       <r>   -12.0800     0.0000     2.0000 </r>
       <r>   -12.0079     0.0000     2.0000 </r>
       <r>   -11.9358     0.0000     2.0000 </r>
       <r>   -11.8637     0.0000     2.0000 </r>
       <r>   -11.7916     0.0000     2.0000 </r>
       <r>   -11.7195     0.0000     2.0000 </r>
       <r>   -11.6474     0.0000     2.0000 </r>
       <r>   -11.5753     0.0000     2.0000 </r>
       <r>   -11.5031     0.0000     2.0000 </r>
       <r>   -11.4310     0.0000     2.0000 </r>
       <r>   -11.3589     0.0000     2.0000 </r>
       <r>   -11.2868     0.0000     2.0000 </r>
       <r>   -11.2147     0.0000     2.0000 </r>
       <r>   -11.1426     0.0000     2.0000 </r>
       <r>   -11.0705     0.0000     2.0000 </r>
       <r>   -10.9984    -0.0000     2.0000 </r>
       <r>   -10.9263    -0.0000     2.0000 </r>
       <r>   -10.8542    -0.0000     2.0000 </r>
       <r>   -10.7821    -0.0000     2.0000 </r>
       <r>   -10.7099    -0.0000     2.0000 </r>
       <r>   -10.6378    -0.0000     2.0000 </r>
       <r>   -10.5657    -0.0000     2.0000 </r>
       <r>   -10.4936    -0.0000     2.0000 </r>
       <r>   -10.4215    -0.0000     2.0000 </r>
       <r>   -10.3494    -0.0000     2.0000 </r>
       <r>   -10.2773    -0.0000     2.0000 </r>
       <r>   -10.2052    -0.0000     2.0000 </r>
       <r>   -10.1331    -0.0000     2.0000 </r>
       <r>   -10.0610    -0.0001     2.0000 </r>
       <r>    -9.9889    -0.0013     1.9999 </r>
       <r>    -9.9167    -0.0097     1.9992 </r>
       <r>    -9.8446    -0.0528     1.9954 </r>
       <r>    -9.7725    -0.2112     1.9802 </r>
       <r>    -9.7004    -0.5930     1.9374 </r>
       <r>    -9.6283    -1.0302     1.8631 </r>
       <r>    -9.5562    -0.4365     1.8316 </r>
       <r>    -9.4841     3.2265     2.0643 </r>
       <r>    -9.4120    10.8873     2.8494 </r>
       <r>    -9.3399    19.4930     4.2550 </r>
       <r>    -9.2678    23.0926     5.9202 </r>
       <r>    -9.1957    18.7409     7.2716 </r>
       <r>    -9.1236     9.9352     7.9880 </r>
       <r>    -9.0514     2.6001     8.1755 </r>
       <r>    -8.9793    -0.6429     8.1291 </r>
       <r>    -8.9072    -1.0157     8.0559 </r>
       <r>    -8.8351    -0.5405     8.0169 </r>
       <r>    -8.7630    -0.1821     8.0037 </r>
       <r>    -8.6909    -0.0433     8.0006 </r>
       <r>    -8.6188    -0.0076     8.0001 </r>
       <r>    -8.5467    -0.0010     8.0000 </r>
       <r>    -8.4746    -0.0001     8.0000 </r>
       <r>    -8.4025    -0.0000     8.0000 </r>
       <r>    -8.3304    -0.0000     8.0000 </r>
       <r>    -8.2582    -0.0000     8.0000 </r>
       <r>    -8.1861    -0.0000     8.0000 </r>
       <r>    -8.1140    -0.0000     8.0000 </r>
       <r>    -8.0419    -0.0000     8.0000 </r>
       <r>    -7.9698    -0.0000     8.0000 </r>
       <r>    -7.8977     0.0000     8.0000 </r>
       <r>    -7.8256     0.0000     8.0000 </r>
       <r>    -7.7535     0.0000     8.0000 </r>
       <r>    -7.6814     0.0000     8.0000 </r>
       <r>    -7.6093     0.0000     8.0000 </r>
       <r>    -7.5372     0.0000     8.0000 </r>
       <r>    -7.4650     0.0000     8.0000 </r>
       <r>    -7.3929     0.0000     8.0000 </r>
       <r>    -7.3208     0.0000     8.0000 </r>
       <r>    -7.2487     0.0000     8.0000 </r>
       <r>    -7.1766     0.0000     8.0000 </r>
       <r>    -7.1045     0.0000     8.0000 </r>
       <r>    -7.0324     0.0000     8.0000 </r>
       <r>    -6.9603     0.0000     8.0000 </r>
       <r>    -6.8882     0.0000     8.0000 </r>
       <r>    -6.8161     0.0000     8.0000 </r>
       <r>    -6.7440     0.0000     8.0000 </r>
       <r>    -6.6719     0.0000     8.0000 </r>
       <r>    -6.5997     0.0000     8.0000 </r>
       <r>    -6.5276     0.0000     8.0000 </r>
       <r>    -6.4555     0.0000     8.0000 </r>
       <r>    -6.3834     0.0000     8.0000 </r>
       <r>    -6.3113     0.0000     8.0000 </r>
       <r>    -6.2392     0.0000     8.0000 </r>
       <r>    -6.1671     0.0000     8.0000 </r>
       <r>    -6.0950     0.0000     8.0000 </r>
       <r>    -6.0229     0.0000     8.0000 </r>
       <r>    -5.9508     0.0000     8.0000 </r>
       <r>    -5.8787     0.0000     8.0000 </r>
       <r>    -5.8065     0.0000     8.0000 </r>
       <r>    -5.7344     0.0000     8.0000 </r>
       <r>    -5.6623     0.0000     8.0000 </r>
       <r>    -5.5902     0.0000     8.0000 </r>
       <r>    -5.5181     0.0000     8.0000 </r>
       <r>    -5.4460     0.0000     8.0000 </r>
       <r>    -5.3739     0.0000     8.0000 </r>
       <r>    -5.3018     0.0000     8.0000 </r>
       <r>    -5.2297     0.0000     8.0000 </r>
       <r>    -5.1576     0.0000     8.0000 </r>
       <r>    -5.0855     0.0000     8.0000 </r>
       <r>    -5.0133     0.0000     8.0000 </r>
       <r>    -4.9412     0.0000     8.0000 </r>
       <r>    -4.8691     0.0000     8.0000 </r>
       <r>    -4.7970     0.0000     8.0000 </r>
       <r>    -4.7249     0.0000     8.0000 </r>
       <r>    -4.6528     0.0000     8.0000 </r>
       <r>    -4.5807     0.0000     8.0000 </r>
       <r>    -4.5086     0.0000     8.0000 </r>
       <r>    -4.4365     0.0000     8.0000 </r>
       <r>    -4.3644     0.0000     8.0000 </r>
       <r>    -4.2923     0.0000     8.0000 </r>
       <r>    -4.2202     0.0000     8.0000 </r>
       <r>    -4.1480     0.0000     8.0000 </r>
       <r>    -4.0759     0.0000     8.0000 </r>
       <r>    -4.0038     0.0000     8.0000 </r>
       <r>    -3.9317     0.0000     8.0000 </r>
       <r>    -3.8596     0.0000     8.0000 </r>
       <r>    -3.7875     0.0000     8.0000 </r>
       <r>    -3.7154     0.0000     8.0000 </r>
       <r>    -3.6433     0.0000     8.0000 </r>
       <r>    -3.5712     0.0000     8.0000 </r>
       <r>    -3.4991     0.0000     8.0000 </r>
       <r>    -3.4270     0.0000     8.0000 </r>
       <r>    -3.3548     0.0000     8.0000 </r>
       <r>    -3.2827     0.0000     8.0000 </r>
       <r>    -3.2106     0.0000     8.0000 </r>
       <r>    -3.1385     0.0000     8.0000 </r>
       <r>    -3.0664     0.0000     8.0000 </r>
       <r>    -2.9943     0.0000     8.0000 </r>
       <r>    -2.9222     0.0000     8.0000 </r>
       <r>    -2.8501     0.0000     8.0000 </r>
       <r>    -2.7780     0.0000     8.0000 </r>
       <r>    -2.7059     0.0000     8.0000 </r>
       <r>    -2.6338     0.0000     8.0000 </r>
       <r>    -2.5617     0.0000     8.0000 </r>
       <r>    -2.4895     0.0000     8.0000 </r>
       <r>    -2.4174     0.0000     8.0000 </r>
       <r>    -2.3453     0.0000     8.0000 </r>
       <r>    -2.2732     0.0000     8.0000 </r>
       <r>    -2.2011     0.0000     8.0000 </r>
       <r>    -2.1290     0.0000     8.0000 </r>
       <r>    -2.0569     0.0000     8.0000 </r>
       <r>    -1.9848     0.0000     8.0000 </r>
       <r>    -1.9127    -0.0000     8.0000 </r>
       <r>    -1.8406    -0.0000     8.0000 </r>
       <r>    -1.7685    -0.0000     8.0000 </r>
       <r>    -1.6963    -0.0000     8.0000 </r>
       <r>    -1.6242    -0.0000     8.0000 </r>
       <r>    -1.5521    -0.0000     8.0000 </r>
       <r>    -1.4800    -0.0000     8.0000 </r>
       <r>    -1.4079    -0.0000     8.0000 </r>
       <r>    -1.3358    -0.0000     8.0000 </r>
       <r>    -1.2637    -0.0000     8.0000 </r>
       <r>    -1.1916    -0.0000     8.0000 </r>
       <r>    -1.1195    -0.0000     8.0000 </r>
       <r>    -1.0474    -0.0000     8.0000 </r>
       <r>    -0.9753    -0.0003     8.0000 </r>
       <r>    -0.9031    -0.0026     7.9998 </r>
       <r>    -0.8310    -0.0161     7.9986 </r>
       <r>    -0.7589    -0.0711     7.9935 </r>
       <r>    -0.6868    -0.2191     7.9777 </r>
       <r>    -0.6147    -0.4181     7.9475 </r>
       <r>    -0.5426    -0.2427     7.9300 </r>
       <r>    -0.4705     1.1736     8.0147 </r>
       <r>    -0.3984     4.1970     8.3173 </r>
       <r>    -0.3263     7.3795     8.8494 </r>
       <r>    -0.2542     8.2011     9.4408 </r>
       <r>    -0.1821     5.9169     9.8675 </r>
       <r>    -0.1100     2.5115    10.0486 </r>
       <r>    -0.0378     0.2481    10.0665 </r>
       <r>     0.0343    -0.4436    10.0345 </r>
       <r>     0.1064    -0.4045    10.0053 </r>
       <r>     0.1785    -0.3982     9.9766 </r>
       <r>     0.2506    -0.6519     9.9296 </r>
       <r>     0.3227    -0.7990     9.8720 </r>
       <r>     0.3948     0.2976     9.8934 </r>
       <r>     0.4669     4.1487    10.1926 </r>
       <r>     0.5390    11.0272    10.9877 </r>
       <r>     0.6111    18.3568    12.3114 </r>
       <r>     0.6832    21.6068    13.8695 </r>
       <r>     0.7554    18.1749    15.1800 </r>
       <r>     0.8275    10.3595    15.9270 </r>
       <r>     0.8996     3.2030    16.1580 </r>
       <r>     0.9717    -0.3600    16.1321 </r>
       <r>     1.0438    -0.9879    16.0608 </r>
       <r>     1.1159    -0.5772    16.0192 </r>
       <r>     1.1880    -0.2052    16.0044 </r>
       <r>     1.2601    -0.0507    16.0008 </r>
       <r>     1.3322    -0.0091    16.0001 </r>
       <r>     1.4043    -0.0012    16.0000 </r>
       <r>     1.4764    -0.0001    16.0000 </r>
       <r>     1.5486    -0.0000    16.0000 </r>
       <r>     1.6207    -0.0000    16.0000 </r>
       <r>     1.6928    -0.0000    16.0000 </r>
       <r>     1.7649    -0.0000    16.0000 </r>
       <r>     1.8370    -0.0000    16.0000 </r>
       <r>     1.9091    -0.0000    16.0000 </r>
       <r>     1.9812    -0.0000    16.0000 </r>
       <r>     2.0533     0.0000    16.0000 </r>
       <r>     2.1254     0.0000    16.0000 </r>
       <r>     2.1975     0.0000    16.0000 </r>
       <r>     2.2696     0.0000    16.0000 </r>
       <r>     2.3417     0.0000    16.0000 </r>
       <r>     2.4139     0.0000    16.0000 </r>
       <r>     2.4860     0.0000    16.0000 </r>
       <r>     2.5581     0.0000    16.0000 </r>
       <r>     2.6302     0.0000    16.0000 </r>
       <r>     2.7023     0.0000    16.0000 </r>
      </set>
     </set>
    </array>
   </total>
  </dos>
  <time name="totalsc">   85.00   85.21</time>
 </calculation>
 <calculation>
  <scstep>
   <time name="dav">    2.15    2.16</time>
   <time name="total">    4.22    4.23</time>
   <energy>
    <i name="alphaZ">      0.23812204 </i>
    <i name="ewald">    129.90693177 </i>
    <i name="hartreedc">   -286.37268397 </i>
    <i name="XCdc">     24.80821138 </i>
    <i name="pawpsdc">    491.30131218 </i>
    <i name="pawaedc">   -492.10001109 </i>
    <i name="eentropy">      0.01911584 </i>
    <i name="bandstr">    -88.82644577 </i>
    <i name="atom">    197.04175453 </i>
    <i name="e_fr_energy">    -23.98369308 </i>
    <i name="e_wo_entrp">    -24.00280892 </i>
    <i name="e_0_energy">    -23.99006503 </i>
   </energy>
  </scstep>
  <scstep>
   <time name="diag">    0.47    0.47</time>
   <time name="diis">    1.57    1.58</time>
   <time name="orth">    0.01    0.01</time>
   <time name="total">    4.07    4.08</time>
   <energy>
    <i name="e_fr_energy">    -23.98988398 </i>
    <i name="e_wo_entrp">    -24.00582727 </i>
    <i name="e_0_energy">    -23.99519841 </i>
   </energy>
  </scstep>
  <scstep>
   <time name="diag">    0.48    0.49</time>
   <time name="diis">    1.57    1.57</time>
   <time name="orth">    0.01    0.01</time>
   <time name="total">    4.07    4.08</time>
   <energy>
    <i name="e_fr_energy">    -23.96440159 </i>
    <i name="e_wo_entrp">    -23.97669192 </i>
    <i name="e_0_energy">    -23.96849837 </i>
   </energy>
  </scstep>
  <scstep>
   <time name="diag">    0.49    0.49</time>
   <time name="diis">    1.58    1.59</time>
   <time name="orth">    0.01    0.01</time>
   <time name="total">    4.10    4.11</time>
   <energy>
    <i name="e_fr_energy">    -23.96296815 </i>
    <i name="e_wo_entrp">    -23.97523772 </i>
    <i name="e_0_energy">    -23.96705801 </i>
   </energy>
  </scstep>
  <scstep>
   <time name="diag">    0.50    0.50</time>
   <time name="diis">    1.59    1.59</time>
   <time name="orth">    0.01    0.01</time>
   <time name="total">    4.10    4.11</time>
   <energy>
    <i name="e_fr_energy">    -23.96093542 </i>
    <i name="e_wo_entrp">    -23.97357175 </i>
    <i name="e_0_energy">    -23.96514753 </i>
   </energy>
  </scstep>
  <scstep>
   <time name="diag">    0.50    0.50</time>
   <time name="diis">    1.57    1.57</time>
   <time name="orth">    0.01    0.01</time>
   <time name="total">    4.09    4.10</time>
   <energy>
    <i name="e_fr_energy">    -23.96102487 </i>
    <i name="e_wo_entrp">    -23.97373177 </i>
    <i name="e_0_energy">    -23.96526050 </i>
   </energy>
  </scstep>
  <scstep>
   <time name="diag">    0.49    0.49</time>
   <time name="diis">    1.57    1.57</time>
   <time name="orth">    0.01    0.01</time>
   <time name="total">    4.13    4.14</time>
   <energy>
    <i name="e_fr_energy">    -23.96134504 </i>
    <i name="e_wo_entrp">    -23.97403340 </i>
    <i name="e_0_energy">    -23.96557449 </i>
   </energy>
  </scstep>
  <scstep>
   <time name="diag">    0.49    0.49</time>
   <time name="diis">    1.57    1.57</time>
   <time name="orth">    0.01    0.01</time>
   <time name="total">    4.09    4.10</time>
   <energy>
    <i name="e_fr_energy">    -23.96117231 </i>
    <i name="e_wo_entrp">    -23.97401508 </i>
    <i name="e_0_energy">    -23.96545323 </i>
   </energy>
  </scstep>
  <scstep>
   <time name="diag">    0.48    0.48</time>
   <time name="diis">    1.56    1.56</time>
   <time name="orth">    0.01    0.01</time>
   <time name="total">    4.09    4.10</time>
   <energy>
    <i name="e_fr_energy">    -23.96090874 </i>
    <i name="e_wo_entrp">    -23.97400885 </i>
    <i name="e_0_energy">    -23.96527544 </i>
   </energy>
  </scstep>
  <scstep>
   <time name="diag">    0.47    0.47</time>
   <time name="diis">    1.55    1.55</time>
   <time name="orth">    0.01    0.01</time>
   <time name="total">    4.07    4.08</time>
   <energy>
    <i name="e_fr_energy">    -23.96086844 </i>
    <i name="e_wo_entrp">    -23.97417120 </i>
    <i name="e_0_energy">    -23.96530270 </i>
   </energy>
  </scstep>
  <scstep>
   <time name="diag">    0.47    0.48</time>
   <time name="diis">    1.53    1.53</time>
   <time name="orth">    0.01    0.01</time>
   <time name="total">    4.09    4.10</time>
   <energy>
    <i name="e_fr_energy">    -23.96082327 </i>
    <i name="e_wo_entrp">    -23.97430828 </i>
    <i name="e_0_energy">    -23.96531827 </i>
   </energy>
  </scstep>
  <scstep>
   <time name="diag">    0.47    0.47</time>
   <time name="diis">    1.54    1.55</time>
   <time name="orth">    0.01    0.01</time>
   <time name="total">    4.13    4.14</time>
   <energy>
    <i name="e_fr_energy">    -23.96081516 </i>
    <i name="e_wo_entrp">    -23.97448177 </i>
    <i name="e_0_energy">    -23.96537070 </i>
   </energy>
  </scstep>
  <scstep>
   <time name="diag">    0.47    0.47</time>
   <time name="diis">    1.57    1.57</time>
   <time name="orth">    0.01    0.01</time>
   <time name="total">    4.21    4.21</time>
   <energy>
    <i name="e_fr_energy">    -23.96081942 </i>
    <i name="e_wo_entrp">    -23.97464534 </i>
    <i name="e_0_energy">    -23.96542806 </i>
   </energy>
  </scstep>
  <scstep>
   <time name="diag">    0.47    0.47</time>
   <time name="diis">    1.62    1.62</time>
   <time name="orth">    0.01    0.01</time>
   <time name="total">    4.27    4.28</time>
   <energy>
    <i name="e_fr_energy">    -23.96082283 </i>
    <i name="e_wo_entrp">    -23.97472195 </i>
    <i name="e_0_energy">    -23.96545587 </i>
   </energy>
  </scstep>
  <scstep>
   <time name="diag">    0.47    0.47</time>
   <time name="diis">    1.59    1.60</time>
   <time name="orth">    0.01    0.01</time>
   <time name="total">    4.29    4.30</time>
   <energy>
    <i name="e_fr_energy">    -23.96082578 </i>
    <i name="e_wo_entrp">    -23.97477837 </i>
    <i name="e_0_energy">    -23.96547664 </i>
   </energy>
  </scstep>
  <scstep>
   <time name="diag">    0.47    0.47</time>
   <time name="diis">    1.26    1.27</time>
   <time name="orth">    0.01    0.01</time>
   <time name="total">    3.95    3.96</time>
   <energy>
    <i name="e_fr_energy">    -23.96082774 </i>
    <i name="e_wo_entrp">    -23.97480875 </i>
    <i name="e_0_energy">    -23.96548808 </i>
   </energy>
  </scstep>
  <scstep>
   <time name="diag">    0.45    0.46</time>
   <time name="diis">    1.26    1.26</time>
   <time name="orth">    0.01    0.01</time>
   <time name="total">    3.54    3.55</time>
   <energy>
    <i name="alphaZ">      0.23812204 </i>
    <i name="ewald">    129.90693177 </i>
    <i name="hartreedc">   -285.55649201 </i>
    <i name="XCdc">     24.75795281 </i>
    <i name="pawpsdc">    474.99483670 </i>
    <i name="pawaedc">   -475.78462859 </i>
    <i name="eentropy">      0.01399714 </i>
    <i name="bandstr">    -89.57330282 </i>
    <i name="atom">    197.04175453 </i>
    <i name="e_fr_energy">    -23.96082844 </i>
    <i name="e_wo_entrp">    -23.97482558 </i>
    <i name="e_0_energy">    -23.96549415 </i>
   </energy>
  </scstep>
  <structure>
   <crystal>
    <varray name="basis" >
     <v>      10.01648750       0.00000000       0.00000000 </v>
     <v>      -0.03529536       9.92301481       0.00000000 </v>
     <v>       0.06433812       0.01491233      10.23544017 </v>
    </varray>
    <i name="volume">   1017.33882109 </i>
    <varray name="rec_basis" >
     <v>       0.09983540       0.00035511      -0.00062806 </v>
     <v>       0.00000000       0.10077582      -0.00014682 </v>
     <v>       0.00000000      -0.00000000       0.09769976 </v>
    </varray>
   </crystal>
   <varray name="positions" >
    <v>       0.54208232       0.40728485       0.36101789 </v>
    <v>       0.39643664       0.48497028       0.44310050 </v>
    <v>       0.55165334       0.56663784       0.44298717 </v>
    <v>       0.53058866       0.41717796       0.53495398 </v>
    <v>       0.50250687       0.46605553       0.44549631 </v>
   </varray>
  </structure>
  <varray name="forces" >
   <v>      -0.05377905       0.07018579       0.34761353 </v>
   <v>      -0.86529756      -0.33692203      -0.15468869 </v>
   <v>      -0.18685102      -0.46970306      -0.20845153 </v>
   <v>      -0.48737902      -0.75158903       1.01077438 </v>
   <v>       0.84724196       2.17653328      -0.89593302 </v>
  </varray>
  <varray name="stress" >
   <v>      -0.48723775       0.13268234       0.56829215 </v>
   <v>       0.13268234      -1.16229420      -0.68993677 </v>
   <v>       0.56829216      -0.68993677      -0.72054599 </v>
  </varray>
  <energy>
   <i name="e_fr_energy">    -23.96082844 </i>
   <i name="e_wo_entrp">    -23.96549415 </i>
   <i name="e_0_energy">      0.01399714 </i>
   <i name="kinetic">      0.03384654 </i>
   <i name="lattice kinetic">      0.00000000 </i>
   <i name="nosepot">      0.00031061 </i>
   <i name="nosekinetic">      0.00007465 </i>
   <i name="total">    -23.92659664 </i>
  </energy>
  <dos>
   <i name="efermi">     -8.86159670 </i>
   <total>
    <array>
     <dimension dim="1">gridpoints</dimension>
     <dimension dim="2">spin</dimension>
     <field>energy</field>
     <field>total</field>
     <field>integrated</field>
     <set>
      <set comment="spin 1">
       <r>   -18.9060     0.0000     0.0000 </r>
       <r>   -18.8340     0.0000     0.0000 </r>
       <r>   -18.7620     0.0000     0.0000 </r>
       <r>   -18.6899     0.0000     0.0000 </r>
       <r>   -18.6179     0.0000     0.0000 </r>
       <r>   -18.5459    -0.0000    -0.0000 </r>
       <r>   -18.4738    -0.0000    -0.0000 </r>
       <r>   -18.4018    -0.0000    -0.0000 </r>
       <r>   -18.3298    -0.0000    -0.0000 </r>
       <r>   -18.2577    -0.0000    -0.0000 </r>
       <r>   -18.1857    -0.0000    -0.0000 </r>
       <r>   -18.1137    -0.0000    -0.0000 </r>
       <r>   -18.0416    -0.0000    -0.0000 </r>
       <r>   -17.9696    -0.0000    -0.0000 </r>
       <r>   -17.8975    -0.0000    -0.0000 </r>
       <r>   -17.8255    -0.0000    -0.0000 </r>
       <r>   -17.7535    -0.0000    -0.0000 </r>
       <r>   -17.6814    -0.0000    -0.0000 </r>
       <r>   -17.6094    -0.0001    -0.0000 </r>
       <r>   -17.5374    -0.0009    -0.0001 </r>
       <r>   -17.4653    -0.0067    -0.0006 </r>
       <r>   -17.3933    -0.0348    -0.0031 </r>
       <r>   -17.3213    -0.1297    -0.0124 </r>
       <r>   -17.2492    -0.3235    -0.0357 </r>
       <r>   -17.1772    -0.4276    -0.0665 </r>
       <r>   -17.1052     0.2384    -0.0493 </r>
       <r>   -17.0331     2.4813     0.1294 </r>
       <r>   -16.9611     5.8810     0.5530 </r>
       <r>   -16.8890     8.1910     1.1431 </r>
       <r>   -16.8170     7.4103     1.6769 </r>
[...]
       <r>     0.2459    -0.6717     9.9251 </r>
       <r>     0.3178    -0.7614     9.8703 </r>
       <r>     0.3897     0.4990     9.9062 </r>
       <r>     0.4617     4.5486    10.2333 </r>
       <r>     0.5336    11.4782    11.0588 </r>
       <r>     0.6055    18.5985    12.3964 </r>
       <r>     0.6774    21.4946    13.9423 </r>
       <r>     0.7493    17.8172    15.2237 </r>
       <r>     0.8213    10.0021    15.9430 </r>
       <r>     0.8932     3.0037    16.1590 </r>
       <r>     0.9651    -0.4127    16.1293 </r>
       <r>     1.0370    -0.9789    16.0589 </r>
       <r>     1.1089    -0.5625    16.0185 </r>
       <r>     1.1809    -0.1984    16.0042 </r>
       <r>     1.2528    -0.0488    16.0007 </r>
       <r>     1.3247    -0.0087    16.0001 </r>
       <r>     1.3966    -0.0012    16.0000 </r>
       <r>     1.4685    -0.0001    16.0000 </r>
       <r>     1.5404    -0.0000    16.0000 </r>
       <r>     1.6124    -0.0000    16.0000 </r>
       <r>     1.6843    -0.0000    16.0000 </r>
       <r>     1.7562    -0.0000    16.0000 </r>
       <r>     1.8281    -0.0000    16.0000 </r>
       <r>     1.9000    -0.0000    16.0000 </r>
       <r>     1.9720    -0.0000    16.0000 </r>
       <r>     2.0439     0.0000    16.0000 </r>
       <r>     2.1158     0.0000    16.0000 </r>
       <r>     2.1877     0.0000    16.0000 </r>
       <r>     2.2596     0.0000    16.0000 </r>
       <r>     2.3316     0.0000    16.0000 </r>
       <r>     2.4035     0.0000    16.0000 </r>
       <r>     2.4754     0.0000    16.0000 </r>
       <r>     2.5473     0.0000    16.0000 </r>
       <r>     2.6192     0.0000    16.0000 </r>
       <r>     2.6911     0.0000    16.0000 </r>
      </set>
     </set>
    </array>
   </total>
  </dos>
  <time name="totalsc">   87.31   87.67</time>
  <eigenvalues>
   <array>
    <dimension dim="1">band</dimension>
    <dimension dim="2">kpoint</dimension>
    <dimension dim="3">spin</dimension>
    <field>eigene</field>
    <field>occ</field>
    <set>
     <set comment="spin 1">
      <set comment="kpoint 1">
       <r>  -17.0388    1.0000 </r>
       <r>   -9.5098    1.0021 </r>
       <r>   -9.2811    1.0355 </r>
       <r>   -9.1782    0.9624 </r>
       <r>   -0.2995    0.0000 </r>
       <r>    0.5528    0.0000 </r>
       <r>    0.6743    0.0000 </r>
       <r>    0.6913    0.0000 </r>
      </set>
      <set comment="kpoint 2">
       <r>  -17.0388    1.0000 </r>
       <r>   -9.5099    1.0021 </r>
       <r>   -9.2811    1.0355 </r>
       <r>   -9.1782    0.9624 </r>
       <r>   -0.3006    0.0000 </r>
       <r>    0.5568    0.0000 </r>
       <r>    0.6593    0.0000 </r>
       <r>    0.7016    0.0000 </r>
      </set>
      <set comment="kpoint 3">
       <r>  -17.0387    1.0000 </r>
       <r>   -9.5098    1.0021 </r>
       <r>   -9.2811    1.0355 </r>
       <r>   -9.1783    0.9624 </r>
       <r>   -0.3005    0.0000 </r>
       <r>    0.5534    0.0000 </r>
       <r>    0.6703    0.0000 </r>
       <r>    0.6971    0.0000 </r>
      </set>
      <set comment="kpoint 4">
       <r>  -17.0388    1.0000 </r>
       <r>   -9.5099    1.0021 </r>
       <r>   -9.2812    1.0355 </r>
       <r>   -9.1784    0.9626 </r>
       <r>   -0.2982    0.0000 </r>
       <r>    0.5502    0.0000 </r>
       <r>    0.6727    0.0000 </r>
       <r>    0.6839    0.0000 </r>
      </set>
     </set>
    </set>
   </array>
  </eigenvalues>
  <separator name="orbital magnetization" >
   <v name="MAGDIPOLOUT">      0.00000000      0.00000000      0.00000000</v>
  </separator>
  <dos>
   <i name="efermi">     -9.03677011 </i>
   <total>
    <array>
     <dimension dim="1">gridpoints</dimension>
     <dimension dim="2">spin</dimension>
     <field>energy</field>
     <field>total</field>
     <field>integrated</field>
     <set>
      <set comment="spin 1">
       <r>   -19.0388     0.0000     0.0000 </r>
       <r>   -18.9663     0.0000     0.0000 </r>
       <r>   -18.8939     0.0000     0.0000 </r>
       <r>   -18.8214     0.0000     0.0000 </r>
       <r>   -18.7489     0.0000     0.0000 </r>
       <r>   -18.6765    -0.0000    -0.0000 </r>
       <r>   -18.6040    -0.0000    -0.0000 </r>
       <r>   -18.5315    -0.0000    -0.0000 </r>
       <r>   -18.4591    -0.0000    -0.0000 </r>
       <r>   -18.3866    -0.0000    -0.0000 </r>
       <r>   -18.3141    -0.0000    -0.0000 </r>
       <r>   -18.2417    -0.0000    -0.0000 </r>
       <r>   -18.1692    -0.0000    -0.0000 </r>
       <r>   -18.0967    -0.0000    -0.0000 </r>
       <r>   -18.0243    -0.0000    -0.0000 </r>
       <r>   -17.9518    -0.0000    -0.0000 </r>
       <r>   -17.8793    -0.0000    -0.0000 </r>
       <r>   -17.8068    -0.0000    -0.0000 </r>
       <r>   -17.7344    -0.0001    -0.0000 </r>
       <r>   -17.6619    -0.0012    -0.0001 </r>
       <r>   -17.5894    -0.0082    -0.0007 </r>
       <r>   -17.5170    -0.0417    -0.0037 </r>
       <r>   -17.4445    -0.1496    -0.0146 </r>
       <r>   -17.3720    -0.3520    -0.0401 </r>
       <r>   -17.2996    -0.4017    -0.0692 </r>
       <r>   -17.2271     0.4584    -0.0360 </r>
       <r>   -17.1546     2.9645     0.1789 </r>
       <r>   -17.0822     6.3910     0.6420 </r>
       <r>   -17.0097     8.2933     1.2430 </r>
       <r>   -16.9372     6.9752     1.7485 </r>
       <r>   -16.8648     3.6318     2.0117 </r>
       <r>   -16.7923     0.8171     2.0709 </r>
       <r>   -16.7198    -0.3349     2.0466 </r>
       <r>   -16.6474    -0.3905     2.0183 </r>
       <r>   -16.5749    -0.1840     2.0050 </r>
       <r>   -16.5024    -0.0553     2.0010 </r>
       <r>   -16.4300    -0.0117     2.0001 </r>
       <r>   -16.3575    -0.0018     2.0000 </r>
       <r>   -16.2850    -0.0002     2.0000 </r>
       <r>   -16.2126    -0.0000     2.0000 </r>
       <r>   -16.1401    -0.0000     2.0000 </r>
       <r>   -16.0676    -0.0000     2.0000 </r>
       <r>   -15.9952    -0.0000     2.0000 </r>
       <r>   -15.9227    -0.0000     2.0000 </r>
       <r>   -15.8502    -0.0000     2.0000 </r>
       <r>   -15.7777    -0.0000     2.0000 </r>
       <r>   -15.7053     0.0000     2.0000 </r>
       <r>   -15.6328     0.0000     2.0000 </r>
       <r>   -15.5603     0.0000     2.0000 </r>
       <r>   -15.4879     0.0000     2.0000 </r>
       <r>   -15.4154     0.0000     2.0000 </r>
       <r>   -15.3429     0.0000     2.0000 </r>
       <r>   -15.2705     0.0000     2.0000 </r>
       <r>   -15.1980     0.0000     2.0000 </r>
       <r>   -15.1255     0.0000     2.0000 </r>
       <r>   -15.0531     0.0000     2.0000 </r>
       <r>   -14.9806     0.0000     2.0000 </r>
       <r>   -14.9081     0.0000     2.0000 </r>
       <r>   -14.8357     0.0000     2.0000 </r>
       <r>   -14.7632     0.0000     2.0000 </r>
       <r>   -14.6907     0.0000     2.0000 </r>
       <r>   -14.6183     0.0000     2.0000 </r>
       <r>   -14.5458     0.0000     2.0000 </r>
       <r>   -14.4733     0.0000     2.0000 </r>
       <r>   -14.4009     0.0000     2.0000 </r>
       <r>   -14.3284     0.0000     2.0000 </r>
       <r>   -14.2559     0.0000     2.0000 </r>
       <r>   -14.1835     0.0000     2.0000 </r>
       <r>   -14.1110     0.0000     2.0000 </r>
       <r>   -14.0385     0.0000     2.0000 </r>
       <r>   -13.9660     0.0000     2.0000 </r>
       <r>   -13.8936     0.0000     2.0000 </r>
       <r>   -13.8211     0.0000     2.0000 </r>
       <r>   -13.7486     0.0000     2.0000 </r>
       <r>   -13.6762     0.0000     2.0000 </r>
       <r>   -13.6037     0.0000     2.0000 </r>
       <r>   -13.5312     0.0000     2.0000 </r>
       <r>   -13.4588     0.0000     2.0000 </r>
       <r>   -13.3863     0.0000     2.0000 </r>
       <r>   -13.3138     0.0000     2.0000 </r>
       <r>   -13.2414     0.0000     2.0000 </r>
       <r>   -13.1689     0.0000     2.0000 </r>
       <r>   -13.0964     0.0000     2.0000 </r>
       <r>   -13.0240     0.0000     2.0000 </r>
       <r>   -12.9515     0.0000     2.0000 </r>
       <r>   -12.8790     0.0000     2.0000 </r>
       <r>   -12.8066     0.0000     2.0000 </r>
       <r>   -12.7341     0.0000     2.0000 </r>
       <r>   -12.6616     0.0000     2.0000 </r>
       <r>   -12.5892     0.0000     2.0000 </r>
       <r>   -12.5167     0.0000     2.0000 </r>
       <r>   -12.4442     0.0000     2.0000 </r>
       <r>   -12.3718     0.0000     2.0000 </r>
       <r>   -12.2993     0.0000     2.0000 </r>
       <r>   -12.2268     0.0000     2.0000 </r>
       <r>   -12.1544     0.0000     2.0000 </r>
       <r>   -12.0819     0.0000     2.0000 </r>
       <r>   -12.0094     0.0000     2.0000 </r>
       <r>   -11.9369     0.0000     2.0000 </r>
       <r>   -11.8645     0.0000     2.0000 </r>
       <r>   -11.7920     0.0000     2.0000 </r>
       <r>   -11.7195     0.0000     2.0000 </r>
       <r>   -11.6471     0.0000     2.0000 </r>
       <r>   -11.5746     0.0000     2.0000 </r>
       <r>   -11.5021     0.0000     2.0000 </r>
       <r>   -11.4297     0.0000     2.0000 </r>
       <r>   -11.3572     0.0000     2.0000 </r>
       <r>   -11.2847     0.0000     2.0000 </r>
       <r>   -11.2123     0.0000     2.0000 </r>
       <r>   -11.1398    -0.0000     2.0000 </r>
       <r>   -11.0673    -0.0000     2.0000 </r>
       <r>   -10.9949    -0.0000     2.0000 </r>
       <r>   -10.9224    -0.0000     2.0000 </r>
       <r>   -10.8499    -0.0000     2.0000 </r>
       <r>   -10.7775    -0.0000     2.0000 </r>
       <r>   -10.7050    -0.0000     2.0000 </r>
       <r>   -10.6325    -0.0000     2.0000 </r>
       <r>   -10.5601    -0.0000     2.0000 </r>
       <r>   -10.4876    -0.0000     2.0000 </r>
       <r>   -10.4151    -0.0000     2.0000 </r>
       <r>   -10.3427    -0.0000     2.0000 </r>
       <r>   -10.2702    -0.0000     2.0000 </r>
       <r>   -10.1977    -0.0002     2.0000 </r>
       <r>   -10.1252    -0.0015     1.9999 </r>
       <r>   -10.0528    -0.0100     1.9992 </r>
       <r>    -9.9803    -0.0487     1.9956 </r>
       <r>    -9.9078    -0.1687     1.9834 </r>
       <r>    -9.8354    -0.3815     1.9558 </r>
       <r>    -9.7629    -0.4128     1.9258 </r>
       <r>    -9.6904     0.4810     1.9607 </r>
       <r>    -9.6180     2.8922     2.1703 </r>
       <r>    -9.5455     6.0519     2.6089 </r>
       <r>    -9.4730     8.2567     3.2072 </r>
       <r>    -9.4006     9.3534     3.8850 </r>
       <r>    -9.3281    11.0838     4.6882 </r>
       <r>    -9.2556    13.6915     5.6804 </r>
       <r>    -9.1832    14.4898     6.7305 </r>
       <r>    -9.1107    11.4177     7.5579 </r>
       <r>    -9.0382     6.0323     7.9951 </r>
       <r>    -8.9658     1.5865     8.1100 </r>
       <r>    -8.8933    -0.3986     8.0811 </r>
       <r>    -8.8208    -0.6335     8.0352 </r>
       <r>    -8.7484    -0.3392     8.0107 </r>
       <r>    -8.6759    -0.1145     8.0024 </r>
       <r>    -8.6034    -0.0272     8.0004 </r>
       <r>    -8.5310    -0.0047     8.0000 </r>
       <r>    -8.4585    -0.0006     8.0000 </r>
       <r>    -8.3860    -0.0001     8.0000 </r>
       <r>    -8.3136    -0.0000     8.0000 </r>
       <r>    -8.2411    -0.0000     8.0000 </r>
       <r>    -8.1686    -0.0000     8.0000 </r>
       <r>    -8.0961    -0.0000     8.0000 </r>
       <r>    -8.0237    -0.0000     8.0000 </r>
       <r>    -7.9512    -0.0000     8.0000 </r>
       <r>    -7.8787     0.0000     8.0000 </r>
       <r>    -7.8063     0.0000     8.0000 </r>
       <r>    -7.7338     0.0000     8.0000 </r>
       <r>    -7.6613     0.0000     8.0000 </r>
       <r>    -7.5889     0.0000     8.0000 </r>
       <r>    -7.5164     0.0000     8.0000 </r>
       <r>    -7.4439     0.0000     8.0000 </r>
       <r>    -7.3715     0.0000     8.0000 </r>
       <r>    -7.2990     0.0000     8.0000 </r>
       <r>    -7.2265     0.0000     8.0000 </r>
       <r>    -7.1541     0.0000     8.0000 </r>
       <r>    -7.0816     0.0000     8.0000 </r>
       <r>    -7.0091     0.0000     8.0000 </r>
       <r>    -6.9367     0.0000     8.0000 </r>
       <r>    -6.8642     0.0000     8.0000 </r>
       <r>    -6.7917     0.0000     8.0000 </r>
       <r>    -6.7193     0.0000     8.0000 </r>
       <r>    -6.6468     0.0000     8.0000 </r>
       <r>    -6.5743     0.0000     8.0000 </r>
       <r>    -6.5019     0.0000     8.0000 </r>
       <r>    -6.4294     0.0000     8.0000 </r>
       <r>    -6.3569     0.0000     8.0000 </r>
       <r>    -6.2845     0.0000     8.0000 </r>
       <r>    -6.2120     0.0000     8.0000 </r>
       <r>    -6.1395     0.0000     8.0000 </r>
       <r>    -6.0670     0.0000     8.0000 </r>
       <r>    -5.9946     0.0000     8.0000 </r>
       <r>    -5.9221     0.0000     8.0000 </r>
       <r>    -5.8496     0.0000     8.0000 </r>
       <r>    -5.7772     0.0000     8.0000 </r>
       <r>    -5.7047     0.0000     8.0000 </r>
       <r>    -5.6322     0.0000     8.0000 </r>
       <r>    -5.5598     0.0000     8.0000 </r>
       <r>    -5.4873     0.0000     8.0000 </r>
       <r>    -5.4148     0.0000     8.0000 </r>
       <r>    -5.3424     0.0000     8.0000 </r>
       <r>    -5.2699     0.0000     8.0000 </r>
       <r>    -5.1974     0.0000     8.0000 </r>
       <r>    -5.1250     0.0000     8.0000 </r>
       <r>    -5.0525     0.0000     8.0000 </r>
       <r>    -4.9800     0.0000     8.0000 </r>
       <r>    -4.9076     0.0000     8.0000 </r>
       <r>    -4.8351     0.0000     8.0000 </r>
       <r>    -4.7626     0.0000     8.0000 </r>
       <r>    -4.6902     0.0000     8.0000 </r>
       <r>    -4.6177     0.0000     8.0000 </r>
       <r>    -4.5452     0.0000     8.0000 </r>
       <r>    -4.4728     0.0000     8.0000 </r>
       <r>    -4.4003     0.0000     8.0000 </r>
       <r>    -4.3278     0.0000     8.0000 </r>
       <r>    -4.2553     0.0000     8.0000 </r>
       <r>    -4.1829     0.0000     8.0000 </r>
       <r>    -4.1104     0.0000     8.0000 </r>
       <r>    -4.0379     0.0000     8.0000 </r>
       <r>    -3.9655     0.0000     8.0000 </r>
       <r>    -3.8930     0.0000     8.0000 </r>
       <r>    -3.8205     0.0000     8.0000 </r>
       <r>    -3.7481     0.0000     8.0000 </r>
       <r>    -3.6756     0.0000     8.0000 </r>
       <r>    -3.6031     0.0000     8.0000 </r>
       <r>    -3.5307     0.0000     8.0000 </r>
       <r>    -3.4582     0.0000     8.0000 </r>
       <r>    -3.3857     0.0000     8.0000 </r>
       <r>    -3.3133     0.0000     8.0000 </r>
       <r>    -3.2408     0.0000     8.0000 </r>
       <r>    -3.1683     0.0000     8.0000 </r>
       <r>    -3.0959     0.0000     8.0000 </r>
       <r>    -3.0234     0.0000     8.0000 </r>
       <r>    -2.9509     0.0000     8.0000 </r>
       <r>    -2.8785     0.0000     8.0000 </r>
       <r>    -2.8060     0.0000     8.0000 </r>
       <r>    -2.7335     0.0000     8.0000 </r>
       <r>    -2.6611     0.0000     8.0000 </r>
       <r>    -2.5886     0.0000     8.0000 </r>
       <r>    -2.5161     0.0000     8.0000 </r>
       <r>    -2.4437     0.0000     8.0000 </r>
       <r>    -2.3712     0.0000     8.0000 </r>
       <r>    -2.2987     0.0000     8.0000 </r>
       <r>    -2.2262     0.0000     8.0000 </r>
       <r>    -2.1538     0.0000     8.0000 </r>
       <r>    -2.0813     0.0000     8.0000 </r>
       <r>    -2.0088     0.0000     8.0000 </r>
       <r>    -1.9364    -0.0000     8.0000 </r>
       <r>    -1.8639    -0.0000     8.0000 </r>
       <r>    -1.7914    -0.0000     8.0000 </r>
       <r>    -1.7190    -0.0000     8.0000 </r>
       <r>    -1.6465    -0.0000     8.0000 </r>
       <r>    -1.5740    -0.0000     8.0000 </r>
       <r>    -1.5016    -0.0000     8.0000 </r>
       <r>    -1.4291    -0.0000     8.0000 </r>
       <r>    -1.3566    -0.0000     8.0000 </r>
       <r>    -1.2842    -0.0000     8.0000 </r>
       <r>    -1.2117    -0.0000     8.0000 </r>
       <r>    -1.1392    -0.0000     8.0000 </r>
       <r>    -1.0668    -0.0000     8.0000 </r>
       <r>    -0.9943    -0.0001     8.0000 </r>
       <r>    -0.9218    -0.0012     7.9999 </r>
       <r>    -0.8494    -0.0085     7.9993 </r>
       <r>    -0.7769    -0.0426     7.9962 </r>
       <r>    -0.7044    -0.1519     7.9852 </r>
       <r>    -0.6320    -0.3550     7.9595 </r>
       <r>    -0.5595    -0.3981     7.9306 </r>
       <r>    -0.4870     0.4821     7.9656 </r>
       <r>    -0.4145     3.0115     8.1838 </r>
       <r>    -0.3421     6.4354     8.6502 </r>
       <r>    -0.2696     8.2976     9.2515 </r>
       <r>    -0.1971     6.9354     9.7541 </r>
       <r>    -0.1247     3.5824    10.0137 </r>
       <r>    -0.0522     0.7870    10.0707 </r>
       <r>     0.0203    -0.3544    10.0450 </r>
       <r>     0.0927    -0.4534    10.0121 </r>
       <r>     0.1652    -0.4126     9.9822 </r>
       <r>     0.2377    -0.6167     9.9376 </r>
       <r>     0.3101    -0.8053     9.8792 </r>
       <r>     0.3826     0.0639     9.8838 </r>
       <r>     0.4551     3.5073    10.1380 </r>
       <r>     0.5275    10.0439    10.8659 </r>
       <r>     0.6000    17.4946    12.1337 </r>
       <r>     0.6725    21.4464    13.6878 </r>
       <r>     0.7449    18.8249    15.0520 </r>
       <r>     0.8174    11.2978    15.8708 </r>
       <r>     0.8899     3.8457    16.1495 </r>
       <r>     0.9623    -0.1440    16.1390 </r>
       <r>     1.0348    -0.9963    16.0668 </r>
       <r>     1.1073    -0.6228    16.0217 </r>
       <r>     1.1797    -0.2291    16.0051 </r>
       <r>     1.2522    -0.0579    16.0009 </r>
       <r>     1.3247    -0.0106    16.0001 </r>
       <r>     1.3971    -0.0014    16.0000 </r>
       <r>     1.4696    -0.0001    16.0000 </r>
       <r>     1.5421    -0.0000    16.0000 </r>
       <r>     1.6146    -0.0000    16.0000 </r>
       <r>     1.6870    -0.0000    16.0000 </r>
       <r>     1.7595    -0.0000    16.0000 </r>
       <r>     1.8320    -0.0000    16.0000 </r>
       <r>     1.9044    -0.0000    16.0000 </r>
       <r>     1.9769    -0.0000    16.0000 </r>
       <r>     2.0494     0.0000    16.0000 </r>
       <r>     2.1218     0.0000    16.0000 </r>
       <r>     2.1943     0.0000    16.0000 </r>
       <r>     2.2668     0.0000    16.0000 </r>
       <r>     2.3392     0.0000    16.0000 </r>
       <r>     2.4117     0.0000    16.0000 </r>
       <r>     2.4842     0.0000    16.0000 </r>
       <r>     2.5566     0.0000    16.0000 </r>
       <r>     2.6291     0.0000    16.0000 </r>
       <r>     2.7016     0.0000    16.0000 </r>
      </set>
     </set>
    </array>
   </total>
  </dos>
 </calculation>
 <structure name="finalpos" >
  <crystal>
   <varray name="basis" >
    <v>      10.01648750       0.00000000       0.00000000 </v>
    <v>      -0.03529536       9.92301481       0.00000000 </v>
    <v>       0.06433812       0.01491233      10.23544017 </v>
   </varray>
   <i name="volume">   1017.33882109 </i>
   <varray name="rec_basis" >
    <v>       0.09983540       0.00035511      -0.00062806 </v>
    <v>       0.00000000       0.10077582      -0.00014682 </v>
    <v>       0.00000000      -0.00000000       0.09769976 </v>
   </varray>
  </crystal>
  <varray name="positions" >
   <v>       0.54415900       0.40691265       0.37324254 </v>
   <v>       0.39221904       0.46853606       0.42875521 </v>
   <v>       0.54875837       0.56915399       0.44195362 </v>
   <v>       0.52583134       0.42053602       0.53530509 </v>
   <v>       0.50332222       0.46696571       0.44572969 </v>
  </varray>
  <varray name="velocities" >
   <v>      -0.00015530       0.00269026       0.00513680 </v>
   <v>      -0.00186604      -0.00056688      -0.00281235 </v>
   <v>      -0.00101848       0.00091238       0.00069968 </v>
   <v>      -0.00312534       0.00222707      -0.00290335 </v>
   <v>       0.00051329      -0.00043817      -0.00001006 </v>
  </varray>
 </structure>
</modeling>
