unknown system                          
           1
    10.016488    0.000000    0.000000
    -0.035295    9.923015    0.000000
     0.064338    0.014912   10.235440
   H    C 
   4   1
Direct configuration=     1
   0.53818585  0.40680528  0.36056090
   0.39521805  0.48011097  0.43904027
   0.55265838  0.56571959  0.44274872
   0.52843363  0.41617744  0.53939047
   0.50302848  0.46665978  0.44552289
Direct configuration=     2
   0.53870030  0.40749023  0.36222855
   0.39652812  0.48255939  0.44116837
   0.55237495  0.56628234  0.44334211
   0.52998826  0.41756822  0.53629085
   0.50277073  0.46623625  0.44541552
Direct configuration=     3
   0.54208232  0.40728485  0.36101789
   0.39643664  0.48497028  0.44310050
   0.55165334  0.56663784  0.44298717
   0.53058866  0.41717796  0.53495398
   0.50250687  0.46605553  0.44549631
Direct configuration=     4
   0.54540873  0.40718418  0.36109794
   0.39319929  0.48589446  0.44441627
   0.55039540  0.56500427  0.44182737
   0.52945705  0.41370310  0.53740167
   0.50269840  0.46641227  0.44527288
Direct configuration=     5
   0.54516665  0.40789053  0.36325457
   0.39151153  0.48485839  0.44521422
   0.55045756  0.56536845  0.44169489
   0.52813895  0.41063216  0.53851860
   0.50296364  0.46666508  0.44494492
Direct configuration=     6
   0.54108361  0.40823153  0.36564699
   0.39382191  0.48160588  0.44377155
   0.55172820  0.56665196  0.44354006
   0.52677698  0.41098675  0.53509913
   0.50311883  0.46677110  0.44499692
Direct configuration=     7
   0.53830461  0.40605115  0.36369238
   0.39563598  0.47785066  0.44028248
   0.55239668  0.56681631  0.44465941
   0.52740514  0.41332416  0.53282772
   0.50309121  0.46705699  0.44554606
Direct configuration=     8
   0.54213419  0.40017460  0.35840150
   0.39607036  0.47495631  0.43717776
   0.55146426  0.56632022  0.44436279
   0.52922854  0.41319882  0.53751113
   0.50266202  0.46783897  0.44587982
Direct configuration=     9
   0.54437787  0.40021531  0.36131432
   0.39532616  0.47161701  0.43428681
   0.55043475  0.56708503  0.44191090
   0.53064693  0.41413988  0.54068960
   0.50250481  0.46797158  0.44581751
Direct configuration=    10
   0.54431430  0.40422239  0.36810574
   0.39408509  0.46910294  0.43156755
   0.54977685  0.56824161  0.44125394
   0.52895668  0.41830895  0.53820845
   0.50280893  0.46740388  0.44573974
