   5   5   0   0
  0.1981195E+03  0.9756835E-09  0.9932853E-09  0.1022350E-08  0.2000000E-14
   50.000000000000000     
  CAR 
 unknown system                          
      2.71157640    -18.90410069  301     -9.08327360      1.00000000
    -18.904  0.0000E+00  0.0000E+00
    -18.832  0.0000E+00  0.0000E+00
    -18.760  0.0000E+00  0.0000E+00
    -18.688  0.0000E+00  0.0000E+00
    -18.616  0.0000E+00  0.0000E+00
    -18.544 -0.4109E-27 -0.2960E-28
    -18.472 -0.1265E-24 -0.9142E-26
    -18.400 -0.3003E-22 -0.2173E-23
    -18.328 -0.5487E-20 -0.3975E-21
    -18.256 -0.7711E-18 -0.5596E-19
    -18.184 -0.8330E-16 -0.6058E-17
    -18.112 -0.6915E-14 -0.5043E-15
    -18.039 -0.4270E-12 -0.3127E-13
    -17.967 -0.2082E-10 -0.1531E-11
    -17.895 -0.7767E-09 -0.5749E-10
    -17.823 -0.2216E-07 -0.1654E-08
    -17.751 -0.4825E-06 -0.3642E-07
    -17.679 -0.7996E-05 -0.6126E-06
    -17.607 -0.1005E-03 -0.7851E-05
    -17.535 -0.9513E-03 -0.7640E-04
    -17.463 -0.6730E-02 -0.5613E-03
    -17.391 -0.3503E-01 -0.3085E-02
    -17.319 -0.1304E+00 -0.1248E-01
    -17.247 -0.3246E+00 -0.3587E-01
    -17.175 -0.4269E+00 -0.6663E-01
    -17.103  0.2460E+00 -0.4891E-01
    -17.031  0.2499E+01  0.1311E+00
    -16.959  0.5901E+01  0.5563E+00
    -16.887  0.8197E+01  0.1147E+01
    -16.815  0.7395E+01  0.1680E+01
    -16.743  0.4223E+01  0.1984E+01
    -16.670  0.1192E+01  0.2070E+01
    -16.598 -0.2371E+00  0.2053E+01
    -16.526 -0.4194E+00  0.2023E+01
    -16.454 -0.2212E+00  0.2007E+01
    -16.382 -0.7219E-01  0.2001E+01
    -16.310 -0.1641E-01  0.2000E+01
    -16.238 -0.2711E-02  0.2000E+01
    -16.166 -0.3323E-03  0.2000E+01
    -16.094 -0.3058E-04  0.2000E+01
    -16.022 -0.2127E-05  0.2000E+01
    -15.950 -0.1124E-06  0.2000E+01
    -15.878 -0.4529E-08  0.2000E+01
    -15.806 -0.1394E-09  0.2000E+01
    -15.734 -0.3285E-11  0.2000E+01
    -15.662 -0.6163E-13  0.2000E+01
    -15.590  0.0000E+00  0.2000E+01
    -15.518  0.0000E+00  0.2000E+01
    -15.446  0.0000E+00  0.2000E+01
    -15.374  0.0000E+00  0.2000E+01
    -15.301  0.0000E+00  0.2000E+01
    -15.229  0.0000E+00  0.2000E+01
    -15.157  0.0000E+00  0.2000E+01
    -15.085  0.0000E+00  0.2000E+01
    -15.013  0.0000E+00  0.2000E+01
    -14.941  0.0000E+00  0.2000E+01
    -14.869  0.0000E+00  0.2000E+01
    -14.797  0.0000E+00  0.2000E+01
    -14.725  0.0000E+00  0.2000E+01
    -14.653  0.0000E+00  0.2000E+01
    -14.581  0.0000E+00  0.2000E+01
    -14.509  0.0000E+00  0.2000E+01
    -14.437  0.0000E+00  0.2000E+01
    -14.365  0.0000E+00  0.2000E+01
    -14.293  0.0000E+00  0.2000E+01
    -14.221  0.0000E+00  0.2000E+01
    -14.149  0.0000E+00  0.2000E+01
    -14.077  0.0000E+00  0.2000E+01
    -14.005  0.0000E+00  0.2000E+01
    -13.932  0.0000E+00  0.2000E+01
    -13.860  0.0000E+00  0.2000E+01
    -13.788  0.0000E+00  0.2000E+01
    -13.716  0.0000E+00  0.2000E+01
    -13.644  0.0000E+00  0.2000E+01
    -13.572  0.0000E+00  0.2000E+01
    -13.500  0.0000E+00  0.2000E+01
    -13.428  0.0000E+00  0.2000E+01
    -13.356  0.0000E+00  0.2000E+01
    -13.284  0.0000E+00  0.2000E+01
    -13.212  0.0000E+00  0.2000E+01
    -13.140  0.0000E+00  0.2000E+01
    -13.068  0.0000E+00  0.2000E+01
    -12.996  0.0000E+00  0.2000E+01
    -12.924  0.0000E+00  0.2000E+01
    -12.852  0.0000E+00  0.2000E+01
    -12.780  0.0000E+00  0.2000E+01
    -12.708  0.0000E+00  0.2000E+01
    -12.636  0.0000E+00  0.2000E+01
    -12.564  0.0000E+00  0.2000E+01
    -12.491  0.0000E+00  0.2000E+01
    -12.419  0.0000E+00  0.2000E+01
    -12.347  0.0000E+00  0.2000E+01
    -12.275  0.0000E+00  0.2000E+01
    -12.203  0.0000E+00  0.2000E+01
    -12.131  0.0000E+00  0.2000E+01
    -12.059  0.0000E+00  0.2000E+01
    -11.987  0.0000E+00  0.2000E+01
    -11.915  0.0000E+00  0.2000E+01
    -11.843  0.0000E+00  0.2000E+01
    -11.771  0.0000E+00  0.2000E+01
    -11.699  0.0000E+00  0.2000E+01
    -11.627  0.0000E+00  0.2000E+01
    -11.555  0.0000E+00  0.2000E+01
    -11.483  0.0000E+00  0.2000E+01
    -11.411  0.0000E+00  0.2000E+01
    -11.339  0.0000E+00  0.2000E+01
    -11.267  0.0000E+00  0.2000E+01
    -11.195  0.0000E+00  0.2000E+01
    -11.122  0.0000E+00  0.2000E+01
    -11.050 -0.3498E-28  0.2000E+01
    -10.978 -0.1201E-25  0.2000E+01
    -10.906 -0.3181E-23  0.2000E+01
    -10.834 -0.6483E-21  0.2000E+01
    -10.762 -0.1016E-18  0.2000E+01
    -10.690 -0.1225E-16  0.2000E+01
    -10.618 -0.1135E-14  0.2000E+01
    -10.546 -0.7776E-13  0.2000E+01
    -10.474 -0.4274E-11  0.2000E+01
    -10.402 -0.1783E-09  0.2000E+01
    -10.330 -0.5698E-08  0.2000E+01
    -10.258 -0.1392E-06  0.2000E+01
    -10.186 -0.2595E-05  0.2000E+01
    -10.114 -0.3681E-04  0.2000E+01
    -10.042 -0.3960E-03  0.2000E+01
     -9.970 -0.3214E-02  0.2000E+01
     -9.898 -0.1953E-01  0.1998E+01
     -9.826 -0.8770E-01  0.1992E+01
     -9.753 -0.2834E+00  0.1972E+01
     -9.681 -0.6187E+00  0.1927E+01
     -9.609 -0.7106E+00  0.1876E+01
     -9.537  0.5258E+00  0.1914E+01
     -9.465  0.4402E+01  0.2231E+01
     -9.393  0.1096E+02  0.3021E+01
     -9.321  0.1780E+02  0.4303E+01
     -9.249  0.2093E+02  0.5811E+01
     -9.177  0.1796E+02  0.7105E+01
     -9.105  0.1070E+02  0.7876E+01
     -9.033  0.3674E+01  0.8140E+01
     -8.961 -0.1004E+00  0.8133E+01
     -8.889 -0.9408E+00  0.8065E+01
     -8.817 -0.6050E+00  0.8022E+01
     -8.745 -0.2291E+00  0.8005E+01
     -8.673 -0.5988E-01  0.8001E+01
     -8.601 -0.1136E-01  0.8000E+01
     -8.529 -0.1600E-02  0.8000E+01
     -8.457 -0.1696E-03  0.8000E+01
     -8.384 -0.1361E-04  0.8000E+01
     -8.312 -0.8318E-06  0.8000E+01
     -8.240 -0.3882E-07  0.8000E+01
     -8.168 -0.1387E-08  0.8000E+01
     -8.096 -0.3797E-10  0.8000E+01
     -8.024 -0.8028E-12  0.8000E+01
     -7.952 -0.1233E-13  0.8000E+01
     -7.880  0.0000E+00  0.8000E+01
     -7.808  0.0000E+00  0.8000E+01
     -7.736  0.0000E+00  0.8000E+01
     -7.664  0.0000E+00  0.8000E+01
     -7.592  0.0000E+00  0.8000E+01
     -7.520  0.0000E+00  0.8000E+01
     -7.448  0.0000E+00  0.8000E+01
     -7.376  0.0000E+00  0.8000E+01
     -7.304  0.0000E+00  0.8000E+01
     -7.232  0.0000E+00  0.8000E+01
     -7.160  0.0000E+00  0.8000E+01
     -7.088  0.0000E+00  0.8000E+01
     -7.015  0.0000E+00  0.8000E+01
     -6.943  0.0000E+00  0.8000E+01
     -6.871  0.0000E+00  0.8000E+01
     -6.799  0.0000E+00  0.8000E+01
     -6.727  0.0000E+00  0.8000E+01
     -6.655  0.0000E+00  0.8000E+01
     -6.583  0.0000E+00  0.8000E+01
     -6.511  0.0000E+00  0.8000E+01
     -6.439  0.0000E+00  0.8000E+01
     -6.367  0.0000E+00  0.8000E+01
     -6.295  0.0000E+00  0.8000E+01
     -6.223  0.0000E+00  0.8000E+01
     -6.151  0.0000E+00  0.8000E+01
     -6.079  0.0000E+00  0.8000E+01
     -6.007  0.0000E+00  0.8000E+01
     -5.935  0.0000E+00  0.8000E+01
     -5.863  0.0000E+00  0.8000E+01
     -5.791  0.0000E+00  0.8000E+01
     -5.719  0.0000E+00  0.8000E+01
     -5.646  0.0000E+00  0.8000E+01
     -5.574  0.0000E+00  0.8000E+01
     -5.502  0.0000E+00  0.8000E+01
     -5.430  0.0000E+00  0.8000E+01
     -5.358  0.0000E+00  0.8000E+01
     -5.286  0.0000E+00  0.8000E+01
     -5.214  0.0000E+00  0.8000E+01
     -5.142  0.0000E+00  0.8000E+01
     -5.070  0.0000E+00  0.8000E+01
     -4.998  0.0000E+00  0.8000E+01
     -4.926  0.0000E+00  0.8000E+01
     -4.854  0.0000E+00  0.8000E+01
     -4.782  0.0000E+00  0.8000E+01
     -4.710  0.0000E+00  0.8000E+01
     -4.638  0.0000E+00  0.8000E+01
     -4.566  0.0000E+00  0.8000E+01
     -4.494  0.0000E+00  0.8000E+01
     -4.422  0.0000E+00  0.8000E+01
     -4.350  0.0000E+00  0.8000E+01
     -4.277  0.0000E+00  0.8000E+01
     -4.205  0.0000E+00  0.8000E+01
     -4.133  0.0000E+00  0.8000E+01
     -4.061  0.0000E+00  0.8000E+01
     -3.989  0.0000E+00  0.8000E+01
     -3.917  0.0000E+00  0.8000E+01
     -3.845  0.0000E+00  0.8000E+01
     -3.773  0.0000E+00  0.8000E+01
     -3.701  0.0000E+00  0.8000E+01
     -3.629  0.0000E+00  0.8000E+01
     -3.557  0.0000E+00  0.8000E+01
     -3.485  0.0000E+00  0.8000E+01
     -3.413  0.0000E+00  0.8000E+01
     -3.341  0.0000E+00  0.8000E+01
     -3.269  0.0000E+00  0.8000E+01
     -3.197  0.0000E+00  0.8000E+01
     -3.125  0.0000E+00  0.8000E+01
     -3.053  0.0000E+00  0.8000E+01
     -2.981  0.0000E+00  0.8000E+01
     -2.908  0.0000E+00  0.8000E+01
     -2.836  0.0000E+00  0.8000E+01
     -2.764  0.0000E+00  0.8000E+01
     -2.692  0.0000E+00  0.8000E+01
     -2.620  0.0000E+00  0.8000E+01
     -2.548  0.0000E+00  0.8000E+01
     -2.476  0.0000E+00  0.8000E+01
     -2.404  0.0000E+00  0.8000E+01
     -2.332  0.0000E+00  0.8000E+01
     -2.260  0.0000E+00  0.8000E+01
     -2.188  0.0000E+00  0.8000E+01
     -2.116  0.0000E+00  0.8000E+01
     -2.044  0.0000E+00  0.8000E+01
     -1.972 -0.7055E-28  0.8000E+01
     -1.900 -0.2347E-25  0.8000E+01
     -1.828 -0.6025E-23  0.8000E+01
     -1.756 -0.1190E-20  0.8000E+01
     -1.684 -0.1808E-18  0.8000E+01
     -1.612 -0.2112E-16  0.8000E+01
     -1.540 -0.1896E-14  0.8000E+01
     -1.467 -0.1269E-12  0.8000E+01
     -1.395 -0.6692E-11  0.8000E+01
     -1.323 -0.2704E-09  0.8000E+01
     -1.251 -0.8357E-08  0.8000E+01
     -1.179 -0.1973E-06  0.8000E+01
     -1.107 -0.3549E-05  0.8000E+01
     -1.035 -0.4845E-04  0.8000E+01
     -0.963 -0.4997E-03  0.8000E+01
     -0.891 -0.3862E-02  0.8000E+01
     -0.819 -0.2208E-01  0.7998E+01
     -0.747 -0.9128E-01  0.7992E+01
     -0.675 -0.2594E+00  0.7973E+01
     -0.603 -0.4361E+00  0.7941E+01
     -0.531 -0.9457E-01  0.7935E+01
     -0.459  0.1642E+01  0.8053E+01
     -0.387  0.4868E+01  0.8404E+01
     -0.315  0.7780E+01  0.8964E+01
     -0.243  0.7976E+01  0.9539E+01
     -0.171  0.5278E+01  0.9919E+01
     -0.098  0.1960E+01  0.1006E+02
     -0.026  0.1861E-01  0.1006E+02
      0.046 -0.4571E+00  0.1003E+02
      0.118 -0.3684E+00  0.1000E+02
      0.190 -0.3831E+00  0.9975E+01
      0.262 -0.6556E+00  0.9927E+01
      0.334 -0.7849E+00  0.9871E+01
      0.406  0.3848E+00  0.9899E+01
      0.478  0.4335E+01  0.1021E+02
      0.550  0.1124E+02  0.1102E+02
      0.622  0.1846E+02  0.1235E+02
      0.694  0.2151E+02  0.1390E+02
      0.766  0.1797E+02  0.1520E+02
      0.838  0.1019E+02  0.1593E+02
      0.910  0.3140E+01  0.1616E+02
      0.982 -0.3595E+00  0.1613E+02
      1.054 -0.9752E+00  0.1606E+02
      1.126 -0.5707E+00  0.1602E+02
      1.198 -0.2035E+00  0.1600E+02
      1.271 -0.5050E-01  0.1600E+02
      1.343 -0.9120E-02  0.1600E+02
      1.415 -0.1225E-02  0.1600E+02
      1.487 -0.1237E-03  0.1600E+02
      1.559 -0.9459E-05  0.1600E+02
      1.631 -0.5506E-06  0.1600E+02
      1.703 -0.2447E-07  0.1600E+02
      1.775 -0.8322E-09  0.1600E+02
      1.847 -0.2169E-10  0.1600E+02
      1.919 -0.4361E-12  0.1600E+02
      1.991 -0.6163E-14  0.1600E+02
      2.063  0.0000E+00  0.1600E+02
      2.135  0.0000E+00  0.1600E+02
      2.207  0.0000E+00  0.1600E+02
      2.279  0.0000E+00  0.1600E+02
      2.351  0.0000E+00  0.1600E+02
      2.423  0.0000E+00  0.1600E+02
      2.495  0.0000E+00  0.1600E+02
      2.567  0.0000E+00  0.1600E+02
      2.640  0.0000E+00  0.1600E+02
      2.712  0.0000E+00  0.1600E+02
      2.71845991    -18.95392454  301     -9.06581989      1.00000000
    -18.954  0.0000E+00  0.0000E+00
    -18.882  0.0000E+00  0.0000E+00
    -18.809  0.0000E+00  0.0000E+00
    -18.737  0.0000E+00  0.0000E+00
    -18.665  0.0000E+00  0.0000E+00
    -18.593 -0.4427E-27 -0.3198E-28
    -18.520 -0.1378E-24 -0.9988E-26
    -18.448 -0.3305E-22 -0.2398E-23
    -18.376 -0.6090E-20 -0.4424E-21
    -18.304 -0.8619E-18 -0.6271E-19
    -18.232 -0.9365E-16 -0.6828E-17
    -18.159 -0.7808E-14 -0.5709E-15
    -18.087 -0.4839E-12 -0.3553E-13
    -18.015 -0.2360E-10 -0.1741E-11
    -17.943 -0.8807E-09 -0.6536E-10
    -17.870 -0.2509E-07 -0.1878E-08
    -17.798 -0.5448E-06 -0.4123E-07
    -17.726 -0.8987E-05 -0.6905E-06
    -17.654 -0.1122E-03 -0.8798E-05
    -17.581 -0.1054E-02 -0.8496E-04
    -17.509 -0.7384E-02 -0.6184E-03
    -17.437 -0.3795E-01 -0.3360E-02
    -17.365 -0.1389E+00 -0.1339E-01
    -17.292 -0.3373E+00 -0.3776E-01
    -17.220 -0.4173E+00 -0.6791E-01
    -17.148  0.3385E+00 -0.4345E-01
    -17.076  0.2708E+01  0.1522E+00
    -17.003  0.6128E+01  0.5949E+00
    -16.931  0.8251E+01  0.1191E+01
    -16.859  0.7212E+01  0.1712E+01
    -16.787  0.3952E+01  0.1997E+01
    -16.714  0.1014E+01  0.2071E+01
    -16.642 -0.2865E+00  0.2050E+01
    -16.570 -0.4074E+00  0.2021E+01
    -16.498 -0.2038E+00  0.2006E+01
    -16.425 -0.6403E-01  0.2001E+01
    -16.353 -0.1406E-01  0.2000E+01
    -16.281 -0.2247E-02  0.2000E+01
    -16.209 -0.2663E-03  0.2000E+01
    -16.137 -0.2368E-04  0.2000E+01
    -16.064 -0.1591E-05  0.2000E+01
    -15.992 -0.8109E-07  0.2000E+01
    -15.920 -0.3147E-08  0.2000E+01
    -15.848 -0.9321E-10  0.2000E+01
    -15.775 -0.2110E-11  0.2000E+01
    -15.703 -0.3688E-13  0.2000E+01
    -15.631  0.0000E+00  0.2000E+01
    -15.559  0.0000E+00  0.2000E+01
    -15.486  0.0000E+00  0.2000E+01
    -15.414  0.0000E+00  0.2000E+01
    -15.342  0.0000E+00  0.2000E+01
    -15.270  0.0000E+00  0.2000E+01
    -15.197  0.0000E+00  0.2000E+01
    -15.125  0.0000E+00  0.2000E+01
    -15.053  0.0000E+00  0.2000E+01
    -14.981  0.0000E+00  0.2000E+01
    -14.908  0.0000E+00  0.2000E+01
    -14.836  0.0000E+00  0.2000E+01
    -14.764  0.0000E+00  0.2000E+01
    -14.692  0.0000E+00  0.2000E+01
    -14.619  0.0000E+00  0.2000E+01
    -14.547  0.0000E+00  0.2000E+01
    -14.475  0.0000E+00  0.2000E+01
    -14.403  0.0000E+00  0.2000E+01
    -14.330  0.0000E+00  0.2000E+01
    -14.258  0.0000E+00  0.2000E+01
    -14.186  0.0000E+00  0.2000E+01
    -14.114  0.0000E+00  0.2000E+01
    -14.042  0.0000E+00  0.2000E+01
    -13.969  0.0000E+00  0.2000E+01
    -13.897  0.0000E+00  0.2000E+01
    -13.825  0.0000E+00  0.2000E+01
    -13.753  0.0000E+00  0.2000E+01
    -13.680  0.0000E+00  0.2000E+01
    -13.608  0.0000E+00  0.2000E+01
    -13.536  0.0000E+00  0.2000E+01
    -13.464  0.0000E+00  0.2000E+01
    -13.391  0.0000E+00  0.2000E+01
    -13.319  0.0000E+00  0.2000E+01
    -13.247  0.0000E+00  0.2000E+01
    -13.175  0.0000E+00  0.2000E+01
    -13.102  0.0000E+00  0.2000E+01
    -13.030  0.0000E+00  0.2000E+01
    -12.958  0.0000E+00  0.2000E+01
    -12.886  0.0000E+00  0.2000E+01
    -12.813  0.0000E+00  0.2000E+01
    -12.741  0.0000E+00  0.2000E+01
    -12.669  0.0000E+00  0.2000E+01
    -12.597  0.0000E+00  0.2000E+01
    -12.524  0.0000E+00  0.2000E+01
    -12.452  0.0000E+00  0.2000E+01
    -12.380  0.0000E+00  0.2000E+01
    -12.308  0.0000E+00  0.2000E+01
    -12.235  0.0000E+00  0.2000E+01
    -12.163  0.0000E+00  0.2000E+01
    -12.091  0.0000E+00  0.2000E+01
    -12.019  0.0000E+00  0.2000E+01
    -11.947  0.0000E+00  0.2000E+01
    -11.874  0.0000E+00  0.2000E+01
    -11.802  0.0000E+00  0.2000E+01
    -11.730  0.0000E+00  0.2000E+01
    -11.658  0.0000E+00  0.2000E+01
    -11.585  0.0000E+00  0.2000E+01
    -11.513  0.0000E+00  0.2000E+01
    -11.441  0.0000E+00  0.2000E+01
    -11.369  0.0000E+00  0.2000E+01
    -11.296  0.0000E+00  0.2000E+01
    -11.224  0.0000E+00  0.2000E+01
    -11.152  0.0000E+00  0.2000E+01
    -11.080 -0.9647E-26  0.2000E+01
    -11.007 -0.2611E-23  0.2000E+01
    -10.935 -0.5444E-21  0.2000E+01
    -10.863 -0.8720E-19  0.2000E+01
    -10.791 -0.1073E-16  0.2000E+01
    -10.718 -0.1013E-14  0.2000E+01
    -10.646 -0.7181E-13  0.2000E+01
    -10.574 -0.3937E-11  0.2000E+01
    -10.502 -0.1667E-09  0.2000E+01
    -10.429 -0.5390E-08  0.2000E+01
    -10.357 -0.1330E-06  0.2000E+01
    -10.285 -0.2497E-05  0.2000E+01
    -10.213 -0.3555E-04  0.2000E+01
    -10.140 -0.3822E-03  0.2000E+01
    -10.068 -0.3079E-02  0.2000E+01
     -9.996 -0.1837E-01  0.1998E+01
     -9.924 -0.7960E-01  0.1993E+01
     -9.852 -0.2404E+00  0.1975E+01
     -9.779 -0.4541E+00  0.1942E+01
     -9.707 -0.2990E+00  0.1921E+01
     -9.635  0.1016E+01  0.1994E+01
     -9.563  0.3785E+01  0.2268E+01
     -9.490  0.7039E+01  0.2776E+01
     -9.418  0.9790E+01  0.3483E+01
     -9.346  0.1254E+02  0.4389E+01
     -9.274  0.1546E+02  0.5506E+01
     -9.201  0.1617E+02  0.6674E+01
     -9.129  0.1251E+02  0.7578E+01
     -9.057  0.6297E+01  0.8033E+01
     -8.985  0.1372E+01  0.8132E+01
     -8.912 -0.6238E+00  0.8087E+01
     -8.840 -0.7198E+00  0.8035E+01
     -8.768 -0.3482E+00  0.8010E+01
     -8.696 -0.1088E+00  0.8002E+01
     -8.623 -0.2407E-01  0.8000E+01
     -8.551 -0.3910E-02  0.8000E+01
     -8.479 -0.4743E-03  0.8000E+01
     -8.407 -0.4339E-04  0.8000E+01
     -8.334 -0.3011E-05  0.8000E+01
     -8.262 -0.1591E-06  0.8000E+01
     -8.190 -0.6420E-08  0.8000E+01
     -8.118 -0.1981E-09  0.8000E+01
     -8.045 -0.4686E-11  0.8000E+01
     -7.973 -0.8145E-13  0.8000E+01
     -7.901  0.0000E+00  0.8000E+01
     -7.829  0.0000E+00  0.8000E+01
     -7.757  0.0000E+00  0.8000E+01
     -7.684  0.0000E+00  0.8000E+01
     -7.612  0.0000E+00  0.8000E+01
     -7.540  0.0000E+00  0.8000E+01
     -7.468  0.0000E+00  0.8000E+01
     -7.395  0.0000E+00  0.8000E+01
     -7.323  0.0000E+00  0.8000E+01
     -7.251  0.0000E+00  0.8000E+01
     -7.179  0.0000E+00  0.8000E+01
     -7.106  0.0000E+00  0.8000E+01
     -7.034  0.0000E+00  0.8000E+01
     -6.962  0.0000E+00  0.8000E+01
     -6.890  0.0000E+00  0.8000E+01
     -6.817  0.0000E+00  0.8000E+01
     -6.745  0.0000E+00  0.8000E+01
     -6.673  0.0000E+00  0.8000E+01
     -6.601  0.0000E+00  0.8000E+01
     -6.528  0.0000E+00  0.8000E+01
     -6.456  0.0000E+00  0.8000E+01
     -6.384  0.0000E+00  0.8000E+01
     -6.312  0.0000E+00  0.8000E+01
     -6.239  0.0000E+00  0.8000E+01
     -6.167  0.0000E+00  0.8000E+01
     -6.095  0.0000E+00  0.8000E+01
     -6.023  0.0000E+00  0.8000E+01
     -5.950  0.0000E+00  0.8000E+01
     -5.878  0.0000E+00  0.8000E+01
     -5.806  0.0000E+00  0.8000E+01
     -5.734  0.0000E+00  0.8000E+01
     -5.662  0.0000E+00  0.8000E+01
     -5.589  0.0000E+00  0.8000E+01
     -5.517  0.0000E+00  0.8000E+01
     -5.445  0.0000E+00  0.8000E+01
     -5.373  0.0000E+00  0.8000E+01
     -5.300  0.0000E+00  0.8000E+01
     -5.228  0.0000E+00  0.8000E+01
     -5.156  0.0000E+00  0.8000E+01
     -5.084  0.0000E+00  0.8000E+01
     -5.011  0.0000E+00  0.8000E+01
     -4.939  0.0000E+00  0.8000E+01
     -4.867  0.0000E+00  0.8000E+01
     -4.795  0.0000E+00  0.8000E+01
     -4.722  0.0000E+00  0.8000E+01
     -4.650  0.0000E+00  0.8000E+01
     -4.578  0.0000E+00  0.8000E+01
     -4.506  0.0000E+00  0.8000E+01
     -4.433  0.0000E+00  0.8000E+01
     -4.361  0.0000E+00  0.8000E+01
     -4.289  0.0000E+00  0.8000E+01
     -4.217  0.0000E+00  0.8000E+01
     -4.144  0.0000E+00  0.8000E+01
     -4.072  0.0000E+00  0.8000E+01
     -4.000  0.0000E+00  0.8000E+01
     -3.928  0.0000E+00  0.8000E+01
     -3.855  0.0000E+00  0.8000E+01
     -3.783  0.0000E+00  0.8000E+01
     -3.711  0.0000E+00  0.8000E+01
     -3.639  0.0000E+00  0.8000E+01
     -3.567  0.0000E+00  0.8000E+01
     -3.494  0.0000E+00  0.8000E+01
     -3.422  0.0000E+00  0.8000E+01
     -3.350  0.0000E+00  0.8000E+01
     -3.278  0.0000E+00  0.8000E+01
     -3.205  0.0000E+00  0.8000E+01
     -3.133  0.0000E+00  0.8000E+01
     -3.061  0.0000E+00  0.8000E+01
     -2.989  0.0000E+00  0.8000E+01
     -2.916  0.0000E+00  0.8000E+01
     -2.844  0.0000E+00  0.8000E+01
     -2.772  0.0000E+00  0.8000E+01
     -2.700  0.0000E+00  0.8000E+01
     -2.627  0.0000E+00  0.8000E+01
     -2.555  0.0000E+00  0.8000E+01
     -2.483  0.0000E+00  0.8000E+01
     -2.411  0.0000E+00  0.8000E+01
     -2.338  0.0000E+00  0.8000E+01
     -2.266  0.0000E+00  0.8000E+01
     -2.194  0.0000E+00  0.8000E+01
     -2.122  0.0000E+00  0.8000E+01
     -2.049  0.0000E+00  0.8000E+01
     -1.977  0.0000E+00  0.8000E+01
     -1.905 -0.6326E-26  0.8000E+01
     -1.833 -0.1745E-23  0.8000E+01
     -1.760 -0.3707E-21  0.8000E+01
     -1.688 -0.6053E-19  0.8000E+01
     -1.616 -0.7588E-17  0.8000E+01
     -1.544 -0.7302E-15  0.8000E+01
     -1.472 -0.5238E-13  0.8000E+01
     -1.399 -0.2952E-11  0.8000E+01
     -1.327 -0.1274E-09  0.8000E+01
     -1.255 -0.4202E-08  0.8000E+01
     -1.183 -0.1058E-06  0.8000E+01
     -1.110 -0.2026E-05  0.8000E+01
     -1.038 -0.2944E-04  0.8000E+01
     -0.966 -0.3231E-03  0.8000E+01
     -0.894 -0.2658E-02  0.8000E+01
     -0.821 -0.1620E-01  0.7999E+01
     -0.749 -0.7170E-01  0.7993E+01
     -0.677 -0.2206E+00  0.7977E+01
     -0.605 -0.4191E+00  0.7947E+01
     -0.532 -0.2350E+00  0.7930E+01
     -0.460  0.1204E+01  0.8017E+01
     -0.388  0.4248E+01  0.8324E+01
     -0.316  0.7417E+01  0.8860E+01
     -0.243  0.8183E+01  0.9451E+01
     -0.171  0.5850E+01  0.9874E+01
     -0.099  0.2445E+01  0.1005E+02
     -0.027  0.2167E+00  0.1007E+02
      0.046 -0.4447E+00  0.1003E+02
      0.118 -0.3921E+00  0.1001E+02
      0.190 -0.3771E+00  0.9978E+01
      0.262 -0.6245E+00  0.9933E+01
      0.334 -0.7978E+00  0.9875E+01
      0.407  0.1897E+00  0.9889E+01
      0.479  0.3842E+01  0.1017E+02
      0.551  0.1054E+02  0.1093E+02
      0.623  0.1792E+02  0.1222E+02
      0.696  0.2151E+02  0.1378E+02
      0.768  0.1850E+02  0.1511E+02
      0.840  0.1084E+02  0.1590E+02
      0.912  0.3546E+01  0.1615E+02
      0.985 -0.2399E+00  0.1614E+02
      1.057 -0.9908E+00  0.1606E+02
      1.129 -0.6024E+00  0.1602E+02
      1.201 -0.2190E+00  0.1600E+02
      1.274 -0.5502E-01  0.1600E+02
      1.346 -0.1002E-01  0.1600E+02
      1.418 -0.1354E-02  0.1600E+02
      1.490 -0.1372E-03  0.1600E+02
      1.563 -0.1051E-04  0.1600E+02
      1.635 -0.6117E-06  0.1600E+02
      1.707 -0.2713E-07  0.1600E+02
      1.779 -0.9195E-09  0.1600E+02
      1.852 -0.2385E-10  0.1600E+02
      1.924 -0.4749E-12  0.1600E+02
      1.996 -0.6147E-14  0.1600E+02
      2.068  0.0000E+00  0.1600E+02
      2.141  0.0000E+00  0.1600E+02
      2.213  0.0000E+00  0.1600E+02
      2.285  0.0000E+00  0.1600E+02
      2.357  0.0000E+00  0.1600E+02
      2.429  0.0000E+00  0.1600E+02
      2.502  0.0000E+00  0.1600E+02
      2.574  0.0000E+00  0.1600E+02
      2.646  0.0000E+00  0.1600E+02
      2.718  0.0000E+00  0.1600E+02
      2.71323062    -18.84227062  301     -8.92967987      1.00000000
    -18.842  0.0000E+00  0.0000E+00
    -18.770  0.0000E+00  0.0000E+00
    -18.699  0.0000E+00  0.0000E+00
    -18.627  0.0000E+00  0.0000E+00
    -18.555  0.0000E+00  0.0000E+00
    -18.483 -0.3798E-27 -0.2729E-28
    -18.411 -0.1155E-24 -0.8328E-26
    -18.339 -0.2715E-22 -0.1959E-23
    -18.267 -0.4915E-20 -0.3551E-21
    -18.196 -0.6855E-18 -0.4961E-19
    -18.124 -0.7360E-16 -0.5338E-17
    -18.052 -0.6081E-14 -0.4423E-15
    -17.980 -0.3741E-12 -0.2732E-13
    -17.908 -0.1822E-10 -0.1337E-11
    -17.836 -0.6797E-09 -0.5018E-10
    -17.764 -0.1942E-07 -0.1446E-08
    -17.693 -0.4242E-06 -0.3192E-07
    -17.621 -0.7062E-05 -0.5393E-06
    -17.549 -0.8929E-04 -0.6955E-05
    -17.477 -0.8526E-03 -0.6822E-04
    -17.405 -0.6095E-02 -0.5062E-03
    -17.333 -0.3215E-01 -0.2816E-02
    -17.262 -0.1217E+00 -0.1156E-01
    -17.190 -0.3111E+00 -0.3391E-01
    -17.118 -0.4340E+00 -0.6510E-01
    -17.046  0.1556E+00 -0.5392E-01
    -16.974  0.2284E+01  0.1102E+00
    -16.902  0.5654E+01  0.5164E+00
    -16.830  0.8119E+01  0.1100E+01
    -16.759  0.7574E+01  0.1644E+01
    -16.687  0.4511E+01  0.1968E+01
    -16.615  0.1392E+01  0.2068E+01
    -16.543 -0.1753E+00  0.2056E+01
    -16.471 -0.4295E+00  0.2025E+01
    -16.399 -0.2403E+00  0.2008E+01
    -16.327 -0.8171E-01  0.2002E+01
    -16.256 -0.1926E-01  0.2000E+01
    -16.184 -0.3297E-02  0.2000E+01
    -16.112 -0.4189E-03  0.2000E+01
    -16.040 -0.3996E-04  0.2000E+01
    -15.968 -0.2886E-05  0.2000E+01
    -15.896 -0.1585E-06  0.2000E+01
    -15.825 -0.6640E-08  0.2000E+01
    -15.753 -0.2128E-09  0.2000E+01
    -15.681 -0.5230E-11  0.2000E+01
    -15.609 -0.9889E-13  0.2000E+01
    -15.537  0.0000E+00  0.2000E+01
    -15.465  0.0000E+00  0.2000E+01
    -15.393  0.0000E+00  0.2000E+01
    -15.322  0.0000E+00  0.2000E+01
    -15.250  0.0000E+00  0.2000E+01
    -15.178  0.0000E+00  0.2000E+01
    -15.106  0.0000E+00  0.2000E+01
    -15.034  0.0000E+00  0.2000E+01
    -14.962  0.0000E+00  0.2000E+01
    -14.890  0.0000E+00  0.2000E+01
    -14.819  0.0000E+00  0.2000E+01
    -14.747  0.0000E+00  0.2000E+01
    -14.675  0.0000E+00  0.2000E+01
    -14.603  0.0000E+00  0.2000E+01
    -14.531  0.0000E+00  0.2000E+01
    -14.459  0.0000E+00  0.2000E+01
    -14.387  0.0000E+00  0.2000E+01
    -14.316  0.0000E+00  0.2000E+01
    -14.244  0.0000E+00  0.2000E+01
    -14.172  0.0000E+00  0.2000E+01
    -14.100  0.0000E+00  0.2000E+01
    -14.028  0.0000E+00  0.2000E+01
    -13.956  0.0000E+00  0.2000E+01
    -13.885  0.0000E+00  0.2000E+01
    -13.813  0.0000E+00  0.2000E+01
    -13.741  0.0000E+00  0.2000E+01
    -13.669  0.0000E+00  0.2000E+01
    -13.597  0.0000E+00  0.2000E+01
    -13.525  0.0000E+00  0.2000E+01
    -13.453  0.0000E+00  0.2000E+01
    -13.382  0.0000E+00  0.2000E+01
    -13.310  0.0000E+00  0.2000E+01
    -13.238  0.0000E+00  0.2000E+01
    -13.166  0.0000E+00  0.2000E+01
    -13.094  0.0000E+00  0.2000E+01
    -13.022  0.0000E+00  0.2000E+01
    -12.950  0.0000E+00  0.2000E+01
    -12.879  0.0000E+00  0.2000E+01
    -12.807  0.0000E+00  0.2000E+01
    -12.735  0.0000E+00  0.2000E+01
    -12.663  0.0000E+00  0.2000E+01
    -12.591  0.0000E+00  0.2000E+01
    -12.519  0.0000E+00  0.2000E+01
    -12.447  0.0000E+00  0.2000E+01
    -12.376  0.0000E+00  0.2000E+01
    -12.304  0.0000E+00  0.2000E+01
    -12.232  0.0000E+00  0.2000E+01
    -12.160  0.0000E+00  0.2000E+01
    -12.088  0.0000E+00  0.2000E+01
    -12.016  0.0000E+00  0.2000E+01
    -11.945  0.0000E+00  0.2000E+01
    -11.873  0.0000E+00  0.2000E+01
    -11.801  0.0000E+00  0.2000E+01
    -11.729  0.0000E+00  0.2000E+01
    -11.657  0.0000E+00  0.2000E+01
    -11.585  0.0000E+00  0.2000E+01
    -11.513  0.0000E+00  0.2000E+01
    -11.442  0.0000E+00  0.2000E+01
    -11.370  0.0000E+00  0.2000E+01
    -11.298  0.0000E+00  0.2000E+01
    -11.226  0.0000E+00  0.2000E+01
    -11.154 -0.5539E-27  0.2000E+01
    -11.082 -0.1656E-24  0.2000E+01
    -11.010 -0.3827E-22  0.2000E+01
    -10.939 -0.6814E-20  0.2000E+01
    -10.867 -0.9344E-18  0.2000E+01
    -10.795 -0.9864E-16  0.2000E+01
    -10.723 -0.8014E-14  0.2000E+01
    -10.651 -0.4853E-12  0.2000E+01
    -10.579 -0.2320E-10  0.2000E+01
    -10.507 -0.8508E-09  0.2000E+01
    -10.436 -0.2389E-07  0.2000E+01
    -10.364 -0.5128E-06  0.2000E+01
    -10.292 -0.8389E-05  0.2000E+01
    -10.220 -0.1042E-03  0.2000E+01
    -10.148 -0.9767E-03  0.2000E+01
    -10.076 -0.6850E-02  0.1999E+01
    -10.005 -0.3540E-01  0.1997E+01
     -9.933 -0.1310E+00  0.1987E+01
     -9.861 -0.3252E+00  0.1964E+01
     -9.789 -0.4288E+00  0.1933E+01
     -9.717  0.2300E+00  0.1950E+01
     -9.645  0.2427E+01  0.2124E+01
     -9.573  0.5681E+01  0.2532E+01
     -9.502  0.7716E+01  0.3087E+01
     -9.430  0.6764E+01  0.3573E+01
     -9.358  0.4391E+01  0.3888E+01
     -9.286  0.4345E+01  0.4201E+01
     -9.214  0.8170E+01  0.4788E+01
     -9.142  0.1306E+02  0.5726E+01
     -9.070  0.1463E+02  0.6777E+01
     -8.999  0.1136E+02  0.7594E+01
     -8.927  0.5791E+01  0.8010E+01
     -8.855  0.1410E+01  0.8111E+01
     -8.783 -0.4498E+00  0.8079E+01
     -8.711 -0.6266E+00  0.8034E+01
     -8.639 -0.3273E+00  0.8010E+01
     -8.567 -0.1096E+00  0.8002E+01
     -8.496 -0.2596E-01  0.8000E+01
     -8.424 -0.4517E-02  0.8000E+01
     -8.352 -0.5872E-03  0.8000E+01
     -8.280 -0.5760E-04  0.8000E+01
     -8.208 -0.4288E-05  0.8000E+01
     -8.136 -0.2432E-06  0.8000E+01
     -8.065 -0.1054E-07  0.8000E+01
     -7.993 -0.3497E-09  0.8000E+01
     -7.921 -0.8903E-11  0.8000E+01
     -7.849 -0.1731E-12  0.8000E+01
     -7.777  0.0000E+00  0.8000E+01
     -7.705  0.0000E+00  0.8000E+01
     -7.633  0.0000E+00  0.8000E+01
     -7.562  0.0000E+00  0.8000E+01
     -7.490  0.0000E+00  0.8000E+01
     -7.418  0.0000E+00  0.8000E+01
     -7.346  0.0000E+00  0.8000E+01
     -7.274  0.0000E+00  0.8000E+01
     -7.202  0.0000E+00  0.8000E+01
     -7.130  0.0000E+00  0.8000E+01
     -7.059  0.0000E+00  0.8000E+01
     -6.987  0.0000E+00  0.8000E+01
     -6.915  0.0000E+00  0.8000E+01
     -6.843  0.0000E+00  0.8000E+01
     -6.771  0.0000E+00  0.8000E+01
     -6.699  0.0000E+00  0.8000E+01
     -6.627  0.0000E+00  0.8000E+01
     -6.556  0.0000E+00  0.8000E+01
     -6.484  0.0000E+00  0.8000E+01
     -6.412  0.0000E+00  0.8000E+01
     -6.340  0.0000E+00  0.8000E+01
     -6.268  0.0000E+00  0.8000E+01
     -6.196  0.0000E+00  0.8000E+01
     -6.125  0.0000E+00  0.8000E+01
     -6.053  0.0000E+00  0.8000E+01
     -5.981  0.0000E+00  0.8000E+01
     -5.909  0.0000E+00  0.8000E+01
     -5.837  0.0000E+00  0.8000E+01
     -5.765  0.0000E+00  0.8000E+01
     -5.693  0.0000E+00  0.8000E+01
     -5.622  0.0000E+00  0.8000E+01
     -5.550  0.0000E+00  0.8000E+01
     -5.478  0.0000E+00  0.8000E+01
     -5.406  0.0000E+00  0.8000E+01
     -5.334  0.0000E+00  0.8000E+01
     -5.262  0.0000E+00  0.8000E+01
     -5.190  0.0000E+00  0.8000E+01
     -5.119  0.0000E+00  0.8000E+01
     -5.047  0.0000E+00  0.8000E+01
     -4.975  0.0000E+00  0.8000E+01
     -4.903  0.0000E+00  0.8000E+01
     -4.831  0.0000E+00  0.8000E+01
     -4.759  0.0000E+00  0.8000E+01
     -4.687  0.0000E+00  0.8000E+01
     -4.616  0.0000E+00  0.8000E+01
     -4.544  0.0000E+00  0.8000E+01
     -4.472  0.0000E+00  0.8000E+01
     -4.400  0.0000E+00  0.8000E+01
     -4.328  0.0000E+00  0.8000E+01
     -4.256  0.0000E+00  0.8000E+01
     -4.185  0.0000E+00  0.8000E+01
     -4.113  0.0000E+00  0.8000E+01
     -4.041  0.0000E+00  0.8000E+01
     -3.969  0.0000E+00  0.8000E+01
     -3.897  0.0000E+00  0.8000E+01
     -3.825  0.0000E+00  0.8000E+01
     -3.753  0.0000E+00  0.8000E+01
     -3.682  0.0000E+00  0.8000E+01
     -3.610  0.0000E+00  0.8000E+01
     -3.538  0.0000E+00  0.8000E+01
     -3.466  0.0000E+00  0.8000E+01
     -3.394  0.0000E+00  0.8000E+01
     -3.322  0.0000E+00  0.8000E+01
     -3.250  0.0000E+00  0.8000E+01
     -3.179  0.0000E+00  0.8000E+01
     -3.107  0.0000E+00  0.8000E+01