    5    5    1    1
  0.1981195E+03  0.9756835E-09  0.9932853E-09  0.1022350E-08  0.2000000E-14
   50.000000000000000     
  CAR 
 unknown system                          
      8      4      8

  0.2500000E+00  0.2500000E+00  0.2500000E+00  0.2500000E+00
    1      -17.010175   1.000000
    2       -9.475138   1.001505
    3       -9.382790   1.008558
    4       -9.146905   0.989869
    5       -0.299466   0.000000
    6        0.570593   0.000000
    7        0.697545   0.000000
    8        0.722584   0.000000

 -0.2500000E+00  0.2500000E+00  0.2500000E+00  0.2500000E+00
    1      -17.010122   1.000000
    2       -9.475066   1.001507
    3       -9.382721   1.008567
    4       -9.146964   0.989946
    5       -0.296176   0.000000
    6        0.559833   0.000000
    7        0.681448   0.000000
    8        0.722485   0.000000

  0.2500000E+00 -0.2500000E+00  0.2500000E+00  0.2500000E+00
    1      -17.010164   1.000000
    2       -9.475073   1.001507
    3       -9.382876   1.008546
    4       -9.146893   0.989855
    5       -0.294104   0.000000
    6        0.559319   0.000000
    7        0.670418   0.000000
    8        0.719853   0.000000

 -0.2500000E+00 -0.2500000E+00  0.2500000E+00  0.2500000E+00
    1      -17.010170   1.000000
    2       -9.475187   1.001503
    3       -9.382745   1.008564
    4       -9.147063   0.990072
    5       -0.296691   0.000000
    6        0.568492   0.000000
    7        0.682329   0.000000
    8        0.715717   0.000000
