 vasp.5.4.4.18Apr17-6-g9f103f2a35 (build Jul 12 2018 13:43:46) complex           
 executed on             LinuxGNU date 2019.06.22  02:17:32
 running on    1 total cores
 distrk:  each k-point on    1 cores,    1 groups
 distr:  one band on NCORES_PER_BAND=   1 cores,    1 groups


--------------------------------------------------------------------------------------------------------


 INCAR:
 POTCAR:    PAW_PBE H 15Jun2001                   
 POTCAR:    PAW_PBE C 08Apr2002                   
 POTCAR:    PAW_PBE H 15Jun2001                   
   VRHFIN =H: ultrasoft test                                                    
   LEXCH  = PE                                                                  
   EATOM  =    12.4884 eV,    0.9179 Ry                                         
                                                                                
   TITEL  = PAW_PBE H 15Jun2001                                                 
   LULTRA =        F    use ultrasoft PP ?                                      
   IUNSCR =        0    unscreen: 0-lin 1-nonlin 2-no                           
   RPACOR =    0.000    partial core radius                                     
   POMASS =    1.000; ZVAL   =    1.000    mass and valenz                      
   RCORE  =    1.100    outmost cutoff radius                                   
   RWIGS  =    0.700; RWIGS  =    0.370    wigner-seitz radius (au A)           
   ENMAX  =  250.000; ENMIN  =  200.000 eV                                      
   RCLOC  =    0.701    cutoff for local pot                                    
   LCOR   =        T    correct aug charges                                     
   LPAW   =        T    paw PP                                                  
   EAUG   =  400.000                                                            
   RMAX   =    1.123    core radius for proj-oper                               
   RAUG   =    1.200    factor for augmentation sphere                          
   RDEP   =    1.112    radius for radial grids                                 
   RDEPT  =    0.926    core radius for aug-charge                              
                                                                                
   Atomic configuration                                                         
    2 entries                                                                   
     n  l   j            E        occ.                                          
     1  0  0.50        -6.4927   1.0000                                         
     2  1  0.50        -3.4015   0.0000                                         
   Description                                                                  
     l       E           TYP  RCUT    TYP  RCUT                                 
     0     -6.4927494     23  1.100                                             
     0      6.8029130     23  1.100                                             
     1     -4.0817478     23  1.100                                             
  local pseudopotential read in
  atomic valenz-charges read in
  non local Contribution for L=           0  read in
    real space projection operators read in
  non local Contribution for L=           0  read in
    real space projection operators read in
  non local Contribution for L=           1  read in
    real space projection operators read in
    PAW grid and wavefunctions read in

   number of l-projection  operators is LMAX  =           3
   number of lm-projection operators is LMMAX =           5

 POTCAR:    PAW_PBE C 08Apr2002                   
   VRHFIN =C: s2p2                                                              
   LEXCH  = PE                                                                  
   EATOM  =   147.1560 eV,   10.8157 Ry                                         
                                                                                
   TITEL  = PAW_PBE C 08Apr2002                                                 
   LULTRA =        F    use ultrasoft PP ?                                      
   IUNSCR =        1    unscreen: 0-lin 1-nonlin 2-no                           
   RPACOR =    1.200    partial core radius                                     
   POMASS =   12.011; ZVAL   =    4.000    mass and valenz                      
   RCORE  =    1.500    outmost cutoff radius                                   
   RWIGS  =    1.630; RWIGS  =    0.863    wigner-seitz radius (au A)           
   ENMAX  =  400.000; ENMIN  =  300.000 eV                                      
   ICORE  =        2    local potential                                         
   LCOR   =        T    correct aug charges                                     
   LPAW   =        T    paw PP                                                  
   EAUG   =  644.873                                                            
   DEXC   =    0.000                                                            
   RMAX   =    1.529    core radius for proj-oper                               
   RAUG   =    1.300    factor for augmentation sphere                          
   RDEP   =    1.501    radius for radial grids                                 
   RDEPT  =    1.300    core radius for aug-charge                              
                                                                                
   Atomic configuration                                                         
    4 entries                                                                   
     n  l   j            E        occ.                                          
     1  0  0.50      -273.3789   2.0000                                         
     2  0  0.50       -13.7508   2.0000                                         
     2  1  0.50        -5.2854   2.0000                                         
     3  2  1.50        -5.4423   0.0000                                         
   Description                                                                  
     l       E           TYP  RCUT    TYP  RCUT                                 
     0    -13.7508458     23  1.200                                             
     0     -8.2022199     23  1.200                                             
     1     -5.2854383     23  1.500                                             
     1     34.0145650     23  1.500                                             
     2     -5.4423304      7  1.500                                             
  local pseudopotential read in
  partial core-charges read in
  partial kinetic energy density read in
  atomic valenz-charges read in
  non local Contribution for L=           0  read in
    real space projection operators read in
  non local Contribution for L=           0  read in
    real space projection operators read in
  non local Contribution for L=           1  read in
    real space projection operators read in
  non local Contribution for L=           1  read in
    real space projection operators read in
    PAW grid and wavefunctions read in

   number of l-projection  operators is LMAX  =           4
   number of lm-projection operators is LMMAX =           8


 ----------------------------------------------------------------------------- 
|                                                                             |
|  ADVICE TO THIS USER RUNNING 'VASP/VAMP'   (HEAR YOUR MASTER'S VOICE ...):  |
|                                                                             |
|      You have a (more or less) 'small supercell' and for smaller cells      |
|      it is recommended  to use the reciprocal-space projection scheme!      |
|      The real space optimization is not  efficient for small cells and it   |
|      is also less accurate ...                                              |
|      Therefore set LREAL=.FALSE. in the  INCAR file                         |
|                                                                             |
 ----------------------------------------------------------------------------- 


 ----------------------------------------------------------------------------- 
|                                                                             |
|           W    W    AA    RRRRR   N    N  II  N    N   GGGG   !!!           |
|           W    W   A  A   R    R  NN   N  II  NN   N  G    G  !!!           |
|           W    W  A    A  R    R  N N  N  II  N N  N  G       !!!           |
|           W WW W  AAAAAA  RRRRR   N  N N  II  N  N N  G  GGG   !            |
|           WW  WW  A    A  R   R   N   NN  II  N   NN  G    G                |
|           W    W  A    A  R    R  N    N  II  N    N   GGGG   !!!           |
|                                                                             |
|     The real-space-projection scheme for the treatment of the nonlocal      |
|     pseudopotentials has been switched on -- but on file POTCAR I have      |
|     not found any entries signalling me that you have ever performed a      |
|     real-space optimization of all nonlocal projectors! BE WARNED that      |
|     a calculation using the real-space-projection scheme together with      |
|     nonlocal projectors which were not real-space-optimized (according      |
|     to the plane-wave-cutoff used in this calculation) might give more      |
|     or less inaccurate results                                              |
|     I hope you know what you are doing                                      |
|                                                                             |
 ----------------------------------------------------------------------------- 

  PAW_PBE H 15Jun2001                   :
 energy of atom  1       EATOM=  -12.4884
 kinetic energy error for atom=    0.0098 (will be added to EATOM!!)
  PAW_PBE C 08Apr2002                   :
 energy of atom  2       EATOM= -147.1560
 kinetic energy error for atom=    0.0288 (will be added to EATOM!!)


 POSCAR:  H  C                                   
  positions in cartesian coordinates
  No initial velocities read in
 exchange correlation table for  LEXCH =        8
   RHO(1)=    0.500       N(1)  =     2000
   RHO(2)=  100.500       N(2)  =     4000



--------------------------------------------------------------------------------------------------------


 ion  position               nearest neighbor table
   1  0.538  0.407  0.360-   5 1.11
   2  0.394  0.480  0.438-   5 1.07
   3  0.552  0.566  0.442-   5 1.09
   4  0.529  0.417  0.539-   5 1.10
   5  0.503  0.467  0.445-   2 1.07   3 1.09   4 1.10   1 1.11


IMPORTANT INFORMATION: All symmetrisations will be switched off!
NOSYMM: (Re-)initialisation of all symmetry stuff for point group C_1.




Automatic generation of k-mesh.
 generate k-points for:    2    2    2
Space group operators:
 irot       det(A)        alpha          n_x          n_y          n_z        tau_x        tau_y        tau_z
    1     1.000000     0.000001     1.000000     0.000000     0.000000     0.000000     0.000000     0.000000
 
 Subroutine IBZKPT returns following result:
 ===========================================
 
 Found      4 irreducible k-points:
 
 Following reciprocal coordinates:
            Coordinates               Weight
  0.250000  0.250000  0.250000      2.000000
 -0.250000  0.250000  0.250000      2.000000
  0.250000 -0.250000  0.250000      2.000000
 -0.250000 -0.250000  0.250000      2.000000
 
 Following cartesian coordinates:
            Coordinates               Weight
  0.025623  0.024890  0.024024      2.000000
 -0.025623  0.025451  0.024059      2.000000
  0.025623 -0.025451  0.024854      2.000000
 -0.025623 -0.024890  0.024890      2.000000
 


--------------------------------------------------------------------------------------------------------




 Dimension of arrays:
   k-points           NKPTS =      4   k-points in BZ     NKDIM =      4   number of bands    NBANDS=      8
   number of dos      NEDOS =    301   number of ions     NIONS =      5
   non local maximal  LDIM  =      4   non local SUM 2l+1 LMDIM =      8
   total plane-waves  NPLWV = 313600
   max r-space proj   IRMAX =    752   max aug-charges    IRDMAX=   3935
   dimension x,y,z NGX =    64 NGY =   70 NGZ =   70
   dimension x,y,z NGXF=   128 NGYF=  140 NGZF=  140
   support grid    NGXF=   128 NGYF=  140 NGZF=  140
   ions per type =               4   1
   NGX,Y,Z   is equivalent  to a cutoff of  10.90, 11.72, 11.38 a.u.
   NGXF,Y,Z  is equivalent  to a cutoff of  21.81, 23.43, 22.77 a.u.

 SYSTEM =  unknown system                          
 POSCAR =   H  C                                   

 Startparameter for this run:
   NWRITE =      2    write-flag & timer
   PREC   = a         normal or accurate (medium, high low for compatibility)
   ISTART =      0    job   : 0-new  1-cont  2-samecut
   ICHARG =      2    charge: 1-file 2-atom 10-const
   ISPIN  =      1    spin polarized calculation?
   LNONCOLLINEAR =      F non collinear calculations
   LSORBIT =      F    spin-orbit coupling
   INIWAV =      1    electr: 0-lowe 1-rand  2-diag
   LASPH  =      F    aspherical Exc in radial PAW
   METAGGA=      F    non-selfconsistent MetaGGA calc.

 Electronic Relaxation 1
   ENCUT  =  400.0 eV  29.40 Ry    5.42 a.u.  15.91 16.20 16.67*2*pi/ulx,y,z
   ENINI  =  400.0     initial cutoff
   ENAUG  =  644.9 eV  augmentation charge cutoff
   NELM   =     60;   NELMIN=  2; NELMDL= -5     # of ELM steps 
   EDIFF  = 0.1E-05   stopping-criterion for ELM
   LREAL  =      T    real-space projection
   NLSPLINE    = F    spline interpolate recip. space projectors
   LCOMPAT=      F    compatible to vasp.4.4
   GGA_COMPAT  = T    GGA compatible to vasp.4.4-vasp.4.6
   LMAXPAW     = -100 max onsite density
   LMAXMIX     =    2 max onsite mixed and CHGCAR
   VOSKOWN=      0    Vosko Wilk Nusair interpolation
   ROPT   =    0.00000   0.00000
 Ionic relaxation
   EDIFFG = 0.1E-04   stopping-criterion for IOM
   NSW    =     10    number of steps for IOM
   NBLOCK =      1;   KBLOCK =      1    inner block; outer block 
   IBRION =      0    ionic relax: 0-MD 1-quasi-New 2-CG
   NFREE  =      0    steps in history (QN), initial steepest desc. (CG)
   ISIF   =      2    stress and relaxation
   IWAVPR =     12    prediction:  0-non 1-charg 2-wave 3-comb
   ISYM   =      0    0-nonsym 1-usesym 2-fastsym
   LCORR  =      T    Harris-Foulkes like correction to forces

   POTIM  = 2.0000    time-step for ionic-motion
   TEIN   =   50.0    initial temperature
   TEBEG  =   50.0;   TEEND  =  50.0 temperature during run
   SMASS  =   0.00    Nose mass-parameter (am)
   estimated Nose-frequenzy (Omega)   =  0.79E+14 period in steps = 40.00 mass=   0.123E-29a.u.
   SCALEE = 1.0000    scale energy and forces
   NPACO  =    256;   APACO  = 16.0  distance and # of slots for P.C.
   PSTRESS=    0.0 pullay stress

  Mass of Ions in am
   POMASS =   1.00 12.01
  Ionic Valenz
   ZVAL   =   1.00  4.00
  Atomic Wigner-Seitz radii
   RWIGS  =  -1.00 -1.00
  virtual crystal weights 
   VCA    =   1.00  1.00
   NELECT =       8.0000    total number of electrons
   NUPDOWN=      -1.0000    fix difference up-down

 DOS related values:
   EMIN   =  10.00;   EMAX   =-10.00  energy-range for DOS
   EFERMI =   0.00
   ISMEAR =     1;   SIGMA  =   0.20  broadening in eV -4-tet -1-fermi 0-gaus

 Electronic relaxation 2 (details)
   IALGO  =     68    algorithm
   LDIAG  =      T    sub-space diagonalisation (order eigenvalues)
   LSUBROT=      F    optimize rotation matrix (better conditioning)
   TURBO    =      0    0=normal 1=particle mesh
   IRESTART =      0    0=no restart 2=restart with 2 vectors
   NREBOOT  =      0    no. of reboots
   NMIN     =      0    reboot dimension
   EREF     =   0.00    reference energy to select bands
   IMIX   =      4    mixing-type and parameters
     AMIX     =   0.40;   BMIX     =  1.00
     AMIX_MAG =   1.60;   BMIX_MAG =  1.00
     AMIN     =   0.10
     WC   =   100.;   INIMIX=   1;  MIXPRE=   1;  MAXMIX=  50

 Intra band minimization:
   WEIMIN = 0.0010     energy-eigenvalue tresh-hold
   EBREAK =  0.31E-07  absolut break condition
   DEPER  =   0.30     relativ break condition  

   TIME   =   0.40     timestep for ELM

  volume/ion in A,a.u.               =     198.12      1336.98
  Fermi-wavevector in a.u.,A,eV,Ry     =   0.328452  0.620685  1.467810  0.107881
  Thomas-Fermi vector in A             =   1.222053

 Write flags
   LWAVE        =      F    write WAVECAR
   LDOWNSAMPLE  =      F    k-point downsampling of WAVECAR
   LCHARG       =      F    write CHGCAR
   LVTOT        =      F    write LOCPOT, total local potential
   LVHAR        =      F    write LOCPOT, Hartree potential only
   LELF         =      F    write electronic localiz. function (ELF)
   LORBIT       =      0    0 simple, 1 ext, 2 COOP (PROOUT), +10 PAW based schemes


 Dipole corrections
   LMONO  =      F    monopole corrections only (constant potential shift)
   LDIPOL =      F    correct potential (dipole corrections)
   IDIPOL =      0    1-x, 2-y, 3-z, 4-all directions 
   EPSILON=  1.0000000 bulk dielectric constant

 Exchange correlation treatment:
   GGA     =    --    GGA type
   LEXCH   =     8    internal setting for exchange type
   VOSKOWN=      0    Vosko Wilk Nusair interpolation
   LHFCALC =     F    Hartree Fock is set to
   LHFONE  =     F    Hartree Fock one center treatment
   AEXX    =    0.0000 exact exchange contribution

 Linear response parameters
   LEPSILON=     F    determine dielectric tensor
   LRPA    =     F    only Hartree local field effects (RPA)
   LNABLA  =     F    use nabla operator in PAW spheres
   LVEL    =     F    velocity operator in full k-point grid
   LINTERFAST=   F  fast interpolation
   KINTER  =     0    interpolate to denser k-point grid
   CSHIFT  =0.1000    complex shift for real part using Kramers Kronig
   OMEGAMAX=  -1.0    maximum frequency
   DEG_THRESHOLD= 0.2000000E-02 threshold for treating states as degnerate
   RTIME   =   -0.100 relaxation time in fs
  (WPLASMAI=    0.000 imaginary part of plasma frequency in eV, 0.658/RTIME)
   DFIELD  = 0.0000000 0.0000000 0.0000000 field for delta impulse in time

 Orbital magnetization related:
   ORBITALMAG=     F  switch on orbital magnetization
   LCHIMAG   =     F  perturbation theory with respect to B field
   DQ        =  0.001000  dq finite difference perturbation B field
   LLRAUG    =     F  two centre corrections for induced B field



--------------------------------------------------------------------------------------------------------


 molecular dynamics for ions
   using nose mass (canonical ensemble)
 charge density and potential will be updated during run
 non-spin polarized calculation
 RMM-DIIS sequential band-by-band and
  variant of blocked Davidson during initial phase
 perform sub-space diagonalisation
    before iterative eigenvector-optimisation
 modified Broyden-mixing scheme, WC =      100.0
 initial mixing is a Kerker type mixing with AMIX =  0.4000 and BMIX =      1.0000
 Hartree-type preconditioning will be used
 using additional bands            4
 real space projection scheme for non local part
 use partial core corrections
 calculate Harris-corrections to forces   (improved forces if not selfconsistent)
 use gradient corrections 
 use of overlap-Matrix (Vanderbilt PP)
 Methfessel and Paxton  Order N= 1 SIGMA  =   0.20


--------------------------------------------------------------------------------------------------------


  energy-cutoff  :      400.00
  volume of cell :      990.60
      direct lattice vectors                 reciprocal lattice vectors
     9.756834819  0.000000000  0.000000000     0.102492255 -0.001123218 -0.000070716
     0.108848087  9.932256654  0.000000000     0.000000000  0.100682054 -0.001660447
     0.008900393  0.168582779 10.222105236     0.000000000  0.000000000  0.097827207

  length of vectors
     9.756834819  9.932853071 10.223499147     0.102498434  0.100695745  0.097827207



 k-points in units of 2pi/SCALE and weight: read from INCAR                         
   0.02562306  0.02488971  0.02402401       0.250
  -0.02562306  0.02545132  0.02405937       0.250
   0.02562306 -0.02545132  0.02485423       0.250
  -0.02562306 -0.02488971  0.02488959       0.250

 k-points in reciprocal lattice and weights: read from INCAR                         
   0.25000000  0.25000000  0.25000000       0.250
  -0.25000000  0.25000000  0.25000000       0.250
   0.25000000 -0.25000000  0.25000000       0.250
  -0.25000000 -0.25000000  0.25000000       0.250

 position of ions in fractional coordinates (direct lattice) 
   0.53821102  0.40703518  0.36046770
   0.39439691  0.47970729  0.43780932
   0.55191309  0.56577557  0.44242711
   0.52872793  0.41660227  0.53896842
   0.50331176  0.46726955  0.44536026

 position of ions in cartesian coordinates  (Angst):
   5.29874931  4.10354654  3.68473875
   3.90417736  4.83838307  4.47533291
   5.45044617  5.69401379  4.52253649
   5.20885448  4.22866150  5.50939189
   4.96555494  4.71612113  4.55251945



--------------------------------------------------------------------------------------------------------


 k-point  1 :   0.2500 0.2500 0.2500  plane waves:   17987
 k-point  2 :  -0.2500 0.2500 0.2500  plane waves:   17974
 k-point  3 :   0.2500-0.2500 0.2500  plane waves:   17998
 k-point  4 :  -0.2500-0.2500 0.2500  plane waves:   18010

 maximum and minimum number of plane-waves per node :     18010    17974

 maximum number of plane-waves:     18010
 maximum index in each direction: 
   IXMAX=   16   IYMAX=   16   IZMAX=   16
   IXMIN=  -16   IYMIN=  -16   IZMIN=  -16


 serial   3D FFT for wavefunctions
 parallel 3D FFT for charge:
    minimum data exchange during FFTs selected (reduces bandwidth)


 total amount of memory used by VASP MPI-rank0   280530. kBytes
=======================================================================

   base      :      30000. kBytes
   nonlr-proj:        154. kBytes
   fftplans  :      86584. kBytes
   grid      :     154542. kBytes
   one-center:         15. kBytes
   wavefun   :       9235. kBytes

     INWAV:  cpu time    0.0000: real time    0.0000
 Broyden mixing: mesh for mixing (old mesh)
   NGX = 31   NGY = 33   NGZ = 33
  (NGX  =128   NGY  =140   NGZ  =140)
  gives a total of  33759 points

 initial charge density was supplied:
 charge density of overlapping atoms calculated
 number of electron       8.0000000 magnetization 
 keeping initial charge density in first step


--------------------------------------------------------------------------------------------------------


 Maximum index for non-local projection operator          680
 Maximum index for augmentation-charges         3631 (set IRDMAX)


--------------------------------------------------------------------------------------------------------


 First call to EWALD:  gamma=   0.178
 Maximum number of real-space cells 3x 3x 3
 Maximum number of reciprocal cells 3x 3x 3

    FEWALD:  cpu time    0.0007: real time    0.0007


--------------------------------------- Iteration      1(   1)  ---------------------------------------


    POTLOK:  cpu time    1.6199: real time    1.6238
    SETDIJ:  cpu time    0.0065: real time    0.0065
     EDDAV:  cpu time    2.4356: real time    2.4414
       DOS:  cpu time    0.0002: real time    0.0002
    --------------------------------------------
      LOOP:  cpu time    4.0623: real time    4.0720

 eigenvalue-minimisations  :    88
 total energy-change (2. order) : 0.2335949E+02  (-0.1880674E+03)
 number of electron       8.0000000 magnetization 
 augmentation part        8.0000000 magnetization 

 Free energy of the ion-electron system (eV)
  ---------------------------------------------------
  alpha Z        PSCENC =         0.24455017
  Ewald energy   TEWEN  =       129.01230389
  -Hartree energ DENC   =      -243.97209356
  -exchange      EXHF   =         0.00000000
  -V(xc)+E(xc)   XCENC  =        22.02444761
  PAW double counting   =       117.05815612     -117.66307307
  entropy T*S    EENTRO =        -0.02845316
  eigenvalues    EBANDS =       -80.35810120
  atomic energy  EATOM  =       197.04175453
  Solvation  Ediel_sol  =         0.00000000
  ---------------------------------------------------
  free energy    TOTEN  =        23.35949134 eV

  energy without entropy =       23.38794450  energy(sigma->0) =       23.36897573


--------------------------------------------------------------------------------------------------------




--------------------------------------- Iteration      1(   2)  ---------------------------------------


     EDDAV:  cpu time    2.3745: real time    2.3803
       DOS:  cpu time    0.0002: real time    0.0002
    --------------------------------------------
      LOOP:  cpu time    2.3747: real time    2.3805

 eigenvalue-minimisations  :    80
 total energy-change (2. order) :-0.4480165E+02  (-0.4200969E+02)
 number of electron       8.0000000 magnetization 
 augmentation part        8.0000000 magnetization 

 Free energy of the ion-electron system (eV)
  ---------------------------------------------------
  alpha Z        PSCENC =         0.24455017
  Ewald energy   TEWEN  =       129.01230389
  -Hartree energ DENC   =      -243.97209356
  -exchange      EXHF   =         0.00000000
  -V(xc)+E(xc)   XCENC  =        22.02444761
  PAW double counting   =       117.05815612     -117.66307307
  entropy T*S    EENTRO =         0.00289895
  eigenvalues    EBANDS =      -125.19110144
  atomic energy  EATOM  =       197.04175453
  Solvation  Ediel_sol  =         0.00000000
  ---------------------------------------------------
  free energy    TOTEN  =       -21.44215679 eV

  energy without entropy =      -21.44505574  energy(sigma->0) =      -21.44312310


--------------------------------------------------------------------------------------------------------




--------------------------------------- Iteration      1(   3)  ---------------------------------------


     EDDAV:  cpu time    2.0191: real time    2.0239
       DOS:  cpu time    0.0002: real time    0.0002
    --------------------------------------------
      LOOP:  cpu time    2.0193: real time    2.0241

 eigenvalue-minimisations  :    64
 total energy-change (2. order) :-0.5892744E+01  (-0.5902332E+01)
 number of electron       8.0000000 magnetization 
 augmentation part        8.0000000 magnetization 

 Free energy of the ion-electron system (eV)
  ---------------------------------------------------
  alpha Z        PSCENC =         0.24455017
  Ewald energy   TEWEN  =       129.01230389
  -Hartree energ DENC   =      -243.97209356
  -exchange      EXHF   =         0.00000000
  -V(xc)+E(xc)   XCENC  =        22.02444761
  PAW double counting   =       117.05815612     -117.66307307
  entropy T*S    EENTRO =         0.03152705
  eigenvalues    EBANDS =      -131.11247402
  atomic energy  EATOM  =       197.04175453
  Solvation  Ediel_sol  =         0.00000000
  ---------------------------------------------------
  free energy    TOTEN  =       -27.33490127 eV

  energy without entropy =      -27.36642832  energy(sigma->0) =      -27.34541028


--------------------------------------------------------------------------------------------------------




--------------------------------------- Iteration      1(   4)  ---------------------------------------


     EDDAV:  cpu time    3.2356: real time    3.2433
       DOS:  cpu time    0.0002: real time    0.0002
    --------------------------------------------
      LOOP:  cpu time    3.2358: real time    3.2435

 eigenvalue-minimisations  :   112
 total energy-change (2. order) :-0.2661568E+00  (-0.2613559E+00)
 number of electron       8.0000000 magnetization 
 augmentation part        8.0000000 magnetization 

 Free energy of the ion-electron system (eV)
  ---------------------------------------------------
  alpha Z        PSCENC =         0.24455017
  Ewald energy   TEWEN  =       129.01230389
  -Hartree energ DENC   =      -243.97209356
  -exchange      EXHF   =         0.00000000
  -V(xc)+E(xc)   XCENC  =        22.02444761
  PAW double counting   =       117.05815612     -117.66307307
  entropy T*S    EENTRO =         0.02835683
  eigenvalues    EBANDS =      -131.37546062
  atomic energy  EATOM  =       197.04175453
  Solvation  Ediel_sol  =         0.00000000
  ---------------------------------------------------
  free energy    TOTEN  =       -27.60105809 eV

  energy without entropy =      -27.62941492  energy(sigma->0) =      -27.61051036


--------------------------------------------------------------------------------------------------------




--------------------------------------- Iteration      1(   5)  ---------------------------------------


     EDDAV:  cpu time    2.8223: real time    2.8290
       DOS:  cpu time    0.0002: real time    0.0002
    CHARGE:  cpu time    0.1961: real time    0.1966
    MIXING:  cpu time    0.0395: real time    0.0396
    --------------------------------------------
      LOOP:  cpu time    3.0581: real time    3.0654

 eigenvalue-minimisations  :    96
 total energy-change (2. order) :-0.4626621E-02  (-0.4621828E-02)
 number of electron       8.0000001 magnetization 
 augmentation part        0.2265222 magnetization 

 Broyden mixing:
  rms(total) = 0.87877E+00    rms(broyden)= 0.87852E+00
  rms(prec ) = 0.12389E+01
  weight for this iteration     100.00

 Free energy of the ion-electron system (eV)
  ---------------------------------------------------
  alpha Z        PSCENC =         0.24455017
  Ewald energy   TEWEN  =       129.01230389
  -Hartree energ DENC   =      -243.97209356
  -exchange      EXHF   =         0.00000000
  -V(xc)+E(xc)   XCENC  =        22.02444761
  PAW double counting   =       117.05815612     -117.66307307
  entropy T*S    EENTRO =         0.02835520
  eigenvalues    EBANDS =      -131.38008561
  atomic energy  EATOM  =       197.04175453
  Solvation  Ediel_sol  =         0.00000000
  ---------------------------------------------------
  free energy    TOTEN  =       -27.60568471 eV

  energy without entropy =      -27.63403991  energy(sigma->0) =      -27.61513644


--------------------------------------------------------------------------------------------------------




--------------------------------------- Iteration      1(   6)  ---------------------------------------


    POTLOK:  cpu time    1.7703: real time    1.7745
    SETDIJ:  cpu time    0.0066: real time    0.0066
    EDDIAG:  cpu time    0.4329: real time    0.4339
  RMM-DIIS:  cpu time    1.4066: real time    1.4099
    ORTHCH:  cpu time    0.0121: real time    0.0121
       DOS:  cpu time    0.0002: real time    0.0002
    CHARGE:  cpu time    0.1918: real time    0.1922
    MIXING:  cpu time    0.0404: real time    0.0405
    --------------------------------------------
      LOOP:  cpu time    3.8608: real time    3.8700

 eigenvalue-minimisations  :    64
 total energy-change (2. order) : 0.2939274E+01  (-0.5485272E+00)
 number of electron       8.0000001 magnetization 
 augmentation part        0.1995787 magnetization 

 Broyden mixing:
  rms(total) = 0.43242E+00    rms(broyden)= 0.43232E+00
  rms(prec ) = 0.55966E+00
  weight for this iteration     100.00

 eigenvalues of (default mixing * dielectric matrix)
  average eigenvalue GAMMA=   1.3007
  1.3007

 Free energy of the ion-electron system (eV)
  ---------------------------------------------------
  alpha Z        PSCENC =         0.24455017
  Ewald energy   TEWEN  =       129.01230389
  -Hartree energ DENC   =      -263.84331578
  -exchange      EXHF   =         0.00000000
  -V(xc)+E(xc)   XCENC  =        23.23097104
  PAW double counting   =       238.92046920     -239.70263270
  entropy T*S    EENTRO =         0.03197871
  eigenvalues    EBANDS =      -109.60248973
  atomic energy  EATOM  =       197.04175453
  Solvation  Ediel_sol  =         0.00000000
  ---------------------------------------------------
  free energy    TOTEN  =       -24.66641068 eV

  energy without entropy =      -24.69838939  energy(sigma->0) =      -24.67707025


--------------------------------------------------------------------------------------------------------




--------------------------------------- Iteration      1(   7)  ---------------------------------------


    POTLOK:  cpu time    1.7956: real time    1.7999
    SETDIJ:  cpu time    0.0065: real time    0.0066
    EDDIAG:  cpu time    0.4100: real time    0.4109
  RMM-DIIS:  cpu time    1.4266: real time    1.4300
    ORTHCH:  cpu time    0.0116: real time    0.0116
       DOS:  cpu time    0.0002: real time    0.0002
    CHARGE:  cpu time    0.1898: real time    0.1903
    MIXING:  cpu time    0.0415: real time    0.0416
    --------------------------------------------
      LOOP:  cpu time    3.8819: real time    3.8911

 eigenvalue-minimisations  :    64
 total energy-change (2. order) : 0.4981041E+00  (-0.1250883E+00)
 number of electron       8.0000001 magnetization 
 augmentation part        0.1889608 magnetization 

 Broyden mixing:
  rms(total) = 0.23274E+00    rms(broyden)= 0.23267E+00
  rms(prec ) = 0.28137E+00
  weight for this iteration     100.00

 eigenvalues of (default mixing * dielectric matrix)
  average eigenvalue GAMMA=   1.6619
  1.4825  1.8412

 Free energy of the ion-electron system (eV)
  ---------------------------------------------------
  alpha Z        PSCENC =         0.24455017
  Ewald energy   TEWEN  =       129.01230389
  -Hartree energ DENC   =      -275.58947611
  -exchange      EXHF   =         0.00000000
  -V(xc)+E(xc)   XCENC  =        24.09222889
  PAW double counting   =       365.99381414     -366.81669864
  entropy T*S    EENTRO =         0.03458858
  eigenvalues    EBANDS =       -98.18137205
  atomic energy  EATOM  =       197.04175453
  Solvation  Ediel_sol  =         0.00000000
  ---------------------------------------------------
  free energy    TOTEN  =       -24.16830661 eV

  energy without entropy =      -24.20289518  energy(sigma->0) =      -24.17983613


--------------------------------------------------------------------------------------------------------




--------------------------------------- Iteration      1(   8)  ---------------------------------------


    POTLOK:  cpu time    1.8030: real time    1.8072
    SETDIJ:  cpu time    0.0064: real time    0.0064
    EDDIAG:  cpu time    0.4265: real time    0.4275
  RMM-DIIS:  cpu time    1.4426: real time    1.4461
    ORTHCH:  cpu time    0.0117: real time    0.0118
       DOS:  cpu time    0.0002: real time    0.0002
    CHARGE:  cpu time    0.2097: real time    0.2102
    MIXING:  cpu time    0.0425: real time    0.0426
    --------------------------------------------
      LOOP:  cpu time    3.9426: real time    3.9519

 eigenvalue-minimisations  :    64
 total energy-change (2. order) : 0.1273335E+00  (-0.1244122E-01)
 number of electron       8.0000001 magnetization 
 augmentation part        0.1875764 magnetization 

 Broyden mixing:
  rms(total) = 0.87489E-01    rms(broyden)= 0.87430E-01
  rms(prec ) = 0.12316E+00
  weight for this iteration     100.00

 eigenvalues of (default mixing * dielectric matrix)
  average eigenvalue GAMMA=   1.4384
  2.2431  1.4539  0.6183

 Free energy of the ion-electron system (eV)
  ---------------------------------------------------
  alpha Z        PSCENC =         0.24455017
  Ewald energy   TEWEN  =       129.01230389
  -Hartree energ DENC   =      -280.09920773
  -exchange      EXHF   =         0.00000000
  -V(xc)+E(xc)   XCENC  =        24.53336272
  PAW double counting   =       455.01809448     -455.81585286
  entropy T*S    EENTRO =         0.03443884
  eigenvalues    EBANDS =       -94.01041717
  atomic energy  EATOM  =       197.04175453
  Solvation  Ediel_sol  =         0.00000000
  ---------------------------------------------------
  free energy    TOTEN  =       -24.04097314 eV

  energy without entropy =      -24.07541197  energy(sigma->0) =      -24.05245275


--------------------------------------------------------------------------------------------------------




--------------------------------------- Iteration      1(   9)  ---------------------------------------


    POTLOK:  cpu time    1.7758: real time    1.7800
    SETDIJ:  cpu time    0.0066: real time    0.0066
    EDDIAG:  cpu time    0.4335: real time    0.4345
  RMM-DIIS:  cpu time    1.4765: real time    1.4800
    ORTHCH:  cpu time    0.0114: real time    0.0114
       DOS:  cpu time    0.0002: real time    0.0002
    CHARGE:  cpu time    0.1808: real time    0.1812
    MIXING:  cpu time    0.0424: real time    0.0425
    --------------------------------------------
      LOOP:  cpu time    3.9271: real time    3.9364

 eigenvalue-minimisations  :    64
 total energy-change (2. order) : 0.2590681E-01  (-0.2762134E-02)
 number of electron       8.0000001 magnetization 
 augmentation part        0.1871480 magnetization 

 Broyden mixing:
  rms(total) = 0.32593E-01    rms(broyden)= 0.32565E-01
  rms(prec ) = 0.55531E-01
  weight for this iteration     100.00

 eigenvalues of (default mixing * dielectric matrix)
  average eigenvalue GAMMA=   1.2609
  2.1950  1.4354  0.7065  0.7065

 Free energy of the ion-electron system (eV)
  ---------------------------------------------------
  alpha Z        PSCENC =         0.24455017
  Ewald energy   TEWEN  =       129.01230389
  -Hartree energ DENC   =      -281.72296830
  -exchange      EXHF   =         0.00000000
  -V(xc)+E(xc)   XCENC  =        24.67150770
  PAW double counting   =       478.84538956     -479.63743387
  entropy T*S    EENTRO =         0.03612078
  eigenvalues    EBANDS =       -92.50629079
  atomic energy  EATOM  =       197.04175453
  Solvation  Ediel_sol  =         0.00000000
  ---------------------------------------------------
  free energy    TOTEN  =       -24.01506633 eV

  energy without entropy =      -24.05118711  energy(sigma->0) =      -24.02710659


--------------------------------------------------------------------------------------------------------




--------------------------------------- Iteration      1(  10)  ---------------------------------------


    POTLOK:  cpu time    1.7818: real time    1.7862
    SETDIJ:  cpu time    0.0066: real time    0.0066
    EDDIAG:  cpu time    0.4457: real time    0.4468
  RMM-DIIS:  cpu time    1.4978: real time    1.5014
    ORTHCH:  cpu time    0.0113: real time    0.0113
       DOS:  cpu time    0.0002: real time    0.0002
    CHARGE:  cpu time    0.1797: real time    0.1801
    MIXING:  cpu time    0.0413: real time    0.0414
    --------------------------------------------
      LOOP:  cpu time    3.9644: real time    3.9739

 eigenvalue-minimisations  :    64
 total energy-change (2. order) : 0.2128820E-02  (-0.4378149E-03)
 number of electron       8.0000001 magnetization 
 augmentation part        0.1867985 magnetization 

 Broyden mixing:
  rms(total) = 0.18757E-01    rms(broyden)= 0.18712E-01
  rms(prec ) = 0.38455E-01
  weight for this iteration     100.00

 eigenvalues of (default mixing * dielectric matrix)
  average eigenvalue GAMMA=   1.3985
  2.0569  2.0569  1.3180  0.7804  0.7804

 Free energy of the ion-electron system (eV)
  ---------------------------------------------------
  alpha Z        PSCENC =         0.24455017
  Ewald energy   TEWEN  =       129.01230389
  -Hartree energ DENC   =      -282.42732479
  -exchange      EXHF   =         0.00000000
  -V(xc)+E(xc)   XCENC  =        24.69990962
  PAW double counting   =       476.58851322     -477.38290897
  entropy T*S    EENTRO =         0.03605310
  eigenvalues    EBANDS =       -91.82578827
  atomic energy  EATOM  =       197.04175453
  Solvation  Ediel_sol  =         0.00000000
  ---------------------------------------------------
  free energy    TOTEN  =       -24.01293751 eV

  energy without entropy =      -24.04899060  energy(sigma->0) =      -24.02495520


--------------------------------------------------------------------------------------------------------




--------------------------------------- Iteration      1(  11)  ---------------------------------------


    POTLOK:  cpu time    1.7169: real time    1.7210
    SETDIJ:  cpu time    0.0065: real time    0.0065
    EDDIAG:  cpu time    0.4444: real time    0.4455
  RMM-DIIS:  cpu time    1.5060: real time    1.5096
    ORTHCH:  cpu time    0.0114: real time    0.0114
       DOS:  cpu time    0.0002: real time    0.0002
    CHARGE:  cpu time    0.1791: real time    0.1795
    MIXING:  cpu time    0.0430: real time    0.0431
    --------------------------------------------
      LOOP:  cpu time    3.9075: real time    3.9167

 eigenvalue-minimisations  :    64
 total energy-change (2. order) : 0.3204731E-02  (-0.9065021E-03)
 number of electron       8.0000001 magnetization 
 augmentation part        0.1861580 magnetization 

 Broyden mixing:
  rms(total) = 0.17552E-01    rms(broyden)= 0.17541E-01
  rms(prec ) = 0.27432E-01
  weight for this iteration     100.00

 eigenvalues of (default mixing * dielectric matrix)
  average eigenvalue GAMMA=   1.5444
  3.0736  2.5167  1.2767  0.9893  0.7051  0.7051

 Free energy of the ion-electron system (eV)
  ---------------------------------------------------
  alpha Z        PSCENC =         0.24455017
  Ewald energy   TEWEN  =       129.01230389
  -Hartree energ DENC   =      -283.99999055
  -exchange      EXHF   =         0.00000000
  -V(xc)+E(xc)   XCENC  =        24.76154219
  PAW double counting   =       470.46253491     -471.25779875
  entropy T*S    EENTRO =         0.03633664
  eigenvalues    EBANDS =       -90.31096581
  atomic energy  EATOM  =       197.04175453
  Solvation  Ediel_sol  =         0.00000000
  ---------------------------------------------------
  free energy    TOTEN  =       -24.00973277 eV

  energy without entropy =      -24.04606941  energy(sigma->0) =      -24.02184499


--------------------------------------------------------------------------------------------------------




--------------------------------------- Iteration      1(  12)  ---------------------------------------


    POTLOK:  cpu time    1.6602: real time    1.6641
    SETDIJ:  cpu time    0.0066: real time    0.0066
    EDDIAG:  cpu time    0.4492: real time    0.4503
  RMM-DIIS:  cpu time    1.5105: real time    1.5141
    ORTHCH:  cpu time    0.0113: real time    0.0114
       DOS:  cpu time    0.0002: real time    0.0002
    CHARGE:  cpu time    0.1784: real time    0.1789
    MIXING:  cpu time    0.0433: real time    0.0434
    --------------------------------------------
      LOOP:  cpu time    3.8597: real time    3.8688

 eigenvalue-minimisations  :    64
 total energy-change (2. order) : 0.2137592E-02  (-0.1032274E-03)
 number of electron       8.0000001 magnetization 
 augmentation part        0.1860887 magnetization 

 Broyden mixing:
  rms(total) = 0.12278E-01    rms(broyden)= 0.12257E-01
  rms(prec ) = 0.18509E-01
  weight for this iteration     100.00

 eigenvalues of (default mixing * dielectric matrix)
  average eigenvalue GAMMA=   1.5844
  3.0869  2.0940  2.0940  1.4787  0.9700  0.6838  0.6838

 Free energy of the ion-electron system (eV)
  ---------------------------------------------------
  alpha Z        PSCENC =         0.24455017
  Ewald energy   TEWEN  =       129.01230389
  -Hartree energ DENC   =      -284.48763002
  -exchange      EXHF   =         0.00000000
  -V(xc)+E(xc)   XCENC  =        24.78169041
  PAW double counting   =       468.82756378     -469.62040692
  entropy T*S    EENTRO =         0.03654402
  eigenvalues    EBANDS =       -89.84396505
  atomic energy  EATOM  =       197.04175453
  Solvation  Ediel_sol  =         0.00000000
  ---------------------------------------------------
  free energy    TOTEN  =       -24.00759518 eV

  energy without entropy =      -24.04413920  energy(sigma->0) =      -24.01977652


--------------------------------------------------------------------------------------------------------




--------------------------------------- Iteration      1(  13)  ---------------------------------------


    POTLOK:  cpu time    1.6125: real time    1.6163
    SETDIJ:  cpu time    0.0065: real time    0.0065
    EDDIAG:  cpu time    0.4542: real time    0.4552
  RMM-DIIS:  cpu time    1.5061: real time    1.5096
    ORTHCH:  cpu time    0.0120: real time    0.0121
       DOS:  cpu time    0.0002: real time    0.0002
    CHARGE:  cpu time    0.1958: real time    0.1963
    MIXING:  cpu time    0.0448: real time    0.0449
    --------------------------------------------
      LOOP:  cpu time    3.8321: real time    3.8411

 eigenvalue-minimisations  :    64
 total energy-change (2. order) :-0.6941110E-02  (-0.5941321E-03)
 number of electron       8.0000001 magnetization 
 augmentation part        0.1864014 magnetization 

 Broyden mixing:
  rms(total) = 0.16610E-01    rms(broyden)= 0.16598E-01
  rms(prec ) = 0.21257E-01
  weight for this iteration     100.00

 eigenvalues of (default mixing * dielectric matrix)
  average eigenvalue GAMMA=   1.7732
  4.4008  2.8490  2.1906  1.1899  1.1899  0.9989  0.6834  0.6834

 Free energy of the ion-electron system (eV)
  ---------------------------------------------------
  alpha Z        PSCENC =         0.24455017
  Ewald energy   TEWEN  =       129.01230389
  -Hartree energ DENC   =      -284.54762276
  -exchange      EXHF   =         0.00000000
  -V(xc)+E(xc)   XCENC  =        24.78444465
  PAW double counting   =       472.37763743     -473.16630017
  entropy T*S    EENTRO =         0.03662557
  eigenvalues    EBANDS =       -89.79792962
  atomic energy  EATOM  =       197.04175453
  Solvation  Ediel_sol  =         0.00000000
  ---------------------------------------------------
  free energy    TOTEN  =       -24.01453629 eV

  energy without entropy =      -24.05116186  energy(sigma->0) =      -24.02674482


--------------------------------------------------------------------------------------------------------




--------------------------------------- Iteration      1(  14)  ---------------------------------------


    POTLOK:  cpu time    1.5395: real time    1.5431
    SETDIJ:  cpu time    0.0064: real time    0.0064
    EDDIAG:  cpu time    0.4316: real time    0.4327
  RMM-DIIS:  cpu time    1.5326: real time    1.5362
    ORTHCH:  cpu time    0.0116: real time    0.0116
       DOS:  cpu time    0.0002: real time    0.0002
    CHARGE:  cpu time    0.2067: real time    0.2072
    MIXING:  cpu time    0.0481: real time    0.0482
    --------------------------------------------
      LOOP:  cpu time    3.7767: real time    3.7857

 eigenvalue-minimisations  :    64
 total energy-change (2. order) :-0.2613551E-02  (-0.2014604E-03)
 number of electron       8.0000001 magnetization 
 augmentation part        0.1861757 magnetization 

 Broyden mixing:
  rms(total) = 0.48177E-02    rms(broyden)= 0.48167E-02
  rms(prec ) = 0.70165E-02
  weight for this iteration     100.00

 eigenvalues of (default mixing * dielectric matrix)
  average eigenvalue GAMMA=   1.7934
  4.8317  2.8369  1.8923  1.8923  1.2543  1.0899  0.9770  0.6831  0.6831

 Free energy of the ion-electron system (eV)
  ---------------------------------------------------
  alpha Z        PSCENC =         0.24455017
  Ewald energy   TEWEN  =       129.01230389
  -Hartree energ DENC   =      -284.79808032
  -exchange      EXHF   =         0.00000000
  -V(xc)+E(xc)   XCENC  =        24.78103646
  PAW double counting   =       468.28817825     -469.08041966
  entropy T*S    EENTRO =         0.03647688
  eigenvalues    EBANDS =       -89.54295004
  atomic energy  EATOM  =       197.04175453
  Solvation  Ediel_sol  =         0.00000000
  ---------------------------------------------------
  free energy    TOTEN  =       -24.01714984 eV

  energy without entropy =      -24.05362673  energy(sigma->0) =      -24.02930880


--------------------------------------------------------------------------------------------------------




--------------------------------------- Iteration      1(  15)  ---------------------------------------


    POTLOK:  cpu time    1.5520: real time    1.5556
    SETDIJ:  cpu time    0.0065: real time    0.0065
    EDDIAG:  cpu time    0.4325: real time    0.4336
  RMM-DIIS:  cpu time    1.5650: real time    1.5687
    ORTHCH:  cpu time    0.0123: real time    0.0123
       DOS:  cpu time    0.0002: real time    0.0002
    CHARGE:  cpu time    0.1995: real time    0.2000
    MIXING:  cpu time    0.0483: real time    0.0484
    --------------------------------------------
      LOOP:  cpu time    3.8164: real time    3.8254

 eigenvalue-minimisations  :    64
 total energy-change (2. order) :-0.1855292E-02  (-0.6302753E-04)
 number of electron       8.0000001 magnetization 
 augmentation part        0.1860682 magnetization 

 Broyden mixing:
  rms(total) = 0.55090E-02    rms(broyden)= 0.54969E-02
  rms(prec ) = 0.72743E-02
  weight for this iteration     100.00

 eigenvalues of (default mixing * dielectric matrix)
  average eigenvalue GAMMA=   1.8982
  5.5378  3.3579  2.4560  1.8517  1.2708  1.2708  0.6816  0.6816  1.0332  0.8402

 Free energy of the ion-electron system (eV)
  ---------------------------------------------------
  alpha Z        PSCENC =         0.24455017
  Ewald energy   TEWEN  =       129.01230389
  -Hartree energ DENC   =      -284.81425364
  -exchange      EXHF   =         0.00000000
  -V(xc)+E(xc)   XCENC  =        24.77735066
  PAW double counting   =       468.13650384     -468.92921381
  entropy T*S    EENTRO =         0.03639844
  eigenvalues    EBANDS =       -89.52439922
  atomic energy  EATOM  =       197.04175453
  Solvation  Ediel_sol  =         0.00000000
  ---------------------------------------------------
  free energy    TOTEN  =       -24.01900513 eV

  energy without entropy =      -24.05540357  energy(sigma->0) =      -24.03113795


--------------------------------------------------------------------------------------------------------




--------------------------------------- Iteration      1(  16)  ---------------------------------------


    POTLOK:  cpu time    1.5208: real time    1.5244
    SETDIJ:  cpu time    0.0064: real time    0.0064
    EDDIAG:  cpu time    0.4378: real time    0.4389
  RMM-DIIS:  cpu time    1.5537: real time    1.5574
    ORTHCH:  cpu time    0.0120: real time    0.0120
       DOS:  cpu time    0.0002: real time    0.0002
    CHARGE:  cpu time    0.2044: real time    0.2049
    MIXING:  cpu time    0.0467: real time    0.0468
    --------------------------------------------
      LOOP:  cpu time    3.7821: real time    3.7910

 eigenvalue-minimisations  :    64
 total energy-change (2. order) :-0.8827141E-03  (-0.3197404E-04)
 number of electron       8.0000001 magnetization 
 augmentation part        0.1861176 magnetization 

 Broyden mixing:
  rms(total) = 0.16244E-02    rms(broyden)= 0.16209E-02
  rms(prec ) = 0.22002E-02
  weight for this iteration     100.00

 eigenvalues of (default mixing * dielectric matrix)
  average eigenvalue GAMMA=   2.0317
  6.4934  4.1597  2.5404  1.9977  1.3737  1.3737  0.6815  0.6815  1.0813  1.0813
  0.8845

 Free energy of the ion-electron system (eV)
  ---------------------------------------------------
  alpha Z        PSCENC =         0.24455017
  Ewald energy   TEWEN  =       129.01230389
  -Hartree energ DENC   =      -284.77078007
  -exchange      EXHF   =         0.00000000
  -V(xc)+E(xc)   XCENC  =        24.77625243
  PAW double counting   =       469.55495593     -470.34641407
  entropy T*S    EENTRO =         0.03641168
  eigenvalues    EBANDS =       -89.56892235
  atomic energy  EATOM  =       197.04175453
  Solvation  Ediel_sol  =         0.00000000
  ---------------------------------------------------
  free energy    TOTEN  =       -24.01988785 eV

  energy without entropy =      -24.05629953  energy(sigma->0) =      -24.03202508


--------------------------------------------------------------------------------------------------------




--------------------------------------- Iteration      1(  17)  ---------------------------------------


    POTLOK:  cpu time    1.5320: real time    1.5356
    SETDIJ:  cpu time    0.0065: real time    0.0065
    EDDIAG:  cpu time    0.4387: real time    0.4398
  RMM-DIIS:  cpu time    1.5348: real time    1.5385
    ORTHCH:  cpu time    0.0112: real time    0.0112
       DOS:  cpu time    0.0002: real time    0.0002
    CHARGE:  cpu time    0.1865: real time    0.1869
    MIXING:  cpu time    0.0499: real time    0.0500
    --------------------------------------------
      LOOP:  cpu time    3.7599: real time    3.7687

 eigenvalue-minimisations  :    64
 total energy-change (2. order) :-0.4431802E-03  (-0.4145535E-05)
 number of electron       8.0000001 magnetization 
 augmentation part        0.1861168 magnetization 

 Broyden mixing:
  rms(total) = 0.99991E-03    rms(broyden)= 0.99973E-03
  rms(prec ) = 0.13387E-02
  weight for this iteration     100.00

 eigenvalues of (default mixing * dielectric matrix)
  average eigenvalue GAMMA=   2.1291
  7.2562  4.2287  2.8638  2.4935  1.8656  1.2378  1.2378  0.6816  0.6816  1.1134
  0.9647  0.9247

 Free energy of the ion-electron system (eV)
  ---------------------------------------------------
  alpha Z        PSCENC =         0.24455017
  Ewald energy   TEWEN  =       129.01230389
  -Hartree energ DENC   =      -284.75960576
  -exchange      EXHF   =         0.00000000
  -V(xc)+E(xc)   XCENC  =        24.77418232
  PAW double counting   =       469.30940518     -470.10097467
  entropy T*S    EENTRO =         0.03643034
  eigenvalues    EBANDS =       -89.57837702
  atomic energy  EATOM  =       197.04175453
  Solvation  Ediel_sol  =         0.00000000
  ---------------------------------------------------
  free energy    TOTEN  =       -24.02033103 eV

  energy without entropy =      -24.05676137  energy(sigma->0) =      -24.03247447


--------------------------------------------------------------------------------------------------------




--------------------------------------- Iteration      1(  18)  ---------------------------------------


    POTLOK:  cpu time    1.5741: real time    1.5780
    SETDIJ:  cpu time    0.0065: real time    0.0065
    EDDIAG:  cpu time    0.4521: real time    0.4532
  RMM-DIIS:  cpu time    1.4828: real time    1.4863
    ORTHCH:  cpu time    0.0116: real time    0.0116
       DOS:  cpu time    0.0002: real time    0.0002
    CHARGE:  cpu time    0.1772: real time    0.1776
    MIXING:  cpu time    0.0499: real time    0.0500
    --------------------------------------------
      LOOP:  cpu time    3.7543: real time    3.7634

 eigenvalue-minimisations  :    64
 total energy-change (2. order) :-0.1610019E-03  (-0.6991982E-05)
 number of electron       8.0000001 magnetization 
 augmentation part        0.1860621 magnetization 

 Broyden mixing:
  rms(total) = 0.11917E-02    rms(broyden)= 0.11915E-02
  rms(prec ) = 0.15073E-02
  weight for this iteration     100.00

 eigenvalues of (default mixing * dielectric matrix)
  average eigenvalue GAMMA=   2.2397
  8.0467  4.9758  2.8193  2.8193  2.1054  1.6575  1.2035  1.2035  0.6816  0.6816
  1.0077  1.0077  0.9067

 Free energy of the ion-electron system (eV)
  ---------------------------------------------------
  alpha Z        PSCENC =         0.24455017
  Ewald energy   TEWEN  =       129.01230389
  -Hartree energ DENC   =      -284.80077703
  -exchange      EXHF   =         0.00000000
  -V(xc)+E(xc)   XCENC  =        24.77529677
  PAW double counting   =       468.84320129     -469.63525721
  entropy T*S    EENTRO =         0.03644312
  eigenvalues    EBANDS =       -89.53800756
  atomic energy  EATOM  =       197.04175453
  Solvation  Ediel_sol  =         0.00000000
  ---------------------------------------------------
  free energy    TOTEN  =       -24.02049203 eV

  energy without entropy =      -24.05693515  energy(sigma->0) =      -24.03263974


--------------------------------------------------------------------------------------------------------




--------------------------------------- Iteration      1(  19)  ---------------------------------------


    POTLOK:  cpu time    1.6210: real time    1.6249
    SETDIJ:  cpu time    0.0064: real time    0.0064
    EDDIAG:  cpu time    0.4495: real time    0.4506
  RMM-DIIS:  cpu time    1.4512: real time    1.4546
    ORTHCH:  cpu time    0.0117: real time    0.0117
       DOS:  cpu time    0.0002: real time    0.0002
    CHARGE:  cpu time    0.1814: real time    0.1819
    MIXING:  cpu time    0.0503: real time    0.0505
    --------------------------------------------
      LOOP:  cpu time    3.7718: real time    3.7808

 eigenvalue-minimisations  :    64
 total energy-change (2. order) :-0.2557476E-04  (-0.1601856E-05)
 number of electron       8.0000001 magnetization 
 augmentation part        0.1860836 magnetization 

 Broyden mixing:
  rms(total) = 0.22040E-03    rms(broyden)= 0.21991E-03
  rms(prec ) = 0.30104E-03
  weight for this iteration     100.00

 eigenvalues of (default mixing * dielectric matrix)
  average eigenvalue GAMMA=   2.2609
  8.2441  5.1520  3.6874  2.4115  2.4115  1.5785  1.5295  1.2074  1.2074  0.6816
  0.6816  0.9777  0.9777  0.9048

 Free energy of the ion-electron system (eV)
  ---------------------------------------------------
  alpha Z        PSCENC =         0.24455017
  Ewald energy   TEWEN  =       129.01230389
  -Hartree energ DENC   =      -284.77433251
  -exchange      EXHF   =         0.00000000
  -V(xc)+E(xc)   XCENC  =        24.77437034
  PAW double counting   =       468.95228765     -469.74403344
  entropy T*S    EENTRO =         0.03643620
  eigenvalues    EBANDS =       -89.56385444
  atomic energy  EATOM  =       197.04175453
  Solvation  Ediel_sol  =         0.00000000
  ---------------------------------------------------
  free energy    TOTEN  =       -24.02051760 eV

  energy without entropy =      -24.05695381  energy(sigma->0) =      -24.03266300


--------------------------------------------------------------------------------------------------------




--------------------------------------- Iteration      1(  20)  ---------------------------------------


    POTLOK:  cpu time    1.6796: real time    1.6836
    SETDIJ:  cpu time    0.0065: real time    0.0065
    EDDIAG:  cpu time    0.4310: real time    0.4320
  RMM-DIIS:  cpu time    1.1478: real time    1.1505
    ORTHCH:  cpu time    0.0115: real time    0.0115
       DOS:  cpu time    0.0002: real time    0.0002
    CHARGE:  cpu time    0.1849: real time    0.1854
    MIXING:  cpu time    0.0521: real time    0.0522
    --------------------------------------------
      LOOP:  cpu time    3.5136: real time    3.5220

 eigenvalue-minimisations  :    48
 total energy-change (2. order) :-0.1128778E-04  (-0.1618982E-06)
 number of electron       8.0000001 magnetization 
 augmentation part        0.1860854 magnetization 

 Broyden mixing:
  rms(total) = 0.22672E-03    rms(broyden)= 0.22635E-03
  rms(prec ) = 0.29659E-03
  weight for this iteration     100.00

 eigenvalues of (default mixing * dielectric matrix)
  average eigenvalue GAMMA=   2.2468
  8.4128  5.3486  3.8508  2.5078  2.5078  1.9409  1.5834  1.2059  1.2059  0.6816
  0.6816  0.9897  0.9897  0.9449  0.8514

 Free energy of the ion-electron system (eV)
  ---------------------------------------------------
  alpha Z        PSCENC =         0.24455017
  Ewald energy   TEWEN  =       129.01230389
  -Hartree energ DENC   =      -284.78086268
  -exchange      EXHF   =         0.00000000
  -V(xc)+E(xc)   XCENC  =        24.77484656
  PAW double counting   =       469.01297058     -469.80469550
  entropy T*S    EENTRO =         0.03643947
  eigenvalues    EBANDS =       -89.55783592
  atomic energy  EATOM  =       197.04175453
  Solvation  Ediel_sol  =         0.00000000
  ---------------------------------------------------
  free energy    TOTEN  =       -24.02052889 eV

  energy without entropy =      -24.05696836  energy(sigma->0) =      -24.03267538


--------------------------------------------------------------------------------------------------------




--------------------------------------- Iteration      1(  21)  ---------------------------------------


    POTLOK:  cpu time    1.6861: real time    1.6901
    SETDIJ:  cpu time    0.0064: real time    0.0064
    EDDIAG:  cpu time    0.4317: real time    0.4328
  RMM-DIIS:  cpu time    1.1409: real time    1.1436
    ORTHCH:  cpu time    0.0113: real time    0.0113
       DOS:  cpu time    0.0002: real time    0.0002
    CHARGE:  cpu time    0.1978: real time    0.1983
    MIXING:  cpu time    0.0534: real time    0.0535
    --------------------------------------------
      LOOP:  cpu time    3.5279: real time    3.5362

 eigenvalue-minimisations  :    48
 total energy-change (2. order) :-0.2455102E-05  (-0.2695601E-07)
 number of electron       8.0000001 magnetization 
 augmentation part        0.1860864 magnetization 

 Broyden mixing:
  rms(total) = 0.79472E-04    rms(broyden)= 0.79400E-04
  rms(prec ) = 0.10662E-03
  weight for this iteration     100.00

 eigenvalues of (default mixing * dielectric matrix)
  average eigenvalue GAMMA=   2.2334
  8.4424  5.4214  3.8773  2.5457  2.5457  2.3337  1.4461  1.4461  1.2190  1.2190
  0.6816  0.6816  1.0363  0.9844  0.9844  0.8694

 Free energy of the ion-electron system (eV)
  ---------------------------------------------------
  alpha Z        PSCENC =         0.24455017
  Ewald energy   TEWEN  =       129.01230389
  -Hartree energ DENC   =      -284.78119728
  -exchange      EXHF   =         0.00000000
  -V(xc)+E(xc)   XCENC  =        24.77478401
  PAW double counting   =       469.00672242     -469.79847642
  entropy T*S    EENTRO =         0.03643832
  eigenvalues    EBANDS =       -89.55741100
  atomic energy  EATOM  =       197.04175453
  Solvation  Ediel_sol  =         0.00000000
  ---------------------------------------------------
  free energy    TOTEN  =       -24.02053135 eV

  energy without entropy =      -24.05696967  energy(sigma->0) =      -24.03267745


--------------------------------------------------------------------------------------------------------




--------------------------------------- Iteration      1(  22)  ---------------------------------------


    POTLOK:  cpu time    1.6803: real time    1.6843
    SETDIJ:  cpu time    0.0067: real time    0.0067
    EDDIAG:  cpu time    0.4515: real time    0.4526
  RMM-DIIS:  cpu time    1.1795: real time    1.1823
    ORTHCH:  cpu time    0.0115: real time    0.0115
       DOS:  cpu time    0.0002: real time    0.0002
    CHARGE:  cpu time    0.1904: real time    0.1908
    MIXING:  cpu time    0.0559: real time    0.0561
    --------------------------------------------
      LOOP:  cpu time    3.5760: real time    3.5845

 eigenvalue-minimisations  :    48
 total energy-change (2. order) :-0.1101490E-05  (-0.8920989E-08)
 number of electron       8.0000001 magnetization 
 augmentation part        0.1860867 magnetization 

 Broyden mixing:
  rms(total) = 0.40486E-04    rms(broyden)= 0.40240E-04
  rms(prec ) = 0.55829E-04
  weight for this iteration     100.00

 eigenvalues of (default mixing * dielectric matrix)
  average eigenvalue GAMMA=   2.2841
  8.5231  5.4606  4.3090  3.2397  2.5396  2.2172  2.2172  1.5612  1.2177  1.2177
  0.6816  0.6816  1.1229  0.9956  0.9956  0.9736  0.8760

 Free energy of the ion-electron system (eV)
  ---------------------------------------------------
  alpha Z        PSCENC =         0.24455017
  Ewald energy   TEWEN  =       129.01230389
  -Hartree energ DENC   =      -284.78174113
  -exchange      EXHF   =         0.00000000
  -V(xc)+E(xc)   XCENC  =        24.77476040
  PAW double counting   =       468.99650908     -469.78827889
  entropy T*S    EENTRO =         0.03643732
  eigenvalues    EBANDS =       -89.55682783
  atomic energy  EATOM  =       197.04175453
  Solvation  Ediel_sol  =         0.00000000
  ---------------------------------------------------
  free energy    TOTEN  =       -24.02053245 eV

  energy without entropy =      -24.05696977  energy(sigma->0) =      -24.03267822


--------------------------------------------------------------------------------------------------------




--------------------------------------- Iteration      1(  23)  ---------------------------------------


    POTLOK:  cpu time    1.6627: real time    1.6667
    SETDIJ:  cpu time    0.0065: real time    0.0065
    EDDIAG:  cpu time    0.4496: real time    0.4507
  RMM-DIIS:  cpu time    1.0240: real time    1.0264
    ORTHCH:  cpu time    0.0114: real time    0.0114
       DOS:  cpu time    0.0002: real time    0.0002
    --------------------------------------------
      LOOP:  cpu time    3.1544: real time    3.1618

 eigenvalue-minimisations  :    32
 total energy-change (2. order) :-0.5315748E-06  ( 0.0000000E+00)
 number of electron       8.0000001 magnetization 
 augmentation part        0.1860867 magnetization 

 Free energy of the ion-electron system (eV)
  ---------------------------------------------------
  alpha Z        PSCENC =         0.24455017
  Ewald energy   TEWEN  =       129.01230389
  -Hartree energ DENC   =      -284.78116644
  -exchange      EXHF   =         0.00000000
  -V(xc)+E(xc)   XCENC  =        24.77473311
  PAW double counting   =       468.99762522     -469.78939350
  entropy T*S    EENTRO =         0.03643720
  eigenvalues    EBANDS =       -89.55737716
  atomic energy  EATOM  =       197.04175453
  Solvation  Ediel_sol  =         0.00000000
  ---------------------------------------------------
  free energy    TOTEN  =       -24.02053298 eV

  energy without entropy =      -24.05697018  energy(sigma->0) =      -24.03267871


--------------------------------------------------------------------------------------------------------




 average (electrostatic) potential at core
  the test charge radii are     0.5201  0.6991
  (the norm of the test charge is              1.0000)
       1 -41.4481       2 -41.6469       3 -41.5141       4 -41.4093       5 -57.9316



 E-fermi :  -9.0833     XC(G=0):  -0.7041     alpha+bet : -0.2127


 k-point     1 :       0.2500    0.2500    0.2500
  band No.  band energies     occupation 
      1     -16.9041      2.00000
      2      -9.3806      2.05647
      3      -9.2671      2.02908
      4      -9.2218      1.91446
      5      -0.3132      0.00000
      6       0.5733      0.00000
      7       0.6886      0.00000
      8       0.7116      0.00000

 k-point     2 :      -0.2500    0.2500    0.2500
  band No.  band energies     occupation 
      1     -16.9040      2.00000
      2      -9.3806      2.05648
      3      -9.2671      2.02910
      4      -9.2217      1.91415
      5      -0.3106      0.00000
      6       0.5664      0.00000
      7       0.6742      0.00000
      8       0.7096      0.00000

 k-point     3 :       0.2500   -0.2500    0.2500
  band No.  band energies     occupation 
      1     -16.9041      2.00000
      2      -9.3807      2.05645
      3      -9.2670      2.02902
      4      -9.2218      1.91443
      5      -0.3079      0.00000
      6       0.5609      0.00000
      7       0.6641      0.00000
      8       0.7074      0.00000

 k-point     4 :      -0.2500   -0.2500    0.2500
  band No.  band energies     occupation 
      1     -16.9041      2.00000
      2      -9.3806      2.05648
      3      -9.2671      2.02918
      4      -9.2218      1.91470
      5      -0.3099      0.00000
      6       0.5649      0.00000
      7       0.6770      0.00000
      8       0.7068      0.00000


--------------------------------------------------------------------------------------------------------


 soft charge-density along one line, spin component           1
         0         1         2         3         4         5         6         7         8         9
 total charge-density along one line

 pseudopotential strength for first ion, spin component:           1
 -2.341  -4.033  -0.001  -0.002   0.001
 -4.033  -6.864  -0.003  -0.004   0.002
 -0.001  -0.003  -0.337   0.002  -0.001
 -0.002  -0.004   0.002  -0.336  -0.001
  0.001   0.002  -0.001  -0.001  -0.338
 total augmentation occupancy for first ion, spin component:           1
  3.387  -0.594   0.221   0.393  -0.119
 -0.594   0.117  -0.041  -0.069   0.022
  0.221  -0.041   0.019   0.022  -0.006
  0.393  -0.069   0.022   0.050  -0.012
 -0.119   0.022  -0.006  -0.012   0.013


------------------------ aborting loop because EDIFF is reached ----------------------------------------


    CHARGE:  cpu time    0.1731: real time    0.1735
    FORLOC:  cpu time    0.1098: real time    0.1100
    FORNL :  cpu time    0.5947: real time    0.5961
    STRESS:  cpu time    1.9248: real time    1.9294
    FORCOR:  cpu time    1.7117: real time    1.7157
    FORHAR:  cpu time    0.5567: real time    0.5580
    MIXING:  cpu time    0.0538: real time    0.0539
    OFIELD:  cpu time    0.0000: real time    0.0000

  FORCE on cell =-STRESS in cart. coord.  units (eV):
  Direction    XX          YY          ZZ          XY          YZ          ZX
  --------------------------------------------------------------------------------------
  Alpha Z     0.24455     0.24455     0.24455
  Ewald      45.78689    42.09025    41.13515     1.55264     0.65970     1.27195
  Hartree    97.20079    94.78949    92.79104     0.78713     0.43317     0.34711
  E(xc)     -27.25575   -27.25299   -27.23074     0.00791     0.00427     0.00515
  Local    -201.50685  -195.43688  -193.04265    -2.50677    -1.07033    -1.46771
  n-local   -15.94507   -15.21914   -16.00016     0.05394    -0.06115     0.02423
  augment     0.11193     0.11412     0.12088     0.00272     0.00079    -0.00096
  Kinetic   102.22016   100.56617   101.24640     0.60072    -0.20311     0.02135
  Fock        0.00000     0.00000     0.00000     0.00000     0.00000     0.00000
  -------------------------------------------------------------------------------------
  Total       0.85664    -0.10443    -0.73552     0.49829    -0.23666     0.20112
  in kB       1.38552    -0.16890    -1.18962     0.80592    -0.38278     0.32529
  external pressure =        0.01 kB  Pullay stress =        0.00 kB

  kinetic pressure (ideal gas correction) =      0.03 kB
  total pressure  =      0.04 kB
  Total+kin.     1.406      -0.112      -1.183       0.825      -0.389       0.327

 VOLUME and BASIS-vectors are now :
 -----------------------------------------------------------------------------
  energy-cutoff  :      400.00
  volume of cell :      990.60
      direct lattice vectors                 reciprocal lattice vectors
     9.756834819  0.000000000  0.000000000     0.102492255 -0.001123218 -0.000070716
     0.108848087  9.932256654  0.000000000     0.000000000  0.100682054 -0.001660447
     0.008900393  0.168582779 10.222105236     0.000000000  0.000000000  0.097827207

  length of vectors
     9.756834819  9.932853071 10.223499147     0.102498434  0.100695745  0.097827207


 FORCES acting on ions
    electron-ion (+dipol)            ewald-force                    non-local-force                 convergence-correction
 -----------------------------------------------------------------------------------------------
   -.158E+02 0.289E+02 0.405E+02   0.172E+02 -.314E+02 -.443E+02   -.140E+01 0.288E+01 0.412E+01   0.145E-04 -.758E-05 0.539E-05
   0.535E+02 -.639E+01 0.379E+01   -.602E+02 0.695E+01 -.431E+01   0.564E+01 -.448E+00 0.698E+00   0.942E-05 0.268E-04 0.151E-04
   -.234E+02 -.476E+02 0.147E+01   0.262E+02 0.526E+02 -.165E+01   -.212E+01 -.483E+01 0.103E+00   -.796E-05 0.152E-04 0.166E-04
   -.118E+02 0.236E+02 -.457E+02   0.129E+02 -.258E+02 0.503E+02   -.219E+01 0.206E+01 -.476E+01   0.159E-04 -.311E-05 0.202E-04
   -.338E+01 0.213E+01 0.246E+00   0.386E+01 -.238E+01 -.112E+00   -.625E+00 0.392E+00 -.171E+00   0.167E-03 0.166E-03 0.380E-03
 -----------------------------------------------------------------------------------------------
   -.844E+00 0.552E+00 0.271E+00   -.355E-14 -.355E-14 -.139E-16   -.698E+00 0.553E-01 -.580E-02   0.199E-03 0.198E-03 0.438E-03


 POSITION                                       TOTAL-FORCE (eV/Angst)
 -----------------------------------------------------------------------------------
      5.29875      4.10355      3.68474         0.038637      0.341038      0.362331
      3.90418      4.83838      4.47533        -1.050662      0.111212      0.181995
      5.45045      5.69401      4.52254         0.659863      0.180562     -0.072815
      5.20885      4.22866      5.50939        -1.039444     -0.165245     -0.168778
      4.96555      4.71612      4.55252        -0.149911      0.139972     -0.036778
 -----------------------------------------------------------------------------------
    total drift:                               -1.541517      0.607538      0.265955


--------------------------------------------------------------------------------------------------------



  FREE ENERGIE OF THE ION-ELECTRON SYSTEM (eV)
  ---------------------------------------------------
  free  energy   TOTEN  =       -24.02053298 eV

  energy  without entropy=      -24.05697018  energy(sigma->0) =      -24.03267871



--------------------------------------------------------------------------------------------------------


    POTLOK:  cpu time    1.7031: real time    1.7072


--------------------------------------------------------------------------------------------------------


           RANDOM_SEED =         578492891                0                0
           RANDOM_SEED =         578492891               30                0
   IONSTEP:  cpu time    0.0016: real time    0.0018

  ENERGY OF THE ELECTRON-ION-THERMOSTAT SYSTEM (eV)
  ---------------------------------------------------
% ion-electron   TOTEN  =       -24.020533  see above
  kinetic energy EKIN   =         0.028495
  kin. lattice  EKIN_LAT=         0.000000  (temperature   55.11 K)
  nose potential ES     =         0.000000
  nose kinetic   EPS    =         0.000001
  ---------------------------------------------------
  total energy   ETOTAL =       -23.992037 eV

  maximum distance moved by ions :      0.47E-02


 mean value of Nose-termostat <S>:     1.001 mean value of <T> :    55.112
 mean temperature <T/S>/<1/S>  :    55.112

    WAVPRE:  cpu time    0.4432: real time    0.4490
    FEWALD:  cpu time    0.0004: real time    0.0004
    ORTHCH:  cpu time    0.2012: real time    0.2017
     LOOP+:  cpu time   89.8435: real time   90.0644


--------------------------------------- Iteration      2(   1)  ---------------------------------------


    POTLOK:  cpu time    1.6725: real time    1.6766
    SETDIJ:  cpu time    0.0065: real time    0.0065
     EDDAV:  cpu time    1.9455: real time    1.9501
       DOS:  cpu time    0.0002: real time    0.0002
    CHARGE:  cpu time    0.1567: real time    0.1571
    MIXING:  cpu time    0.0415: real time    0.0416
    --------------------------------------------
      LOOP:  cpu time    3.8229: real time    3.8321

 eigenvalue-minimisations  :    64
 total energy-change (2. order) :-0.2702384E-02  (-0.1948412E+00)
 number of electron       7.9999998 magnetization 
 augmentation part        0.1883046 magnetization 

 Broyden mixing:
  rms(total) = 0.65100E-01    rms(broyden)= 0.64987E-01
  rms(prec ) = 0.76696E-01
  weight for this iteration     100.00

 Free energy of the ion-electron system (eV)
  ---------------------------------------------------
  alpha Z        PSCENC =         0.24455017
  Ewald energy   TEWEN  =       130.60231346
  -Hartree energ DENC   =      -285.69937301
  -exchange      EXHF   =         0.00000000
  -V(xc)+E(xc)   XCENC  =        24.82021719
  PAW double counting   =       468.99476611     -469.78653567
  entropy T*S    EENTRO =         0.01877502
  eigenvalues    EBANDS =       -90.25970264
  atomic energy  EATOM  =       197.04175453
  Solvation  Ediel_sol  =         0.00000000
  ---------------------------------------------------
  free energy    TOTEN  =       -24.02323483 eV

  energy without entropy =      -24.04200986  energy(sigma->0) =      -24.02949317


--------------------------------------------------------------------------------------------------------




--------------------------------------- Iteration      2(   2)  ---------------------------------------


    POTLOK:  cpu time    1.4759: real time    1.4794
    SETDIJ:  cpu time    0.0064: real time    0.0065
    EDDIAG:  cpu time    0.4180: real time    0.4190
  RMM-DIIS:  cpu time    1.3912: real time    1.3945
    ORTHCH:  cpu time    0.0116: real time    0.0116
       DOS:  cpu time    0.0002: real time    0.0002
    CHARGE:  cpu time    0.1877: real time    0.1881
    MIXING:  cpu time    0.0660: real time    0.0662
    --------------------------------------------
      LOOP:  cpu time    3.5570: real time    3.5654

 eigenvalue-minimisations  :    64
 total energy-change (2. order) :-0.1193370E-01  (-0.1424446E-01)
 number of electron       7.9999998 magnetization 
 augmentation part        0.1864304 magnetization 

 Broyden mixing:
  rms(total) = 0.97966E-01    rms(broyden)= 0.97944E-01
  rms(prec ) = 0.11938E+00
  weight for this iteration     100.00

 eigenvalues of (default mixing * dielectric matrix)
  average eigenvalue GAMMA=   2.2476
  8.5542  5.5389  4.5309  3.3504  2.4944  2.4944  2.2782  2.0910  1.5669  1.2120
  1.2120  0.6816  0.6816  1.1185  1.1185  0.9892  0.9892  0.9016  0.9016

 Free energy of the ion-electron system (eV)
  ---------------------------------------------------
  alpha Z        PSCENC =         0.24455017
  Ewald energy   TEWEN  =       130.60231346
  -Hartree energ DENC   =      -287.14877484
  -exchange      EXHF   =         0.00000000
  -V(xc)+E(xc)   XCENC  =        24.85871054
  PAW double counting   =       464.68287821     -465.49545287
  entropy T*S    EENTRO =         0.02211975
  eigenvalues    EBANDS =       -88.84326748
  atomic energy  EATOM  =       197.04175453
  Solvation  Ediel_sol  =         0.00000000
  ---------------------------------------------------
  free energy    TOTEN  =       -24.03516853 eV

  energy without entropy =      -24.05728827  energy(sigma->0) =      -24.04254178


--------------------------------------------------------------------------------------------------------




--------------------------------------- Iteration      2(   3)  ---------------------------------------


    POTLOK:  cpu time    1.4659: real time    1.4693
    SETDIJ:  cpu time    0.0066: real time    0.0066
    EDDIAG:  cpu time    0.4348: real time    0.4358
  RMM-DIIS:  cpu time    1.4697: real time    1.4732
    ORTHCH:  cpu time    0.0114: real time    0.0114
       DOS:  cpu time    0.0002: real time    0.0002
    CHARGE:  cpu time    0.1973: real time    0.1978
    MIXING:  cpu time    0.0647: real time    0.0648
    --------------------------------------------
      LOOP:  cpu time    3.6505: real time    3.6592

 eigenvalue-minimisations  :    64
 total energy-change (2. order) : 0.1393574E-01  (-0.1031097E-02)
 number of electron       7.9999998 magnetization 
 augmentation part        0.1865829 magnetization 

 Broyden mixing:
  rms(total) = 0.72928E-01    rms(broyden)= 0.72919E-01
  rms(prec ) = 0.92584E-01
  weight for this iteration     100.00

 eigenvalues of (default mixing * dielectric matrix)
  average eigenvalue GAMMA=   2.2129
  8.5560  5.5406  4.5213  3.3408  2.4615  2.4615  2.4104  2.4104  1.4729  1.4729
  1.2119  1.2119  0.6816  0.6816  1.0821  1.0254  0.9577  0.9577  0.8787  0.9212

 Free energy of the ion-electron system (eV)
  ---------------------------------------------------
  alpha Z        PSCENC =         0.24455017
[...]
  rms(prec ) = 0.40615E-03
  weight for this iteration     100.00

 eigenvalues of (default mixing * dielectric matrix)
  average eigenvalue GAMMA=   2.3866
  5.8903  4.6783  4.1369  4.1369  0.5956  1.1307  1.1307  0.8183  0.8183  0.9419
  0.9419  1.2159  1.2159  1.4663  2.3155  2.3155  3.4398  1.8071  1.8071  3.3561
  1.6923  1.8857  1.8857  3.1423  2.8560  2.8560  3.0289  2.9833  2.9833  2.4177
  2.4177  2.1006  2.3357  2.3357  2.5735  2.5735  2.2821  2.2821  2.8676  2.7502
  2.7502  2.5314  2.5314  2.4612  2.5186  2.5818

 Free energy of the ion-electron system (eV)
  ---------------------------------------------------
  alpha Z        PSCENC =         0.24455017
  Ewald energy   TEWEN  =       126.57053006
  -Hartree energ DENC   =      -282.50832994
  -exchange      EXHF   =         0.00000000
  -V(xc)+E(xc)   XCENC  =        24.65479049
  PAW double counting   =       456.24849771     -457.03094357
  entropy T*S    EENTRO =         0.02560879
  eigenvalues    EBANDS =       -89.21111314
  atomic energy  EATOM  =       197.04175453
  Solvation  Ediel_sol  =         0.00000000
  ---------------------------------------------------
  free energy    TOTEN  =       -23.96465488 eV

  energy without entropy =      -23.99026368  energy(sigma->0) =      -23.97319115


--------------------------------------------------------------------------------------------------------




--------------------------------------- Iteration     10(  11)  ---------------------------------------


    POTLOK:  cpu time    1.8371: real time    1.8420
    SETDIJ:  cpu time    0.0121: real time    0.0121
    EDDIAG:  cpu time    0.4773: real time    0.4785
  RMM-DIIS:  cpu time    1.3709: real time    1.3742
    ORTHCH:  cpu time    0.0113: real time    0.0113
       DOS:  cpu time    0.0002: real time    0.0002
    CHARGE:  cpu time    0.1758: real time    0.1763
    MIXING:  cpu time    0.1506: real time    0.1510
    --------------------------------------------
      LOOP:  cpu time    4.0353: real time    4.0455

 eigenvalue-minimisations  :    60
 total energy-change (2. order) :-0.6555853E-05  (-0.3602117E-06)
 number of electron       7.9999999 magnetization 
 augmentation part        0.1836909 magnetization 

 Broyden mixing:
  rms(total) = 0.27924E-03    rms(broyden)= 0.27891E-03
  rms(prec ) = 0.37202E-03
  weight for this iteration     100.00

 eigenvalues of (default mixing * dielectric matrix)
  average eigenvalue GAMMA=   2.3832
  5.8933  4.7024  4.2111  4.2111  0.5022  1.1234  1.1234  0.6847  0.7813  0.9010
  1.0478  1.0478  1.0218  3.5765  3.5765  1.6337  1.6337  2.1112  2.1112  1.6429
  1.7512  2.5154  2.5154  3.0893  3.0893  3.1165  2.0680  2.0680  2.8262  2.8262
  2.0605  2.0605  2.9200  2.9200  2.4155  2.4155  2.2570  2.2570  2.5355  2.5355
  2.7640  2.7640  2.6407  2.4440  2.5842  2.5166  2.5166

 Free energy of the ion-electron system (eV)
  ---------------------------------------------------
  alpha Z        PSCENC =         0.24455017
  Ewald energy   TEWEN  =       126.57053006
  -Hartree energ DENC   =      -282.49978144
  -exchange      EXHF   =         0.00000000
  -V(xc)+E(xc)   XCENC  =        24.65445936
  PAW double counting   =       456.28612438     -457.06846487
  entropy T*S    EENTRO =         0.02559719
  eigenvalues    EBANDS =       -89.21943082
  atomic energy  EATOM  =       197.04175453
  Solvation  Ediel_sol  =         0.00000000
  ---------------------------------------------------
  free energy    TOTEN  =       -23.96466144 eV

  energy without entropy =      -23.99025863  energy(sigma->0) =      -23.97319384


--------------------------------------------------------------------------------------------------------




--------------------------------------- Iteration     10(  12)  ---------------------------------------


    POTLOK:  cpu time    1.9763: real time    2.0073
    SETDIJ:  cpu time    0.0064: real time    0.0064
    EDDIAG:  cpu time    0.4529: real time    0.4540
  RMM-DIIS:  cpu time    1.1762: real time    1.1790
    ORTHCH:  cpu time    0.0113: real time    0.0113
       DOS:  cpu time    0.0002: real time    0.0002
    CHARGE:  cpu time    0.2271: real time    0.2277
    MIXING:  cpu time    0.1681: real time    0.1685
    --------------------------------------------
      LOOP:  cpu time    4.0186: real time    4.0545

 eigenvalue-minimisations  :    48
 total energy-change (2. order) :-0.2942535E-05  (-0.4972925E-07)
 number of electron       7.9999999 magnetization 
 augmentation part        0.1836886 magnetization 

 Broyden mixing:
  rms(total) = 0.11658E-03    rms(broyden)= 0.11651E-03
  rms(prec ) = 0.15309E-03
  weight for this iteration     100.00

 eigenvalues of (default mixing * dielectric matrix)
  average eigenvalue GAMMA=   2.3778
  5.8922  4.8101  4.4881  4.1974  0.4881  3.8278  0.7215  0.7215  1.2844  1.2844
  0.8966  0.9555  0.9555  1.0649  1.0649  1.2957  2.1446  2.1446  3.3334  3.1396
  3.1396  1.7642  1.7642  3.0948  3.0948  3.0459  1.8886  2.3802  2.3802  2.9066
  2.7612  2.7612  2.0945  2.0945  2.1501  2.1501  2.2176  2.2176  2.4369  2.4369
  2.5362  2.5362  2.7448  2.6813  2.6146  2.5222  2.5222  2.4879

 Free energy of the ion-electron system (eV)
  ---------------------------------------------------
  alpha Z        PSCENC =         0.24455017
  Ewald energy   TEWEN  =       126.57053006
  -Hartree energ DENC   =      -282.50382372
  -exchange      EXHF   =         0.00000000
  -V(xc)+E(xc)   XCENC  =        24.65460663
  PAW double counting   =       456.28018407     -457.06258328
  entropy T*S    EENTRO =         0.02560952
  eigenvalues    EBANDS =       -89.21549238
  atomic energy  EATOM  =       197.04175453
  Solvation  Ediel_sol  =         0.00000000
  ---------------------------------------------------
  free energy    TOTEN  =       -23.96466438 eV

  energy without entropy =      -23.99027390  energy(sigma->0) =      -23.97320089


--------------------------------------------------------------------------------------------------------




--------------------------------------- Iteration     10(  13)  ---------------------------------------


    POTLOK:  cpu time    1.8578: real time    1.8623
    SETDIJ:  cpu time    0.0065: real time    0.0065
    EDDIAG:  cpu time    0.4712: real time    0.4723
  RMM-DIIS:  cpu time    1.0968: real time    1.0994
    ORTHCH:  cpu time    0.0111: real time    0.0112
       DOS:  cpu time    0.0002: real time    0.0002
    CHARGE:  cpu time    0.1638: real time    0.1642
    MIXING:  cpu time    0.2133: real time    0.2138
    --------------------------------------------
      LOOP:  cpu time    3.8207: real time    3.8298

 eigenvalue-minimisations  :    48
 total energy-change (2. order) :-0.1268437E-05  (-0.1257345E-06)
 number of electron       7.9999999 magnetization 
 augmentation part        0.1836823 magnetization 

 Broyden mixing:
  rms(total) = 0.16748E-03    rms(broyden)= 0.16736E-03
  rms(prec ) = 0.22159E-03
  weight for this iteration     100.00

 eigenvalues of (default mixing * dielectric matrix)
  average eigenvalue GAMMA=   2.3760
  5.9648  4.8177  4.5678  4.3597  0.6026  0.6026  0.6917  0.8206  0.8933  0.8933
  1.2835  1.2835  1.0909  1.0909  1.2585  3.6712  2.0838  2.0838  3.5339  1.8222
  1.8222  3.1596  3.1596  1.8827  1.8827  3.1618  3.0747  3.0747  1.8776  2.3448
  2.3448  2.1009  2.1009  2.4654  2.4654  2.2540  2.2540  2.8647  2.7476  2.7476
  2.7976  2.5345  2.5345  2.3739  2.6732  2.6274  2.6274  2.5273  2.5273

 Free energy of the ion-electron system (eV)
  ---------------------------------------------------
  alpha Z        PSCENC =         0.24455017
  Ewald energy   TEWEN  =       126.57053006
  -Hartree energ DENC   =      -282.50934489
  -exchange      EXHF   =         0.00000000
  -V(xc)+E(xc)   XCENC  =        24.65483293
  PAW double counting   =       456.25839680     -457.04086340
  entropy T*S    EENTRO =         0.02560660
  eigenvalues    EBANDS =       -89.21012846
  atomic energy  EATOM  =       197.04175453
  Solvation  Ediel_sol  =         0.00000000
  ---------------------------------------------------
  free energy    TOTEN  =       -23.96466565 eV

  energy without entropy =      -23.99027225  energy(sigma->0) =      -23.97320118


--------------------------------------------------------------------------------------------------------




--------------------------------------- Iteration     10(  14)  ---------------------------------------


    POTLOK:  cpu time    1.8386: real time    1.8430
    SETDIJ:  cpu time    0.0064: real time    0.0064
    EDDIAG:  cpu time    0.4319: real time    0.4329
  RMM-DIIS:  cpu time    1.2822: real time    1.3427
    ORTHCH:  cpu time    0.0117: real time    0.0117
       DOS:  cpu time    0.0002: real time    0.0002
    --------------------------------------------
      LOOP:  cpu time    3.5709: real time    3.6368

 eigenvalue-minimisations  :    48
 total energy-change (2. order) :-0.5536922E-06  (-0.1324219E-07)
 number of electron       7.9999999 magnetization 
 augmentation part        0.1836823 magnetization 

 Free energy of the ion-electron system (eV)
  ---------------------------------------------------
  alpha Z        PSCENC =         0.24455017
  Ewald energy   TEWEN  =       126.57053006
  -Hartree energ DENC   =      -282.50688081
  -exchange      EXHF   =         0.00000000
  -V(xc)+E(xc)   XCENC  =        24.65471665
  PAW double counting   =       456.26227823     -457.04471801
  entropy T*S    EENTRO =         0.02560791
  eigenvalues    EBANDS =       -89.21250495
  atomic energy  EATOM  =       197.04175453
  Solvation  Ediel_sol  =         0.00000000
  ---------------------------------------------------
  free energy    TOTEN  =       -23.96466620 eV

  energy without entropy =      -23.99027412  energy(sigma->0) =      -23.97320217


--------------------------------------------------------------------------------------------------------




 average (electrostatic) potential at core
  the test charge radii are     0.5201  0.6991
  (the norm of the test charge is              1.0000)
       1 -41.7739       2 -40.9583       3 -41.7589       4 -41.3377       5 -58.0200



 E-fermi :  -8.8957     XC(G=0):  -0.7171     alpha+bet : -0.2127


 k-point     1 :       0.2500    0.2500    0.2500
  band No.  band energies     occupation 
      1     -16.8416      2.00000
      2      -9.5981      2.00001
      3      -9.1245      2.06869
      4      -9.0390      1.93108
      5      -0.3314      0.00000
      6       0.5567      0.00000
      7       0.6770      0.00000
      8       0.7115      0.00000

 k-point     2 :      -0.2500    0.2500    0.2500
  band No.  band energies     occupation 
      1     -16.8416      2.00000
      2      -9.5980      2.00001
      3      -9.1244      2.06866
      4      -9.0391      1.93145
      5      -0.3290      0.00000
      6       0.5532      0.00000
      7       0.6605      0.00000
      8       0.7102      0.00000

 k-point     3 :       0.2500   -0.2500    0.2500
  band No.  band energies     occupation 
      1     -16.8416      2.00000
      2      -9.5981      2.00001
      3      -9.1246      2.06870
      4      -9.0390      1.93116
      5      -0.3247      0.00000
      6       0.5322      0.00000
      7       0.6622      0.00000
      8       0.7033      0.00000

 k-point     4 :      -0.2500   -0.2500    0.2500
  band No.  band energies     occupation 
      1     -16.8416      2.00000
      2      -9.5982      2.00001
      3      -9.1245      2.06869
      4      -9.0392      1.93153
      5      -0.3282      0.00000
      6       0.5498      0.00000
      7       0.6725      0.00000
      8       0.6967      0.00000


--------------------------------------------------------------------------------------------------------


 soft charge-density along one line, spin component           1
         0         1         2         3         4         5         6         7         8         9
 total charge-density along one line

 pseudopotential strength for first ion, spin component:           1
 -2.344  -4.039  -0.001  -0.001   0.001
 -4.039  -6.876  -0.004  -0.004   0.002
 -0.001  -0.004  -0.336   0.002  -0.001
 -0.001  -0.004   0.002  -0.335  -0.001
  0.001   0.002  -0.001  -0.001  -0.337
 total augmentation occupancy for first ion, spin component:           1
  3.400  -0.567   0.306   0.262  -0.151
 -0.567   0.111  -0.050  -0.047   0.025
  0.306  -0.050   0.035   0.019  -0.012
  0.262  -0.047   0.019   0.024  -0.009
 -0.151   0.025  -0.012  -0.009   0.017


------------------------ aborting loop because EDIFF is reached ----------------------------------------


    CHARGE:  cpu time    0.1665: real time    0.1669
    FORLOC:  cpu time    0.1130: real time    0.1133
    FORNL :  cpu time    0.6510: real time    0.6525
    STRESS:  cpu time    2.1550: real time    2.1601
    FORCOR:  cpu time    1.9424: real time    1.9470
    FORHAR:  cpu time    0.5803: real time    0.5817
    MIXING:  cpu time    0.1748: real time    0.1752
    OFIELD:  cpu time    0.0000: real time    0.0000

  FORCE on cell =-STRESS in cart. coord.  units (eV):
  Direction    XX          YY          ZZ          XY          YZ          ZX
  --------------------------------------------------------------------------------------
  Alpha Z     0.24455     0.24455     0.24455
  Ewald      43.94739    44.97381    37.64931    -0.99531     5.04696     2.28120
  Hartree    97.54555    94.52353    90.43445    -0.77920     0.94714     1.31173
  E(xc)     -27.10912   -27.11645   -27.12453    -0.01444     0.01380     0.02105
  Local    -201.43565  -197.31792  -186.85539     2.21516    -4.77179    -3.90554
  n-local   -15.97117   -15.88127   -15.87814     0.05090     0.01150     0.04151
  augment     0.13332     0.11480     0.12203    -0.00473    -0.01007     0.00473
  Kinetic   100.81694   100.41842   100.46958     0.02648    -0.48106    -0.10175
  Fock        0.00000     0.00000     0.00000     0.00000     0.00000     0.00000
  -------------------------------------------------------------------------------------
  Total      -1.82820    -0.04051    -0.93814     0.49887     0.75648    -0.34709
  in kB      -2.95690    -0.06552    -1.51733     0.80686     1.22352    -0.56137
  external pressure =       -1.51 kB  Pullay stress =        0.00 kB

  kinetic pressure (ideal gas correction) =      0.04 kB
  total pressure  =     -1.48 kB
  Total+kin.    -2.892      -0.041      -1.498       0.773       1.230      -0.557

 VOLUME and BASIS-vectors are now :
 -----------------------------------------------------------------------------
  energy-cutoff  :      400.00
  volume of cell :      990.60
      direct lattice vectors                 reciprocal lattice vectors
     9.756834819  0.000000000  0.000000000     0.102492255 -0.001123218 -0.000070716
     0.108848087  9.932256654  0.000000000     0.000000000  0.100682054 -0.001660447
     0.008900393  0.168582779 10.222105236     0.000000000  0.000000000  0.097827207

  length of vectors
     9.756834819  9.932853071 10.223499147     0.102498434  0.100695745  0.097827207


 FORCES acting on ions
    electron-ion (+dipol)            ewald-force                    non-local-force                 convergence-correction
 -----------------------------------------------------------------------------------------------
   -.171E+02 0.327E+02 0.390E+02   0.193E+02 -.367E+02 -.438E+02   -.183E+01 0.308E+01 0.446E+01   -.719E-04 0.280E-03 0.222E-03
   0.493E+02 -.109E+02 0.648E+01   -.528E+02 0.117E+02 -.701E+01   0.518E+01 -.757E+00 0.297E+00   0.365E-03 -.862E-04 0.681E-04
   -.277E+02 -.455E+02 -.284E+01   0.309E+02 0.508E+02 0.311E+01   -.347E+01 -.548E+01 -.540E+00   -.171E-03 -.311E-03 -.140E-03
   -.711E+01 0.236E+02 -.451E+02   0.776E+01 -.256E+02 0.488E+02   -.185E+00 0.250E+01 -.479E+01   -.121E-03 0.162E-03 -.355E-03
   0.364E+01 0.387E+00 0.122E+01   -.515E+01 -.335E+00 -.108E+01   -.115E+01 0.498E+00 0.134E+01   0.202E-03 0.378E-03 -.584E-03
 -----------------------------------------------------------------------------------------------
   0.104E+01 0.203E+00 -.129E+01   -.888E-15 0.711E-14 -.711E-14   -.145E+01 -.153E+00 0.773E+00   0.203E-03 0.422E-03 -.788E-03


 POSITION                                       TOTAL-FORCE (eV/Angst)
 -----------------------------------------------------------------------------------
      5.31296      4.05912      3.76706         0.309094     -0.918170     -0.382344
      3.86567      4.96241      4.40082         1.680948      0.029673     -0.231317
      5.52974      5.63818      4.60913        -0.215904     -0.111474     -0.267436
      5.13085      4.20178      5.53337         0.472897      0.500893     -1.114425
      4.96747      4.71638      4.54266        -2.658638      0.550072      1.476217
 -----------------------------------------------------------------------------------
    total drift:                               -0.411604      0.050994     -0.519305


--------------------------------------------------------------------------------------------------------



  FREE ENERGIE OF THE ION-ELECTRON SYSTEM (eV)
  ---------------------------------------------------
  free  energy   TOTEN  =       -23.96466620 eV

  energy  without entropy=      -23.99027412  energy(sigma->0) =      -23.97320217

 d Force = 0.1291909E-01[-0.177E-01, 0.435E-01]  d Energy = 0.2417596E-01-0.113E-01
 d Force =-0.1034611E+01[-0.101E+01,-0.106E+01]  d Ewald  =-0.1035444E+01 0.833E-03


--------------------------------------------------------------------------------------------------------


    POTLOK:  cpu time    1.9271: real time    1.9737


--------------------------------------------------------------------------------------------------------


           RANDOM_SEED =         578492891               30                0
   IONSTEP:  cpu time    0.0001: real time    0.0001

  ENERGY OF THE ELECTRON-ION-THERMOSTAT SYSTEM (eV)
  ---------------------------------------------------
% ion-electron   TOTEN  =       -23.964666  see above
  kinetic energy EKIN   =         0.048941
  kin. lattice  EKIN_LAT=         0.000000  (temperature   94.66 K)
  nose potential ES     =         0.031782
  nose kinetic   EPS    =         0.042890
  ---------------------------------------------------
  total energy   ETOTAL =       -23.841053 eV

  maximum distance moved by ions :      0.57E-02


 mean value of Nose-termostat <S>:     2.143 mean value of <T> :    94.656
 mean temperature <T/S>/<1/S>  :    94.656

    WAVPRE:  cpu time    0.5367: real time    0.5460
    FEWALD:  cpu time    0.0003: real time    0.0003
    ORTHCH:  cpu time    0.2071: real time    0.2076
 Prediction of Wavefunctions ALPHA= 1.076 BETA=-0.949
    POTLOK:  cpu time    1.8369: real time    1.8420
    EDDIAG:  cpu time    0.4500: real time    0.4511
     LOOP+:  cpu time   69.5972: real time   69.9588
    4ORBIT:  cpu time    0.0000: real time    0.0000

 total amount of memory used by VASP MPI-rank0   299000. kBytes
=======================================================================

   base      :      30000. kBytes
   nonlr-proj:        154. kBytes
   fftplans  :      86584. kBytes
   grid      :     154542. kBytes
   one-center:         15. kBytes
   wavefun   :      27705. kBytes

  
  
 General timing and accounting informations for this job:
 ========================================================
  
                  Total CPU time used (sec):      742.417
                            User time (sec):      728.321
                          System time (sec):       14.096
                         Elapsed time (sec):      746.547
  
                   Maximum memory used (kb):      463276.
                   Average memory used (kb):           0.
  
                          Minor page faults:      2136709
                          Major page faults:            0
                 Voluntary context switches:          407
