 running on    1 total cores
 distrk:  each k-point on    1 cores,    1 groups
 distr:  one band on    1 cores,    1 groups
 using from now: INCAR     
 vasp.5.4.4.18Apr17-6-g9f103f2a35 (build Jul 12 2018 13:43:46) complex           
 POSCAR found type information on POSCAR  H  C 
 POSCAR found :  2 types and       5 ions
 scaLAPACK will be used

 ----------------------------------------------------------------------------- 
|                                                                             |
|  ADVICE TO THIS USER RUNNING 'VASP/VAMP'   (HEAR YOUR MASTER'S VOICE ...):  |
|                                                                             |
|      You have a (more or less) 'small supercell' and for smaller cells      |
|      it is recommended  to use the reciprocal-space projection scheme!      |
|      The real space optimization is not  efficient for small cells and it   |
|      is also less accurate ...                                              |
|      Therefore set LREAL=.FALSE. in the  INCAR file                         |
|                                                                             |
 ----------------------------------------------------------------------------- 


 ----------------------------------------------------------------------------- 
|                                                                             |
|           W    W    AA    RRRRR   N    N  II  N    N   GGGG   !!!           |
|           W    W   A  A   R    R  NN   N  II  NN   N  G    G  !!!           |
|           W    W  A    A  R    R  N N  N  II  N N  N  G       !!!           |
|           W WW W  AAAAAA  RRRRR   N  N N  II  N  N N  G  GGG   !            |
|           WW  WW  A    A  R   R   N   NN  II  N   NN  G    G                |
|           W    W  A    A  R    R  N    N  II  N    N   GGGG   !!!           |
|                                                                             |
|     The real-space-projection scheme for the treatment of the nonlocal      |
|     pseudopotentials has been switched on -- but on file POTCAR I have      |
|     not found any entries signalling me that you have ever performed a      |
|     real-space optimization of all nonlocal projectors! BE WARNED that      |
|     a calculation using the real-space-projection scheme together with      |
|     nonlocal projectors which were not real-space-optimized (according      |
|     to the plane-wave-cutoff used in this calculation) might give more      |
|     or less inaccurate results                                              |
|     I hope you know what you are doing                                      |
|                                                                             |
 ----------------------------------------------------------------------------- 

 LDA part: xc-table for Pade appr. of Perdew
 generate k-points for:    2    2    2
 POSCAR, INCAR and KPOINTS ok, starting setup
 FFT: planning ...
 WAVECAR not read
 prediction of wavefunctions initialized - no I/O
 entering main loop
       N       E                     dE             d eps       ncg     rms          rms(c)
DAV:   1     0.233594913440E+02    0.23359E+02   -0.18807E+03    88   0.406E+02
DAV:   2    -0.214421567852E+02   -0.44802E+02   -0.42010E+02    80   0.107E+02
DAV:   3    -0.273349012680E+02   -0.58927E+01   -0.59023E+01    64   0.486E+01
DAV:   4    -0.276010580860E+02   -0.26616E+00   -0.26136E+00   112   0.115E+01
DAV:   5    -0.276056847071E+02   -0.46266E-02   -0.46218E-02    96   0.848E-01    0.879E+00
RMM:   6    -0.246664106782E+02    0.29393E+01   -0.54853E+00    64   0.143E+01    0.432E+00
RMM:   7    -0.241683066053E+02    0.49810E+00   -0.12509E+00    64   0.647E+00    0.233E+00
RMM:   8    -0.240409731355E+02    0.12733E+00   -0.12441E-01    64   0.240E+00    0.875E-01
RMM:   9    -0.240150663255E+02    0.25907E-01   -0.27621E-02    64   0.123E+00    0.326E-01
RMM:  10    -0.240129375054E+02    0.21288E-02   -0.43781E-03    64   0.396E-01    0.188E-01
RMM:  11    -0.240097327740E+02    0.32047E-02   -0.90650E-03    64   0.516E-01    0.176E-01
RMM:  12    -0.240075951818E+02    0.21376E-02   -0.10323E-03    64   0.224E-01    0.123E-01
RMM:  13    -0.240145362915E+02   -0.69411E-02   -0.59413E-03    64   0.487E-01    0.166E-01
RMM:  14    -0.240171498423E+02   -0.26136E-02   -0.20146E-03    64   0.269E-01    0.482E-02
RMM:  15    -0.240190051339E+02   -0.18553E-02   -0.63028E-04    64   0.163E-01    0.551E-02
RMM:  16    -0.240198878479E+02   -0.88271E-03   -0.31974E-04    64   0.104E-01    0.162E-02
RMM:  17    -0.240203310281E+02   -0.44318E-03   -0.41455E-05    64   0.384E-02    0.100E-02
RMM:  18    -0.240204920300E+02   -0.16100E-03   -0.69920E-05    64   0.484E-02    0.119E-02
RMM:  19    -0.240205176048E+02   -0.25575E-04   -0.16019E-05    64   0.234E-02    0.220E-03
RMM:  20    -0.240205288926E+02   -0.11288E-04   -0.16190E-06    48   0.101E-02    0.227E-03
RMM:  21    -0.240205313477E+02   -0.24551E-05   -0.26956E-07    48   0.404E-03    0.795E-04
RMM:  22    -0.240205324492E+02   -0.11015E-05   -0.89210E-08    48   0.188E-03    0.405E-04
RMM:  23    -0.240205329807E+02   -0.53157E-06    0.00000E+00    32   0.111E-03
    1 T=    55. E= -.23992037E+02 F= -.24020533E+02 E0= -.24032679E+02  EK= 0.28495E-01 SP= 0.00E+00 SK= 0.83E-06
 bond charge predicted
       N       E                     dE             d eps       ncg     rms          rms(c)
DAV:   1    -0.240232348331E+02   -0.27024E-02   -0.19484E+00    64   0.131E+01    0.651E-01
RMM:   2    -0.240351685284E+02   -0.11934E-01   -0.14244E-01    64   0.251E+00    0.980E-01
RMM:   3    -0.240212327846E+02    0.13936E-01   -0.10311E-02    64   0.731E-01    0.729E-01
RMM:   4    -0.240102027930E+02    0.11030E-01   -0.54380E-02    64   0.142E+00    0.209E-01
RMM:   5    -0.240131482247E+02   -0.29454E-02   -0.10426E-02    64   0.654E-01    0.205E-01
RMM:   6    -0.240141421388E+02   -0.99391E-03   -0.23784E-03    64   0.328E-01    0.175E-01
RMM:   7    -0.240137965403E+02    0.34560E-03   -0.15701E-03    64   0.245E-01    0.904E-02
RMM:   8    -0.240141635434E+02   -0.36700E-03   -0.12204E-03    64   0.205E-01    0.643E-02
RMM:   9    -0.240143249222E+02   -0.16138E-03   -0.17387E-04    64   0.933E-02    0.584E-02
RMM:  10    -0.240143238448E+02    0.10775E-05   -0.33639E-04    64   0.105E-01    0.192E-02
RMM:  11    -0.240143576215E+02   -0.33777E-04   -0.17875E-05    64   0.301E-02    0.142E-02
RMM:  12    -0.240143758048E+02   -0.18183E-04   -0.17931E-05    64   0.247E-02    0.905E-03
RMM:  13    -0.240143930101E+02   -0.17205E-04   -0.74974E-06    64   0.172E-02    0.636E-03
RMM:  14    -0.240144012435E+02   -0.82333E-05   -0.47243E-06    64   0.133E-02    0.222E-03
RMM:  15    -0.240144081518E+02   -0.69084E-05   -0.98574E-07    48   0.708E-03    0.177E-03
RMM:  16    -0.240144092533E+02   -0.11015E-05   -0.25056E-07    48   0.411E-03    0.144E-03
RMM:  17    -0.240144101627E+02   -0.90936E-06   -0.99727E-08    44   0.229E-03
    2 T=    76. E= -.23975093E+02 F= -.24014410E+02 E0= -.24023952E+02  EK= 0.39211E-01 SP= 0.65E-04 SK= 0.42E-04
 bond charge predicted
 prediction of wavefunctions
       N       E                     dE             d eps       ncg     rms          rms(c)
DAV:   1    -0.240159886036E+02   -0.15794E-02   -0.38195E+00    64   0.186E+01    0.863E-01
RMM:   2    -0.240090328317E+02    0.69558E-02   -0.21851E-01    64   0.315E+00    0.592E-01
RMM:   3    -0.240121539965E+02   -0.31212E-02   -0.27005E-02    64   0.120E+00    0.664E-01
RMM:   4    -0.240000305938E+02    0.12123E-01   -0.60534E-02    64   0.141E+00    0.265E-01
RMM:   5    -0.239998912810E+02    0.13931E-03   -0.24940E-03    64   0.356E-01    0.179E-01
RMM:   6    -0.239998440285E+02    0.47252E-04   -0.27596E-04    64   0.112E-01    0.156E-01
RMM:   7    -0.239994844237E+02    0.35960E-03   -0.59706E-04    64   0.149E-01    0.956E-02
RMM:   8    -0.239993814316E+02    0.10299E-03   -0.17981E-04    64   0.845E-02    0.757E-02
RMM:   9    -0.239992742112E+02    0.10722E-03   -0.13596E-04    64   0.735E-02    0.433E-02
RMM:  10    -0.239992553524E+02    0.18859E-04   -0.76802E-05    64   0.559E-02    0.221E-02
RMM:  11    -0.239992639566E+02   -0.86042E-05   -0.67138E-05    64   0.526E-02    0.684E-03
RMM:  12    -0.239992706816E+02   -0.67249E-05   -0.88921E-06    64   0.195E-02    0.240E-03
RMM:  13    -0.239992772096E+02   -0.65280E-05   -0.51679E-06    60   0.139E-02    0.415E-03
RMM:  14    -0.239992788945E+02   -0.16849E-05   -0.98023E-07    48   0.638E-03    0.221E-03
RMM:  15    -0.239992803777E+02   -0.14832E-05   -0.82377E-07    48   0.641E-03    0.173E-03
RMM:  16    -0.239992808482E+02   -0.47048E-06   -0.16739E-07    48   0.306E-03
    3 T=   133. E= -.23929315E+02 F= -.23999281E+02 E0= -.24007923E+02  EK= 0.68826E-01 SP= 0.46E-03 SK= 0.68E-03
 bond charge predicted
 prediction of wavefunctions
       N       E                     dE             d eps       ncg     rms          rms(c)
DAV:   1    -0.239078346228E+02    0.91446E-01   -0.19319E+00    64   0.139E+01    0.856E-01
RMM:   2    -0.240454822574E+02   -0.13765E+00   -0.85692E-01    64   0.551E+00    0.204E+00
RMM:   3    -0.239478954153E+02    0.97587E-01   -0.88554E-01    64   0.526E+00    0.113E+00
RMM:   4    -0.239339629912E+02    0.13932E-01   -0.53676E-02    64   0.159E+00    0.979E-01
RMM:   5    -0.239163701748E+02    0.17593E-01   -0.25480E-02    64   0.955E-01    0.687E-01
RMM:   6    -0.239135250271E+02    0.28451E-02   -0.16835E-03    64   0.313E-01    0.621E-01
RMM:   7    -0.239052467090E+02    0.82783E-02   -0.81972E-03    64   0.564E-01    0.405E-01
RMM:   8    -0.239033043872E+02    0.19423E-02   -0.16263E-03    64   0.263E-01    0.332E-01
RMM:   9    -0.239025395981E+02    0.76479E-03   -0.43546E-04    64   0.136E-01    0.297E-01
RMM:  10    -0.239008006986E+02    0.17389E-02   -0.13749E-03    64   0.235E-01    0.202E-01
RMM:  11    -0.239001763175E+02    0.62438E-03   -0.77366E-04    64   0.176E-01    0.154E-01
RMM:  12    -0.238995804348E+02    0.59588E-03   -0.92086E-04    64   0.195E-01    0.930E-02
RMM:  13    -0.238992829104E+02    0.29752E-03   -0.89603E-04    64   0.191E-01    0.310E-02
RMM:  14    -0.238992915949E+02   -0.86845E-05   -0.17492E-04    64   0.894E-02    0.147E-02
RMM:  15    -0.238992995390E+02   -0.79441E-05   -0.29566E-05    64   0.381E-02    0.863E-03
RMM:  16    -0.238993061357E+02   -0.65968E-05   -0.89647E-06    64   0.198E-02    0.745E-03
RMM:  17    -0.238993081101E+02   -0.19744E-05   -0.63150E-07    48   0.679E-03    0.657E-03
RMM:  18    -0.238993075798E+02    0.53026E-06   -0.15185E-06    48   0.851E-03
    4 T=   105. E= -.23840802E+02 F= -.23899308E+02 E0= -.23904693E+02  EK= 0.54032E-01 SP= 0.19E-02 SK= 0.26E-02
 bond charge predicted
 prediction of wavefunctions
       N       E                     dE             d eps       ncg     rms          rms(c)
DAV:   1    -0.239877710833E+02   -0.88463E-01   -0.25381E+00    64   0.154E+01    0.689E-01
RMM:   2    -0.239902075514E+02   -0.24365E-02   -0.72434E-02    64   0.223E+00    0.570E-01
RMM:   3    -0.240871671011E+02   -0.96960E-01   -0.44112E-01    64   0.410E+00    0.159E+00
RMM:   4    -0.239866828750E+02    0.10048E+00   -0.23923E-01    64   0.310E+00    0.391E-01
RMM:   5    -0.239864373294E+02    0.24555E-03   -0.89745E-03    64   0.675E-01    0.322E-01
RMM:   6    -0.239853666270E+02    0.10707E-02   -0.84537E-03    64   0.559E-01    0.253E-01
RMM:   7    -0.239847655541E+02    0.60107E-03   -0.68211E-04    64   0.182E-01    0.103E-01
RMM:   8    -0.239848702522E+02   -0.10470E-03   -0.10970E-03    64   0.210E-01    0.541E-02
RMM:   9    -0.239850459593E+02   -0.17571E-03   -0.24552E-04    64   0.103E-01    0.113E-01
RMM:  10    -0.239849217440E+02    0.12422E-03   -0.19269E-04    64   0.817E-02    0.236E-02
RMM:  11    -0.239849632169E+02   -0.41473E-04   -0.93700E-05    64   0.603E-02    0.153E-02
RMM:  12    -0.239849876798E+02   -0.24463E-04   -0.34544E-05    64   0.381E-02    0.138E-02
RMM:  13    -0.239849956071E+02   -0.79273E-05   -0.17116E-05    64   0.243E-02    0.329E-03
RMM:  14    -0.239850074453E+02   -0.11838E-04   -0.10021E-05    64   0.196E-02    0.661E-03
RMM:  15    -0.239850127295E+02   -0.52842E-05   -0.75770E-06    64   0.162E-02    0.312E-03
RMM:  16    -0.239850153806E+02   -0.26511E-05   -0.78040E-07    48   0.602E-03    0.455E-04
RMM:  17    -0.239850164687E+02   -0.10881E-05   -0.46127E-07    48   0.477E-03    0.124E-03
RMM:  18    -0.239850170108E+02   -0.54210E-06   -0.12912E-07    48   0.275E-03
    5 T=   162. E= -.23890505E+02 F= -.23985017E+02 E0= -.23994220E+02  EK= 0.83886E-01 SP= 0.41E-02 SK= 0.66E-02
 bond charge predicted
 prediction of wavefunctions
       N       E                     dE             d eps       ncg     rms          rms(c)
DAV:   1    -0.239974238224E+02   -0.12407E-01   -0.19342E+00    64   0.129E+01    0.766E-01
RMM:   2    -0.239959574593E+02    0.14664E-02   -0.12231E-01    64   0.256E+00    0.760E-01
RMM:   3    -0.240104893839E+02   -0.14532E-01   -0.14333E-01    64   0.234E+00    0.686E-01
RMM:   4    -0.240048362724E+02    0.56531E-02   -0.11633E-01    64   0.200E+00    0.588E-01
RMM:   5    -0.239942993947E+02    0.10537E-01   -0.98840E-03    64   0.638E-01    0.449E-01
RMM:   6    -0.239877431140E+02    0.65563E-02   -0.17867E-02    64   0.802E-01    0.306E-01
RMM:   7    -0.239867239292E+02    0.10192E-02   -0.11117E-03    64   0.239E-01    0.218E-01
RMM:   8    -0.239862413486E+02    0.48258E-03   -0.97102E-04    64   0.210E-01    0.975E-02
RMM:   9    -0.239864693121E+02   -0.22796E-03   -0.59766E-05    64   0.594E-02    0.106E-01
RMM:  10    -0.239863206546E+02    0.14866E-03   -0.10338E-03    64   0.200E-01    0.800E-02
RMM:  11    -0.239862667175E+02    0.53937E-04   -0.44284E-05    64   0.496E-02    0.409E-02
RMM:  12    -0.239862724414E+02   -0.57239E-05   -0.27798E-05    64   0.344E-02    0.297E-02
RMM:  13    -0.239862911052E+02   -0.18664E-04   -0.31538E-05    64   0.361E-02    0.968E-03
RMM:  14    -0.239863002236E+02   -0.91184E-05   -0.88487E-06    64   0.185E-02    0.268E-03
RMM:  15    -0.239863057805E+02   -0.55569E-05   -0.42776E-06    60   0.136E-02    0.617E-03
RMM:  16    -0.239863064609E+02   -0.68042E-06   -0.14622E-06    48   0.789E-03
    6 T=   166. E= -.23877833E+02 F= -.23986306E+02 E0= -.23994593E+02  EK= 0.85870E-01 SP= 0.76E-02 SK= 0.15E-01
 bond charge predicted
 prediction of wavefunctions
       N       E                     dE             d eps       ncg     rms          rms(c)
DAV:   1    -0.239144681736E+02    0.71838E-01   -0.26334E+00    64   0.163E+01    0.874E-01
RMM:   2    -0.239874445585E+02   -0.72976E-01   -0.18893E-01    64   0.318E+00    0.147E+00
RMM:   3    -0.240014785446E+02   -0.14034E-01   -0.11018E-01    64   0.210E+00    0.155E+00
RMM:   4    -0.239196628566E+02    0.81816E-01   -0.26900E-01    64   0.309E+00    0.650E-01
RMM:   5    -0.239053386630E+02    0.14324E-01   -0.45997E-02    64   0.132E+00    0.254E-01
RMM:   6    -0.239053388345E+02   -0.17149E-06   -0.79974E-03    64   0.583E-01    0.152E-01
RMM:   7    -0.239054140193E+02   -0.75185E-04   -0.21242E-03    64   0.306E-01    0.492E-02
RMM:   8    -0.239062221767E+02   -0.80816E-03   -0.21184E-03    64   0.288E-01    0.980E-02
RMM:   9    -0.239061809180E+02    0.41259E-04   -0.74457E-04    64   0.170E-01    0.297E-02
RMM:  10    -0.239062562690E+02   -0.75351E-04   -0.43685E-05    64   0.501E-02    0.236E-02
RMM:  11    -0.239063049105E+02   -0.48642E-04   -0.89482E-05    64   0.614E-02    0.950E-03
RMM:  12    -0.239063359355E+02   -0.31025E-04   -0.30168E-05    64   0.349E-02    0.150E-02
RMM:  13    -0.239063478027E+02   -0.11867E-04   -0.72767E-06    64   0.169E-02    0.967E-03
RMM:  14    -0.239063476261E+02    0.17657E-06   -0.85781E-06    64   0.185E-02
    7 T=    87. E= -.23826524E+02 F= -.23906348E+02 E0= -.23910215E+02  EK= 0.45019E-01 SP= 0.13E-01 SK= 0.22E-01
 bond charge predicted
 prediction of wavefunctions
       N       E                     dE             d eps       ncg     rms          rms(c)
DAV:   1    -0.239765466061E+02   -0.70199E-01   -0.13612E+00    64   0.117E+01    0.480E-01
RMM:   2    -0.239888869624E+02   -0.12340E-01   -0.69549E-02    64   0.205E+00    0.607E-01
RMM:   3    -0.239828142338E+02    0.60727E-02   -0.24150E-02    64   0.105E+00    0.424E-01
RMM:   4    -0.239766633165E+02    0.61509E-02   -0.23675E-02    64   0.933E-01    0.120E-01
RMM:   5    -0.239772928624E+02   -0.62955E-03   -0.50865E-03    64   0.451E-01    0.136E-01
RMM:   6    -0.239769919356E+02    0.30093E-03   -0.22278E-03    64   0.281E-01    0.599E-02
RMM:   7    -0.239769834801E+02    0.84555E-05   -0.48815E-04    64   0.146E-01    0.253E-02
RMM:   8    -0.239770183760E+02   -0.34896E-04   -0.79016E-05    64   0.561E-02    0.210E-02
RMM:   9    -0.239770291385E+02   -0.10762E-04   -0.36411E-05    64   0.372E-02    0.833E-03
RMM:  10    -0.239770389190E+02   -0.97806E-05   -0.15776E-05    64   0.256E-02    0.715E-03
RMM:  11    -0.239770443555E+02   -0.54365E-05   -0.74748E-06    64   0.169E-02    0.126E-03
RMM:  12    -0.239770495951E+02   -0.52396E-05   -0.24157E-06    52   0.103E-02    0.327E-03
RMM:  13    -0.239770508432E+02   -0.12480E-05   -0.11801E-06    48   0.727E-03    0.692E-04
RMM:  14    -0.239770519026E+02   -0.10594E-05   -0.59850E-07    48   0.578E-03    0.110E-03
RMM:  15    -0.239770523431E+02   -0.44057E-06   -0.10711E-07    48   0.261E-03
    8 T=   131. E= -.23861774E+02 F= -.23977052E+02 E0= -.23980918E+02  EK= 0.67799E-01 SP= 0.18E-01 SK= 0.29E-01
 bond charge predicted
 prediction of wavefunctions
       N       E                     dE             d eps       ncg     rms          rms(c)
DAV:   1    -0.239416881702E+02    0.35364E-01   -0.13376E+00    64   0.113E+01    0.460E-01
RMM:   2    -0.239535325482E+02   -0.11844E-01   -0.68985E-02    64   0.198E+00    0.713E-01
RMM:   3    -0.239407487386E+02    0.12784E-01   -0.70182E-02    64   0.159E+00    0.221E-01
RMM:   4    -0.239407414028E+02    0.73358E-05   -0.12334E-02    64   0.712E-01    0.169E-01
RMM:   5    -0.239403322563E+02    0.40915E-03   -0.64682E-03    64   0.473E-01    0.569E-02
RMM:   6    -0.239403773369E+02   -0.45081E-04   -0.60484E-04    64   0.166E-01    0.349E-02
RMM:   7    -0.239404283601E+02   -0.51023E-04   -0.13862E-04    64   0.705E-02    0.101E-02
RMM:   8    -0.239404604376E+02   -0.32077E-04   -0.26624E-05    64   0.334E-02    0.954E-03
RMM:   9    -0.239404802541E+02   -0.19817E-04   -0.72486E-06    64   0.171E-02    0.649E-03
RMM:  10    -0.239404843871E+02   -0.41330E-05   -0.14725E-05    64   0.224E-02    0.368E-03
RMM:  11    -0.239404877177E+02   -0.33306E-05   -0.37152E-07    48   0.513E-03    0.279E-03
RMM:  12    -0.239404897121E+02   -0.19945E-05   -0.11912E-06    48   0.685E-03    0.903E-04
RMM:  13    -0.239404902409E+02   -0.52875E-06   -0.17683E-07    48   0.369E-03
    9 T=    87. E= -.23833809E+02 F= -.23940490E+02 E0= -.23944365E+02  EK= 0.45143E-01 SP= 0.25E-01 SK= 0.37E-01
 bond charge predicted
 prediction of wavefunctions
       N       E                     dE             d eps       ncg     rms          rms(c)
DAV:   1    -0.239681891655E+02   -0.27699E-01   -0.52873E-01    64   0.707E+00    0.289E-01
RMM:   2    -0.239704643352E+02   -0.22752E-02   -0.64483E-02    64   0.154E+00    0.512E-01
RMM:   3    -0.239649476934E+02    0.55166E-02   -0.16764E-02    64   0.783E-01    0.326E-01
RMM:   4    -0.239670232690E+02   -0.20756E-02   -0.14714E-02    64   0.734E-01    0.312E-01
RMM:   5    -0.239647058857E+02    0.23174E-02   -0.46619E-03    64   0.439E-01    0.149E-01
RMM:   6    -0.239646272518E+02    0.78634E-04   -0.71021E-04    64   0.185E-01    0.967E-02
RMM:   7    -0.239645218272E+02    0.10542E-03   -0.16454E-03    64   0.243E-01    0.320E-02
RMM:   8    -0.239645795696E+02   -0.57742E-04   -0.64499E-05    64   0.608E-02    0.126E-02
RMM:   9    -0.239646396983E+02   -0.60129E-04   -0.12291E-05    64   0.239E-02    0.640E-03
RMM:  10    -0.239646548826E+02   -0.15184E-04   -0.19188E-06    52   0.982E-03    0.306E-03
RMM:  11    -0.239646614385E+02   -0.65559E-05   -0.36021E-06    60   0.112E-02    0.279E-03
RMM:  12    -0.239646643810E+02   -0.29425E-05   -0.49729E-07    48   0.492E-03    0.117E-03
RMM:  13    -0.239646656494E+02   -0.12684E-05   -0.12573E-06    48   0.713E-03    0.167E-03
RMM:  14    -0.239646662031E+02   -0.55369E-06   -0.13242E-07    48   0.306E-03
   10 T=    95. E= -.23841053E+02 F= -.23964666E+02 E0= -.23973202E+02  EK= 0.48941E-01 SP= 0.32E-01 SK= 0.43E-01
 bond charge predicted
 prediction of wavefunctions
 wavefunctions rotated
