<?xml version="1.0" encoding="ISO-8859-1"?>
<modeling>
 <generator>
  <i name="program" type="string">vasp </i>
  <i name="version" type="string">5.4.4.18Apr17-6-g9f103f2a35  </i>
  <i name="subversion" type="string">(build Jul 12 2018 13:43:46) complex            parallel </i>
  <i name="platform" type="string">LinuxGNU </i>
  <i name="date" type="string">2019 06 22 </i>
  <i name="time" type="string">02:17:32 </i>
 </generator>
 <incar>
  <i type="int" name="ISTART">     0</i>
  <i type="string" name="PREC">a</i>
  <i type="string" name="ALGO">fast</i>
  <i type="int" name="MAXMIX">    50</i>
  <i type="int" name="ICHARG">     2</i>
  <i type="int" name="IBRION">     0</i>
  <i name="EDIFF">      0.00000100</i>
  <i type="int" name="NSW">    10</i>
  <i type="int" name="ISIF">     2</i>
  <i type="int" name="ISYM">     0</i>
  <i type="int" name="NBLOCK">     1</i>
  <i type="int" name="KBLOCK">   100</i>
  <i name="ENCUT">    400.00000000</i>
  <i name="POTIM">      2.00000000</i>
  <i name="TEBEG">     50.00000000</i>
  <i name="TEEND">     50.00000000</i>
  <i name="SMASS">      0.00000000</i>
  <i type="logical" name="LREAL"> T  </i>
  <i type="int" name="ISMEAR">     1</i>
  <i name="SIGMA">      0.20000000</i>
  <i name="KSPACING">      0.50000000</i>
  <i type="logical" name="KGAMMA"> F  </i>
  <i name="PSTRESS">      0.00000000</i>
  <i type="logical" name="LWAVE"> F  </i>
  <i type="logical" name="LCHARG"> F  </i>
  <v type="int" name="KPOINT_BSE">    -1     0     0     0</v>
 </incar>
 <structure name="primitive_cell" >
  <crystal>
   <varray name="basis" >
    <v>       9.75683482       0.00000000       0.00000000 </v>
    <v>       0.10884809       9.93225665       0.00000000 </v>
    <v>       0.00890039       0.16858278      10.22210524 </v>
   </varray>
   <i name="volume">    990.59751364 </i>
   <varray name="rec_basis" >
    <v>       0.10249225      -0.00112322      -0.00007072 </v>
    <v>       0.00000000       0.10068205      -0.00166045 </v>
    <v>       0.00000000       0.00000000       0.09782721 </v>
   </varray>
  </crystal>
  <varray name="positions" >
   <v>      -0.46178898       0.40703518       0.36046770 </v>
   <v>      -0.49668824       0.46726955       0.44536026 </v>
   <v>       0.39439691       0.47970729       0.43780932 </v>
   <v>      -0.44808691      -0.43422443       0.44242711 </v>
   <v>      -0.47127207       0.41660227      -0.46103158 </v>
  </varray>
 </structure>
 <varray name="primitive_index" >
  <v type="int" >        1 </v>
  <v type="int" >        5 </v>
  <v type="int" >        2 </v>
  <v type="int" >        3 </v>
  <v type="int" >        4 </v>
 </varray>
 <kpoints>
  <generation param="Monkhorst-Pack">
   <v type="int" name="divisions">       2        2        2 </v>
   <v name="usershift">      0.00000000       0.00000000       0.00000000 </v>
   <v name="genvec1">      0.50000000      -0.00000000       0.00000000 </v>
   <v name="genvec2">      0.00000000       0.50000000       0.00000000 </v>
   <v name="genvec3">      0.00000000       0.00000000       0.50000000 </v>
   <v name="shift">      0.50000000       0.50000000       0.50000000 </v>
  </generation>
  <varray name="kpointlist" >
   <v>       0.25000000       0.25000000       0.25000000 </v>
   <v>      -0.25000000       0.25000000       0.25000000 </v>
   <v>       0.25000000      -0.25000000       0.25000000 </v>
   <v>      -0.25000000      -0.25000000       0.25000000 </v>
  </varray>
  <varray name="weights" >
   <v>       0.25000000 </v>
   <v>       0.25000000 </v>
   <v>       0.25000000 </v>
   <v>       0.25000000 </v>
  </varray>
 </kpoints>
 <parameters>
  <separator name="general" >
   <i type="string" name="SYSTEM">unknown system</i>
   <i type="logical" name="LCOMPAT"> F  </i>
  </separator>
  <separator name="electronic" >
   <i type="string" name="PREC">a</i>
   <i name="ENMAX">    400.00000000</i>
   <i name="ENAUG">    644.87300000</i>
   <i name="EDIFF">      0.00000100</i>
   <i type="int" name="IALGO">    68</i>
   <i type="int" name="IWAVPR">    12</i>
   <i type="int" name="NBANDS">     8</i>
   <i name="NELECT">      8.00000000</i>
   <i type="int" name="TURBO">     0</i>
   <i type="int" name="IRESTART">     0</i>
   <i type="int" name="NREBOOT">     0</i>
   <i type="int" name="NMIN">     0</i>
   <i name="EREF">      0.00000000</i>
   <separator name="electronic smearing" >
    <i type="int" name="ISMEAR">     1</i>
    <i name="SIGMA">      0.20000000</i>
    <i name="KSPACING">      0.50000000</i>
    <i type="logical" name="KGAMMA"> F  </i>
   </separator>
   <separator name="electronic projectors" >
    <i type="logical" name="LREAL"> T  </i>
    <v name="ROPT">      0.00000000      0.00000000</v>
    <i type="int" name="LMAXPAW">  -100</i>
    <i type="int" name="LMAXMIX">     2</i>
    <i type="logical" name="NLSPLINE"> F  </i>
   </separator>
   <separator name="electronic startup" >
    <i type="int" name="ISTART">     0</i>
    <i type="int" name="ICHARG">     2</i>
    <i type="int" name="INIWAV">     1</i>
   </separator>
   <separator name="electronic spin" >
    <i type="int" name="ISPIN">     1</i>
    <i type="logical" name="LNONCOLLINEAR"> F  </i>
    <v name="MAGMOM">      1.00000000      1.00000000      1.00000000      1.00000000      1.00000000</v>
    <i name="NUPDOWN">     -1.00000000</i>
    <i type="logical" name="LSORBIT"> F  </i>
    <v name="SAXIS">      0.00000000      0.00000000      1.00000000</v>
    <i type="logical" name="LSPIRAL"> F  </i>
    <v name="QSPIRAL">      0.00000000      0.00000000      0.00000000</v>
    <i type="logical" name="LZEROZ"> F  </i>
   </separator>
   <separator name="electronic exchange-correlation" >
    <i type="logical" name="LASPH"> F  </i>
    <i type="logical" name="LMETAGGA"> F  </i>
   </separator>
   <separator name="electronic convergence" >
    <i type="int" name="NELM">    60</i>
    <i type="int" name="NELMDL">    -5</i>
    <i type="int" name="NELMIN">     2</i>
    <i name="ENINI">    400.00000000</i>
    <separator name="electronic convergence detail" >
     <i type="logical" name="LDIAG"> T  </i>
     <i type="logical" name="LSUBROT"> F  </i>
     <i name="WEIMIN">      0.00100000</i>
     <i name="EBREAK">      0.00000003</i>
     <i name="DEPER">      0.30000000</i>
     <i type="int" name="NRMM">     4</i>
     <i name="TIME">      0.40000000</i>
    </separator>
   </separator>
   <separator name="electronic mixer" >
    <i name="AMIX">      0.40000000</i>
    <i name="BMIX">      1.00000000</i>
    <i name="AMIN">      0.10000000</i>
    <i name="AMIX_MAG">      1.60000000</i>
    <i name="BMIX_MAG">      1.00000000</i>
    <separator name="electronic mixer details" >
     <i type="int" name="IMIX">     4</i>
     <i type="logical" name="MIXFIRST"> F  </i>
     <i type="int" name="MAXMIX">    50</i>
     <i name="WC">    100.00000000</i>
     <i type="int" name="INIMIX">     1</i>
     <i type="int" name="MIXPRE">     1</i>
     <i type="int" name="MREMOVE">     5</i>
    </separator>
   </separator>
   <separator name="electronic dipolcorrection" >
    <i type="logical" name="LDIPOL"> F  </i>
    <i type="logical" name="LMONO"> F  </i>
    <i type="int" name="IDIPOL">     0</i>
    <i name="EPSILON">      1.00000000</i>
    <v name="DIPOL">   -100.00000000   -100.00000000   -100.00000000</v>
    <i name="EFIELD">      0.00000000</i>
   </separator>
  </separator>
  <separator name="grids" >
   <i type="int" name="NGX">    64</i>
   <i type="int" name="NGY">    70</i>
   <i type="int" name="NGZ">    70</i>
   <i type="int" name="NGXF">   128</i>
   <i type="int" name="NGYF">   140</i>
   <i type="int" name="NGZF">   140</i>
   <i type="logical" name="ADDGRID"> F  </i>
  </separator>
  <separator name="ionic" >
   <i type="int" name="NSW">    10</i>
   <i type="int" name="IBRION">     0</i>
   <i type="int" name="MDALGO">     0</i>
   <i type="int" name="ISIF">     2</i>
   <i name="PSTRESS">      0.00000000</i>
   <i name="EDIFFG">      0.00001000</i>
   <i type="int" name="NFREE">     0</i>
   <i name="POTIM">      2.00000000</i>
   <i name="SMASS">      0.00169911</i>
   <i name="SCALEE">      1.00000000</i>
  </separator>
  <separator name="ionic md" >
   <i name="TEBEG">     50.00000000</i>
   <i name="TEEND">     50.00000000</i>
   <i type="int" name="NBLOCK">     1</i>
   <i type="int" name="KBLOCK">     1</i>
   <i type="int" name="NPACO">   256</i>
   <i name="APACO">     16.00000000</i>
  </separator>
  <separator name="symmetry" >
   <i type="int" name="ISYM">     0</i>
   <i name="SYMPREC">      0.00001000</i>
  </separator>
  <separator name="dos" >
   <i type="int" name="LORBIT">     0</i>
   <v name="RWIGS">     -1.00000000     -1.00000000</v>
   <i type="int" name="NEDOS">   301</i>
   <i name="EMIN">     10.00000000</i>
   <i name="EMAX">    -10.00000000</i>
   <i name="EFERMI">      0.00000000</i>
  </separator>
  <separator name="writing" >
   <i type="int" name="NWRITE">     2</i>
   <i type="logical" name="LWAVE"> F  </i>
   <i type="logical" name="LDOWNSAMPLE"> F  </i>
   <i type="logical" name="LCHARG"> F  </i>
   <i type="logical" name="LPARD"> F  </i>
   <i type="logical" name="LVTOT"> F  </i>
   <i type="logical" name="LVHAR"> F  </i>
   <i type="logical" name="LELF"> F  </i>
   <i type="logical" name="LOPTICS"> F  </i>
   <v name="STM">      0.00000000      0.00000000      0.00000000      0.00000000      0.00000000      0.00000000      0.00000000</v>
  </separator>
  <separator name="performance" >
   <i type="int" name="NPAR">     1</i>
   <i type="int" name="NSIM">     4</i>
   <i type="int" name="NBLK">    -1</i>
   <i type="logical" name="LPLANE"> T  </i>
   <i type="logical" name="LSCALAPACK"> T  </i>
   <i type="logical" name="LSCAAWARE"> F  </i>
   <i type="logical" name="LSCALU"> F  </i>
   <i type="logical" name="LASYNC"> F  </i>
   <i type="logical" name="LORBITALREAL"> F  </i>
  </separator>
  <separator name="miscellaneous" >
   <i type="int" name="IDIOT">     3</i>
   <i type="int" name="ISPECIAL">     0</i>
   <i type="logical" name="LMUSIC"> F  </i>
   <v name="POMASS">      1.00000000     12.01100000</v>
   <v name="DARWINR">      0.00000000      0.00000000</v>
   <v name="DARWINV">      1.00000000      1.00000000</v>
   <i type="logical" name="LCORR"> T  </i>
  </separator>
  <i type="logical" name="GGA_COMPAT"> T  </i>
  <i type="logical" name="LBERRY"> F  </i>
  <i type="int" name="ICORELEVEL">     0</i>
  <i type="logical" name="LDAU"> F  </i>
  <i type="int" name="I_CONSTRAINED_M">     0</i>
  <separator name="electronic exchange-correlation" >
   <i type="string" name="GGA">--</i>
   <i type="int" name="VOSKOWN">     0</i>
   <i type="logical" name="LHFCALC"> F  </i>
   <i type="string" name="PRECFOCK"></i>
   <i type="logical" name="LSYMGRAD"> F  </i>
   <i type="logical" name="LHFONE"> F  </i>
   <i type="logical" name="LRHFCALC"> F  </i>
   <i type="logical" name="LTHOMAS"> F  </i>
   <i type="logical" name="LMODELHF"> F  </i>
   <i name="ENCUT4O">     -1.00000000</i>
   <i type="int" name="EXXOEP">     0</i>
   <i type="int" name="FOURORBIT">     0</i>
   <i name="AEXX">      0.00000000</i>
   <i name="HFALPHA">      0.00000000</i>
   <i name="MCALPHA">      0.00000000</i>
   <i name="ALDAX">      1.00000000</i>
   <i name="AGGAX">      1.00000000</i>
   <i name="ALDAC">      1.00000000</i>
   <i name="AGGAC">      1.00000000</i>
   <i type="int" name="NKREDX">     1</i>
   <i type="int" name="NKREDY">     1</i>
   <i type="int" name="NKREDZ">     1</i>
   <i type="logical" name="SHIFTRED"> F  </i>
   <i type="logical" name="ODDONLY"> F  </i>
   <i type="logical" name="EVENONLY"> F  </i>
   <i type="int" name="LMAXFOCK">     0</i>
   <i type="int" name="NMAXFOCKAE">     0</i>
   <i type="logical" name="LFOCKAEDFT"> F  </i>
   <i name="HFSCREEN">      0.00000000</i>
   <i name="HFSCREENC">      0.00000000</i>
   <i type="int" name="NBANDSGWLOW">     0</i>
  </separator>
  <separator name="vdW DFT" >
   <i type="logical" name="LUSE_VDW"> F  </i>
   <i name="Zab_VDW">     -0.84910000</i>
   <i name="PARAM1">      0.12340000</i>
   <i name="PARAM2">      1.00000000</i>
   <i name="PARAM3">      0.00000000</i>
  </separator>
  <separator name="model GW" >
   <i type="int" name="MODEL_GW">     0</i>
   <i name="MODEL_EPS0">    118.87170164</i>
   <i name="MODEL_ALPHA">      1.00000000</i>
  </separator>
  <separator name="linear response parameters" >
   <i type="logical" name="LEPSILON"> F  </i>
   <i type="logical" name="LRPA"> F  </i>
   <i type="logical" name="LNABLA"> F  </i>
   <i type="logical" name="LVEL"> F  </i>
   <i type="int" name="KINTER">     0</i>
   <i name="CSHIFT">      0.10000000</i>
   <i name="OMEGAMAX">     -1.00000000</i>
   <i name="DEG_THRESHOLD">      0.00200000</i>
   <i name="RTIME">     -0.10000000</i>
   <i name="WPLASMAI">      0.00000000</i>
   <v name="DFIELD">      0.00000000      0.00000000      0.00000000</v>
   <v name="WPLASMA">      0.00000000      0.00000000      0.00000000      0.00000000      0.00000000      0.00000000      0.00000000      0.00000000      0.00000000</v>
  </separator>
  <separator name="orbital magnetization" >
   <i type="logical" name="NUCIND"> F  </i>
   <v name="MAGPOS">      0.00000000      0.00000000      0.00000000</v>
   <i type="logical" name="LNICSALL"> T  </i>
   <i type="logical" name="ORBITALMAG"> F  </i>
   <i type="logical" name="LMAGBLOCH"> F  </i>
   <i type="logical" name="LCHIMAG"> F  </i>
   <i type="logical" name="LGAUGE"> T  </i>
   <i type="int" name="MAGATOM">     0</i>
   <v name="MAGDIPOL">      0.00000000      0.00000000      0.00000000</v>
   <v name="AVECCONST">      0.00000000      0.00000000      0.00000000</v>
  </separator>
  <separator name="response functions" >
   <i type="logical" name="LADDER"> F  </i>
   <i type="logical" name="LRPAFORCE"> F  </i>
   <i type="logical" name="LFXC"> F  </i>
   <i type="logical" name="LHARTREE"> T  </i>
   <i type="int" name="IBSE">     0</i>
   <v type="int" name="KPOINT">    -1     0     0     0</v>
   <i type="logical" name="LTCTE"> F  </i>
   <i type="logical" name="LTETE"> F  </i>
   <i type="logical" name="LTRIPLET"> F  </i>
   <i type="logical" name="LFXCEPS"> F  </i>
   <i type="logical" name="LFXHEG"> F  </i>
   <i type="int" name="NATURALO">     2</i>
   <i type="logical" name="L2ORDER"> F  </i>
   <i type="logical" name="LMP2LT"> F  </i>
   <i type="logical" name="LUSEW"> F  </i>
   <i name="ENCUTGW">     -2.00000000</i>
   <i name="ENCUTGWSOFT">     -2.00000000</i>
   <i name="ENCUTLF">     -1.00000000</i>
   <i type="int" name="LMAXMP2">    -1</i>
   <i name="SCISSOR">      0.00000000</i>
   <i type="int" name="NOMEGA">     0</i>
   <i type="int" name="NOMEGAR">     0</i>
   <i type="int" name="NBANDSGW">    -1</i>
   <i type="int" name="NBANDSO">    -1</i>
   <i type="int" name="NBANDSV">    -1</i>
   <i type="int" name="NELM">     1</i>
   <i type="int" name="NELMHF">     1</i>
   <i type="int" name="DIM">     3</i>
   <i type="int" name="ANTIRES">     0</i>
   <i name="OMEGAMAX">    -30.00000000</i>
   <i name="OMEGAMIN">    -30.00000000</i>
   <i name="OMEGATL">   -200.00000000</i>
   <i type="int" name="OMEGAGRID">   140</i>
   <i name="CSHIFT">     -0.10000000</i>
   <i type="logical" name="SELFENERGY"> F  </i>
   <i type="logical" name="LSPECTRAL"> F  </i>
   <i type="logical" name="LSPECTRALGW"> F  </i>
   <i type="logical" name="LSINGLES"> F  </i>
   <i type="logical" name="LFERMIGW"> F  </i>
   <i type="logical" name="ODDONLYGW"> F  </i>
   <i type="logical" name="EVENONLYGW"> F  </i>
   <i type="int" name="NKREDLFX">     1</i>
   <i type="int" name="NKREDLFY">     1</i>
   <i type="int" name="NKREDLFZ">     1</i>
   <i type="int" name="MAXMEM">  2800</i>
   <i type="int" name="TELESCOPE">     0</i>
   <i type="int" name="TAUPAR">     1</i>
   <i type="int" name="OMEGAPAR">    -1</i>
   <i name="LAMBDA">      1.00000000</i>
  </separator>
  <separator name="External order field" >
   <i name="OFIELD_KAPPA">      0.00000000</i>
   <v name="OFIELD_K">      0.00000000      0.00000000      0.00000000</v>
   <i name="OFIELD_Q6_NEAR">      0.00000000</i>
   <i name="OFIELD_Q6_FAR">      0.00000000</i>
   <i name="OFIELD_A">      0.00000000</i>
  </separator>
 </parameters>
 <atominfo>
  <atoms>       5 </atoms>
  <types>       2 </types>
  <array name="atoms" >
   <dimension dim="1">ion</dimension>
   <field type="string">element</field>
   <field type="int">atomtype</field>
   <set>
    <rc><c>H </c><c>   1</c></rc>
    <rc><c>H </c><c>   1</c></rc>
    <rc><c>H </c><c>   1</c></rc>
    <rc><c>H </c><c>   1</c></rc>
    <rc><c>C </c><c>   2</c></rc>
   </set>
  </array>
  <array name="atomtypes" >
   <dimension dim="1">type</dimension>
   <field type="int">atomspertype</field>
   <field type="string">element</field>
   <field>mass</field>
   <field>valence</field>
   <field type="string">pseudopotential</field>
   <set>
    <rc><c>   4</c><c>H </c><c>      1.00000000</c><c>      1.00000000</c><c>  PAW_PBE H 15Jun2001                   </c></rc>
    <rc><c>   1</c><c>C </c><c>     12.01100000</c><c>      4.00000000</c><c>  PAW_PBE C 08Apr2002                   </c></rc>
   </set>
  </array>
 </atominfo>
 <structure name="initialpos" >
  <crystal>
   <varray name="basis" >
    <v>       9.75683482       0.00000000       0.00000000 </v>
    <v>       0.10884809       9.93225665       0.00000000 </v>
    <v>       0.00890039       0.16858278      10.22210524 </v>
   </varray>
   <i name="volume">    990.59751364 </i>
   <varray name="rec_basis" >
    <v>       0.10249225      -0.00112322      -0.00007072 </v>
    <v>       0.00000000       0.10068205      -0.00166045 </v>
    <v>       0.00000000       0.00000000       0.09782721 </v>
   </varray>
  </crystal>
  <varray name="positions" >
   <v>       0.53821102       0.40703518       0.36046770 </v>
   <v>       0.39439691       0.47970729       0.43780932 </v>
   <v>       0.55191309       0.56577557       0.44242711 </v>
   <v>       0.52872793       0.41660227       0.53896842 </v>
   <v>       0.50331176       0.46726955       0.44536026 </v>
  </varray>
  <varray name="velocities" >
   <v>       0.00001952      -0.00082478       0.00094433 </v>
   <v>       0.00122740       0.00169448       0.00038397 </v>
   <v>      -0.00176197      -0.00222704       0.00015218 </v>
   <v>      -0.00061952       0.00227670      -0.00052024 </v>
   <v>       0.00009446      -0.00007654      -0.00007995 </v>
  </varray>
 </structure>
 <calculation>
  <scstep>
   <time name="dav">    2.44    2.44</time>
   <time name="total">    4.06    4.07</time>
   <energy>
    <i name="alphaZ">      0.24455017 </i>
    <i name="ewald">    129.01230389 </i>
    <i name="hartreedc">   -243.97209356 </i>
    <i name="XCdc">     22.02444761 </i>
    <i name="pawpsdc">    117.05815612 </i>
    <i name="pawaedc">   -117.66307307 </i>
    <i name="eentropy">     -0.02845316 </i>
    <i name="bandstr">    -80.35810120 </i>
    <i name="atom">    197.04175453 </i>
    <i name="e_fr_energy">     23.35949134 </i>
    <i name="e_wo_entrp">     23.38794450 </i>
    <i name="e_0_energy">     23.36897573 </i>
   </energy>
  </scstep>
  <scstep>
   <time name="dav">    2.37    2.38</time>
   <time name="total">    2.37    2.38</time>
   <energy>
    <i name="e_fr_energy">    -21.44215679 </i>
    <i name="e_wo_entrp">    -21.44505574 </i>
    <i name="e_0_energy">    -21.44312310 </i>
   </energy>
  </scstep>
  <scstep>
   <time name="dav">    2.02    2.02</time>
   <time name="total">    2.02    2.02</time>
   <energy>
    <i name="e_fr_energy">    -27.33490127 </i>
    <i name="e_wo_entrp">    -27.36642832 </i>
    <i name="e_0_energy">    -27.34541028 </i>
   </energy>
  </scstep>
  <scstep>
   <time name="dav">    3.24    3.24</time>
   <time name="total">    3.24    3.24</time>
   <energy>
    <i name="e_fr_energy">    -27.60105809 </i>
    <i name="e_wo_entrp">    -27.62941492 </i>
    <i name="e_0_energy">    -27.61051036 </i>
   </energy>
  </scstep>
  <scstep>
   <time name="dav">    2.82    2.83</time>
   <time name="total">    3.06    3.07</time>
   <energy>
    <i name="e_fr_energy">    -27.60568471 </i>
    <i name="e_wo_entrp">    -27.63403991 </i>
    <i name="e_0_energy">    -27.61513644 </i>
   </energy>
  </scstep>
  <scstep>
   <time name="diag">    0.43    0.43</time>
   <time name="diis">    1.41    1.41</time>
   <time name="orth">    0.01    0.01</time>
   <time name="total">    3.86    3.87</time>
   <energy>
    <i name="e_fr_energy">    -24.66641068 </i>
    <i name="e_wo_entrp">    -24.69838939 </i>
    <i name="e_0_energy">    -24.67707025 </i>
   </energy>
  </scstep>
  <scstep>
   <time name="diag">    0.41    0.41</time>
   <time name="diis">    1.43    1.43</time>
   <time name="orth">    0.01    0.01</time>
   <time name="total">    3.88    3.89</time>
   <energy>
    <i name="e_fr_energy">    -24.16830661 </i>
    <i name="e_wo_entrp">    -24.20289518 </i>
    <i name="e_0_energy">    -24.17983613 </i>
   </energy>
  </scstep>
  <scstep>
   <time name="diag">    0.43    0.43</time>
   <time name="diis">    1.44    1.45</time>
   <time name="orth">    0.01    0.01</time>
   <time name="total">    3.94    3.95</time>
   <energy>
    <i name="e_fr_energy">    -24.04097314 </i>
    <i name="e_wo_entrp">    -24.07541197 </i>
    <i name="e_0_energy">    -24.05245275 </i>
   </energy>
  </scstep>
  <scstep>
   <time name="diag">    0.43    0.43</time>
   <time name="diis">    1.48    1.48</time>
   <time name="orth">    0.01    0.01</time>
   <time name="total">    3.93    3.94</time>
   <energy>
    <i name="e_fr_energy">    -24.01506633 </i>
    <i name="e_wo_entrp">    -24.05118711 </i>
    <i name="e_0_energy">    -24.02710659 </i>
   </energy>
  </scstep>
  <scstep>
   <time name="diag">    0.45    0.45</time>
   <time name="diis">    1.50    1.50</time>
   <time name="orth">    0.01    0.01</time>
   <time name="total">    3.96    3.97</time>
   <energy>
    <i name="e_fr_energy">    -24.01293751 </i>
    <i name="e_wo_entrp">    -24.04899060 </i>
    <i name="e_0_energy">    -24.02495520 </i>
   </energy>
  </scstep>
  <scstep>
   <time name="diag">    0.44    0.45</time>
   <time name="diis">    1.51    1.51</time>
   <time name="orth">    0.01    0.01</time>
   <time name="total">    3.91    3.92</time>
   <energy>
    <i name="e_fr_energy">    -24.00973277 </i>
    <i name="e_wo_entrp">    -24.04606941 </i>
    <i name="e_0_energy">    -24.02184499 </i>
   </energy>
  </scstep>
  <scstep>
   <time name="diag">    0.45    0.45</time>
   <time name="diis">    1.51    1.51</time>
   <time name="orth">    0.01    0.01</time>
   <time name="total">    3.86    3.87</time>
   <energy>
    <i name="e_fr_energy">    -24.00759518 </i>
    <i name="e_wo_entrp">    -24.04413920 </i>
    <i name="e_0_energy">    -24.01977652 </i>
   </energy>
  </scstep>
  <scstep>
   <time name="diag">    0.45    0.46</time>
   <time name="diis">    1.51    1.51</time>
   <time name="orth">    0.01    0.01</time>
   <time name="total">    3.83    3.84</time>
   <energy>
    <i name="e_fr_energy">    -24.01453629 </i>
    <i name="e_wo_entrp">    -24.05116186 </i>
    <i name="e_0_energy">    -24.02674482 </i>
   </energy>
  </scstep>
  <scstep>
   <time name="diag">    0.43    0.43</time>
   <time name="diis">    1.53    1.54</time>
   <time name="orth">    0.01    0.01</time>
   <time name="total">    3.78    3.79</time>
   <energy>
    <i name="e_fr_energy">    -24.01714984 </i>
    <i name="e_wo_entrp">    -24.05362673 </i>
    <i name="e_0_energy">    -24.02930880 </i>
   </energy>
  </scstep>
  <scstep>
   <time name="diag">    0.43    0.43</time>
   <time name="diis">    1.57    1.57</time>
   <time name="orth">    0.01    0.01</time>
   <time name="total">    3.82    3.83</time>
   <energy>
    <i name="e_fr_energy">    -24.01900513 </i>
    <i name="e_wo_entrp">    -24.05540357 </i>
    <i name="e_0_energy">    -24.03113795 </i>
   </energy>
  </scstep>
  <scstep>
   <time name="diag">    0.44    0.44</time>
   <time name="diis">    1.55    1.56</time>
   <time name="orth">    0.01    0.01</time>
   <time name="total">    3.78    3.79</time>
   <energy>
    <i name="e_fr_energy">    -24.01988785 </i>
    <i name="e_wo_entrp">    -24.05629953 </i>
    <i name="e_0_energy">    -24.03202508 </i>
   </energy>
  </scstep>
  <scstep>
   <time name="diag">    0.44    0.44</time>
   <time name="diis">    1.53    1.54</time>
   <time name="orth">    0.01    0.01</time>
   <time name="total">    3.76    3.77</time>
   <energy>
    <i name="e_fr_energy">    -24.02033103 </i>
    <i name="e_wo_entrp">    -24.05676137 </i>
    <i name="e_0_energy">    -24.03247447 </i>
   </energy>
  </scstep>
  <scstep>
   <time name="diag">    0.45    0.45</time>
   <time name="diis">    1.48    1.49</time>
   <time name="orth">    0.01    0.01</time>
   <time name="total">    3.75    3.76</time>
   <energy>
    <i name="e_fr_energy">    -24.02049203 </i>
    <i name="e_wo_entrp">    -24.05693515 </i>
    <i name="e_0_energy">    -24.03263974 </i>
   </energy>
  </scstep>
  <scstep>
   <time name="diag">    0.45    0.45</time>
   <time name="diis">    1.45    1.45</time>
   <time name="orth">    0.01    0.01</time>
   <time name="total">    3.77    3.78</time>
   <energy>
    <i name="e_fr_energy">    -24.02051760 </i>
    <i name="e_wo_entrp">    -24.05695381 </i>
    <i name="e_0_energy">    -24.03266300 </i>
   </energy>
  </scstep>
  <scstep>
   <time name="diag">    0.43    0.43</time>
   <time name="diis">    1.15    1.15</time>
   <time name="orth">    0.01    0.01</time>
   <time name="total">    3.51    3.52</time>
   <energy>
    <i name="e_fr_energy">    -24.02052889 </i>
    <i name="e_wo_entrp">    -24.05696836 </i>
    <i name="e_0_energy">    -24.03267538 </i>
   </energy>
  </scstep>
  <scstep>
   <time name="diag">    0.43    0.43</time>
   <time name="diis">    1.14    1.14</time>
   <time name="orth">    0.01    0.01</time>
   <time name="total">    3.53    3.54</time>
   <energy>
    <i name="e_fr_energy">    -24.02053135 </i>
    <i name="e_wo_entrp">    -24.05696967 </i>
    <i name="e_0_energy">    -24.03267745 </i>
   </energy>
  </scstep>
  <scstep>
   <time name="diag">    0.45    0.45</time>
   <time name="diis">    1.18    1.18</time>
   <time name="orth">    0.01    0.01</time>
   <time name="total">    3.58    3.58</time>
   <energy>
    <i name="e_fr_energy">    -24.02053245 </i>
    <i name="e_wo_entrp">    -24.05696977 </i>
    <i name="e_0_energy">    -24.03267822 </i>
   </energy>
  </scstep>
  <scstep>
   <time name="diag">    0.45    0.45</time>
   <time name="diis">    1.02    1.03</time>
   <time name="orth">    0.01    0.01</time>
   <time name="total">    3.15    3.16</time>
   <energy>
    <i name="alphaZ">      0.24455017 </i>
    <i name="ewald">    129.01230389 </i>
    <i name="hartreedc">   -284.78116644 </i>
    <i name="XCdc">     24.77473311 </i>
    <i name="pawpsdc">    468.99762522 </i>
    <i name="pawaedc">   -469.78939350 </i>
    <i name="eentropy">      0.03643720 </i>
    <i name="bandstr">    -89.55737716 </i>
    <i name="atom">    197.04175453 </i>
    <i name="e_fr_energy">    -24.02053298 </i>
    <i name="e_wo_entrp">    -24.05697018 </i>
    <i name="e_0_energy">    -24.03267871 </i>
   </energy>
  </scstep>
  <structure>
   <crystal>
    <varray name="basis" >
     <v>       9.75683482       0.00000000       0.00000000 </v>
     <v>       0.10884809       9.93225665       0.00000000 </v>
     <v>       0.00890039       0.16858278      10.22210524 </v>
    </varray>
    <i name="volume">    990.59751364 </i>
    <varray name="rec_basis" >
     <v>       0.10249225      -0.00112322      -0.00007072 </v>
     <v>       0.00000000       0.10068205      -0.00166045 </v>
     <v>       0.00000000       0.00000000       0.09782721 </v>
    </varray>
   </crystal>
   <varray name="positions" >
    <v>       0.53821102       0.40703518       0.36046770 </v>
    <v>       0.39439691       0.47970729       0.43780932 </v>
    <v>       0.55191309       0.56577557       0.44242711 </v>
    <v>       0.52872793       0.41660227       0.53896842 </v>
    <v>       0.50331176       0.46726955       0.44536026 </v>
   </varray>
  </structure>
  <varray name="forces" >
   <v>       0.03863676       0.34103772       0.36233122 </v>
   <v>      -1.05066179       0.11121161       0.18199471 </v>
   <v>       0.65986278       0.18056156      -0.07281512 </v>
   <v>      -1.03944407      -0.16524534      -0.16877773 </v>
   <v>      -0.14991087       0.13997205      -0.03677809 </v>
  </varray>
  <varray name="stress" >
   <v>       1.38551703       0.80592162       0.32529488 </v>
   <v>       0.80592162      -0.16890036      -0.38277654 </v>
   <v>       0.32529488      -0.38277654      -1.18962155 </v>
  </varray>
  <energy>
   <i name="e_fr_energy">    -24.02053298 </i>
   <i name="e_wo_entrp">    -24.03267871 </i>
   <i name="e_0_energy">      0.03643720 </i>
   <i name="kinetic">      0.02849507 </i>
   <i name="lattice kinetic">      0.00000000 </i>
   <i name="nosepot">      0.00000000 </i>
   <i name="nosekinetic">      0.00000083 </i>
   <i name="total">    -23.99203708 </i>
  </energy>
  <dos>
   <i name="efermi">     -9.08327360 </i>
   <total>
    <array>
     <dimension dim="1">gridpoints</dimension>
     <dimension dim="2">spin</dimension>
     <field>energy</field>
     <field>total</field>
     <field>integrated</field>
     <set>
      <set comment="spin 1">
       <r>   -18.9041     0.0000     0.0000 </r>
       <r>   -18.8320     0.0000     0.0000 </r>
       <r>   -18.7600     0.0000     0.0000 </r>
       <r>   -18.6879     0.0000     0.0000 </r>
       <r>   -18.6159     0.0000     0.0000 </r>
       <r>   -18.5438    -0.0000    -0.0000 </r>
       <r>   -18.4718    -0.0000    -0.0000 </r>
       <r>   -18.3997    -0.0000    -0.0000 </r>
       <r>   -18.3277    -0.0000    -0.0000 </r>
       <r>   -18.2556    -0.0000    -0.0000 </r>
       <r>   -18.1836    -0.0000    -0.0000 </r>
       <r>   -18.1115    -0.0000    -0.0000 </r>
       <r>   -18.0395    -0.0000    -0.0000 </r>
       <r>   -17.9674    -0.0000    -0.0000 </r>
       <r>   -17.8954    -0.0000    -0.0000 </r>
       <r>   -17.8233    -0.0000    -0.0000 </r>
       <r>   -17.7513    -0.0000    -0.0000 </r>
       <r>   -17.6792    -0.0000    -0.0000 </r>
       <r>   -17.6072    -0.0001    -0.0000 </r>
       <r>   -17.5351    -0.0010    -0.0001 </r>
       <r>   -17.4631    -0.0067    -0.0006 </r>
       <r>   -17.3910    -0.0350    -0.0031 </r>
       <r>   -17.3190    -0.1304    -0.0125 </r>
       <r>   -17.2469    -0.3246    -0.0359 </r>
       <r>   -17.1748    -0.4269    -0.0666 </r>
       <r>   -17.1028     0.2460    -0.0489 </r>
       <r>   -17.0307     2.4989     0.1311 </r>
       <r>   -16.9587     5.9008     0.5563 </r>
       <r>   -16.8866     8.1965     1.1469 </r>
       <r>   -16.8146     7.3952     1.6797 </r>
       <r>   -16.7425     4.2226     1.9840 </r>
       <r>   -16.6705     1.1918     2.0698 </r>
       <r>   -16.5984    -0.2371     2.0528 </r>
       <r>   -16.5264    -0.4194     2.0225 </r>
       <r>   -16.4543    -0.2212     2.0066 </r>
       <r>   -16.3823    -0.0722     2.0014 </r>
       <r>   -16.3102    -0.0164     2.0002 </r>
       <r>   -16.2382    -0.0027     2.0000 </r>
       <r>   -16.1661    -0.0003     2.0000 </r>
       <r>   -16.0941    -0.0000     2.0000 </r>
       <r>   -16.0220    -0.0000     2.0000 </r>
       <r>   -15.9500    -0.0000     2.0000 </r>
       <r>   -15.8779    -0.0000     2.0000 </r>
       <r>   -15.8059    -0.0000     2.0000 </r>
       <r>   -15.7338    -0.0000     2.0000 </r>
       <r>   -15.6617    -0.0000     2.0000 </r>
       <r>   -15.5897     0.0000     2.0000 </r>
       <r>   -15.5176     0.0000     2.0000 </r>
       <r>   -15.4456     0.0000     2.0000 </r>
       <r>   -15.3735     0.0000     2.0000 </r>
       <r>   -15.3015     0.0000     2.0000 </r>
       <r>   -15.2294     0.0000     2.0000 </r>
       <r>   -15.1574     0.0000     2.0000 </r>
       <r>   -15.0853     0.0000     2.0000 </r>
       <r>   -15.0133     0.0000     2.0000 </r>
       <r>   -14.9412     0.0000     2.0000 </r>
       <r>   -14.8692     0.0000     2.0000 </r>
       <r>   -14.7971     0.0000     2.0000 </r>
       <r>   -14.7251     0.0000     2.0000 </r>
       <r>   -14.6530     0.0000     2.0000 </r>
       <r>   -14.5810     0.0000     2.0000 </r>
       <r>   -14.5089     0.0000     2.0000 </r>
       <r>   -14.4369     0.0000     2.0000 </r>
       <r>   -14.3648     0.0000     2.0000 </r>
       <r>   -14.2928     0.0000     2.0000 </r>
       <r>   -14.2207     0.0000     2.0000 </r>
       <r>   -14.1487     0.0000     2.0000 </r>
       <r>   -14.0766     0.0000     2.0000 </r>
       <r>   -14.0045     0.0000     2.0000 </r>
       <r>   -13.9325     0.0000     2.0000 </r>
       <r>   -13.8604     0.0000     2.0000 </r>
       <r>   -13.7884     0.0000     2.0000 </r>
       <r>   -13.7163     0.0000     2.0000 </r>
       <r>   -13.6443     0.0000     2.0000 </r>
       <r>   -13.5722     0.0000     2.0000 </r>
       <r>   -13.5002     0.0000     2.0000 </r>
       <r>   -13.4281     0.0000     2.0000 </r>
       <r>   -13.3561     0.0000     2.0000 </r>
       <r>   -13.2840     0.0000     2.0000 </r>
       <r>   -13.2120     0.0000     2.0000 </r>
       <r>   -13.1399     0.0000     2.0000 </r>
       <r>   -13.0679     0.0000     2.0000 </r>
       <r>   -12.9958     0.0000     2.0000 </r>
       <r>   -12.9238     0.0000     2.0000 </r>
       <r>   -12.8517     0.0000     2.0000 </r>
       <r>   -12.7797     0.0000     2.0000 </r>
       <r>   -12.7076     0.0000     2.0000 </r>
       <r>   -12.6356     0.0000     2.0000 </r>
       <r>   -12.5635     0.0000     2.0000 </r>
       <r>   -12.4914     0.0000     2.0000 </r>
       <r>   -12.4194     0.0000     2.0000 </r>
       <r>   -12.3473     0.0000     2.0000 </r>
       <r>   -12.2753     0.0000     2.0000 </r>
       <r>   -12.2032     0.0000     2.0000 </r>
       <r>   -12.1312     0.0000     2.0000 </r>
       <r>   -12.0591     0.0000     2.0000 </r>
       <r>   -11.9871     0.0000     2.0000 </r>
       <r>   -11.9150     0.0000     2.0000 </r>
       <r>   -11.8430     0.0000     2.0000 </r>
       <r>   -11.7709     0.0000     2.0000 </r>
       <r>   -11.6989     0.0000     2.0000 </r>
       <r>   -11.6268     0.0000     2.0000 </r>
       <r>   -11.5548     0.0000     2.0000 </r>
       <r>   -11.4827     0.0000     2.0000 </r>
       <r>   -11.4107     0.0000     2.0000 </r>
       <r>   -11.3386     0.0000     2.0000 </r>
       <r>   -11.2666     0.0000     2.0000 </r>
       <r>   -11.1945     0.0000     2.0000 </r>
       <r>   -11.1225     0.0000     2.0000 </r>
       <r>   -11.0504    -0.0000     2.0000 </r>
       <r>   -10.9784    -0.0000     2.0000 </r>
       <r>   -10.9063    -0.0000     2.0000 </r>
       <r>   -10.8342    -0.0000     2.0000 </r>
       <r>   -10.7622    -0.0000     2.0000 </r>
       <r>   -10.6901    -0.0000     2.0000 </r>
       <r>   -10.6181    -0.0000     2.0000 </r>
       <r>   -10.5460    -0.0000     2.0000 </r>
       <r>   -10.4740    -0.0000     2.0000 </r>
       <r>   -10.4019    -0.0000     2.0000 </r>
       <r>   -10.3299    -0.0000     2.0000 </r>
       <r>   -10.2578    -0.0000     2.0000 </r>
       <r>   -10.1858    -0.0000     2.0000 </r>
       <r>   -10.1137    -0.0000     2.0000 </r>
       <r>   -10.0417    -0.0004     2.0000 </r>
       <r>    -9.9696    -0.0032     1.9997 </r>
       <r>    -9.8976    -0.0195     1.9983 </r>
       <r>    -9.8255    -0.0877     1.9920 </r>
       <r>    -9.7535    -0.2834     1.9716 </r>
       <r>    -9.6814    -0.6187     1.9270 </r>
       <r>    -9.6094    -0.7106     1.8758 </r>
       <r>    -9.5373     0.5258     1.9137 </r>
       <r>    -9.4653     4.4015     2.2308 </r>
       <r>    -9.3932    10.9636     3.0208 </r>
       <r>    -9.3212    17.7977     4.3032 </r>
       <r>    -9.2491    20.9265     5.8110 </r>
       <r>    -9.1770    17.9588     7.1049 </r>
       <r>    -9.1050    10.6971     7.8757 </r>
       <r>    -9.0329     3.6738     8.1404 </r>
       <r>    -8.9609    -0.1004     8.1331 </r>
       <r>    -8.8888    -0.9408     8.0654 </r>
       <r>    -8.8168    -0.6050     8.0218 </r>
       <r>    -8.7447    -0.2291     8.0053 </r>
       <r>    -8.6727    -0.0599     8.0009 </r>
       <r>    -8.6006    -0.0114     8.0001 </r>
       <r>    -8.5286    -0.0016     8.0000 </r>
       <r>    -8.4565    -0.0002     8.0000 </r>
       <r>    -8.3845    -0.0000     8.0000 </r>
       <r>    -8.3124    -0.0000     8.0000 </r>
       <r>    -8.2404    -0.0000     8.0000 </r>
       <r>    -8.1683    -0.0000     8.0000 </r>
       <r>    -8.0963    -0.0000     8.0000 </r>
       <r>    -8.0242    -0.0000     8.0000 </r>
       <r>    -7.9522    -0.0000     8.0000 </r>
       <r>    -7.8801     0.0000     8.0000 </r>
       <r>    -7.8081     0.0000     8.0000 </r>
       <r>    -7.7360     0.0000     8.0000 </r>
       <r>    -7.6639     0.0000     8.0000 </r>
       <r>    -7.5919     0.0000     8.0000 </r>
       <r>    -7.5198     0.0000     8.0000 </r>
       <r>    -7.4478     0.0000     8.0000 </r>
       <r>    -7.3757     0.0000     8.0000 </r>
       <r>    -7.3037     0.0000     8.0000 </r>
       <r>    -7.2316     0.0000     8.0000 </r>
       <r>    -7.1596     0.0000     8.0000 </r>
       <r>    -7.0875     0.0000     8.0000 </r>
       <r>    -7.0155     0.0000     8.0000 </r>
       <r>    -6.9434     0.0000     8.0000 </r>
       <r>    -6.8714     0.0000     8.0000 </r>
       <r>    -6.7993     0.0000     8.0000 </r>
       <r>    -6.7273     0.0000     8.0000 </r>
       <r>    -6.6552     0.0000     8.0000 </r>
       <r>    -6.5832     0.0000     8.0000 </r>
       <r>    -6.5111     0.0000     8.0000 </r>
       <r>    -6.4391     0.0000     8.0000 </r>
       <r>    -6.3670     0.0000     8.0000 </r>
       <r>    -6.2950     0.0000     8.0000 </r>
       <r>    -6.2229     0.0000     8.0000 </r>
       <r>    -6.1509     0.0000     8.0000 </r>
       <r>    -6.0788     0.0000     8.0000 </r>
       <r>    -6.0067     0.0000     8.0000 </r>
       <r>    -5.9347     0.0000     8.0000 </r>
       <r>    -5.8626     0.0000     8.0000 </r>
       <r>    -5.7906     0.0000     8.0000 </r>
       <r>    -5.7185     0.0000     8.0000 </r>
       <r>    -5.6465     0.0000     8.0000 </r>
       <r>    -5.5744     0.0000     8.0000 </r>
       <r>    -5.5024     0.0000     8.0000 </r>
       <r>    -5.4303     0.0000     8.0000 </r>
       <r>    -5.3583     0.0000     8.0000 </r>
       <r>    -5.2862     0.0000     8.0000 </r>
       <r>    -5.2142     0.0000     8.0000 </r>
       <r>    -5.1421     0.0000     8.0000 </r>
       <r>    -5.0701     0.0000     8.0000 </r>
       <r>    -4.9980     0.0000     8.0000 </r>
       <r>    -4.9260     0.0000     8.0000 </r>
       <r>    -4.8539     0.0000     8.0000 </r>
       <r>    -4.7819     0.0000     8.0000 </r>
       <r>    -4.7098     0.0000     8.0000 </r>
       <r>    -4.6378     0.0000     8.0000 </r>
       <r>    -4.5657     0.0000     8.0000 </r>
       <r>    -4.4936     0.0000     8.0000 </r>
       <r>    -4.4216     0.0000     8.0000 </r>
       <r>    -4.3495     0.0000     8.0000 </r>
       <r>    -4.2775     0.0000     8.0000 </r>
       <r>    -4.2054     0.0000     8.0000 </r>
       <r>    -4.1334     0.0000     8.0000 </r>
       <r>    -4.0613     0.0000     8.0000 </r>
       <r>    -3.9893     0.0000     8.0000 </r>
       <r>    -3.9172     0.0000     8.0000 </r>
       <r>    -3.8452     0.0000     8.0000 </r>
       <r>    -3.7731     0.0000     8.0000 </r>
       <r>    -3.7011     0.0000     8.0000 </r>
       <r>    -3.6290     0.0000     8.0000 </r>
       <r>    -3.5570     0.0000     8.0000 </r>
       <r>    -3.4849     0.0000     8.0000 </r>
       <r>    -3.4129     0.0000     8.0000 </r>
       <r>    -3.3408     0.0000     8.0000 </r>
       <r>    -3.2688     0.0000     8.0000 </r>
       <r>    -3.1967     0.0000     8.0000 </r>
       <r>    -3.1247     0.0000     8.0000 </r>
       <r>    -3.0526     0.0000     8.0000 </r>
       <r>    -2.9806     0.0000     8.0000 </r>
       <r>    -2.9085     0.0000     8.0000 </r>
       <r>    -2.8364     0.0000     8.0000 </r>
       <r>    -2.7644     0.0000     8.0000 </r>
       <r>    -2.6923     0.0000     8.0000 </r>
       <r>    -2.6203     0.0000     8.0000 </r>
       <r>    -2.5482     0.0000     8.0000 </r>
       <r>    -2.4762     0.0000     8.0000 </r>
       <r>    -2.4041     0.0000     8.0000 </r>
       <r>    -2.3321     0.0000     8.0000 </r>
       <r>    -2.2600     0.0000     8.0000 </r>
       <r>    -2.1880     0.0000     8.0000 </r>
       <r>    -2.1159     0.0000     8.0000 </r>
       <r>    -2.0439     0.0000     8.0000 </r>
       <r>    -1.9718    -0.0000     8.0000 </r>
       <r>    -1.8998    -0.0000     8.0000 </r>
       <r>    -1.8277    -0.0000     8.0000 </r>
       <r>    -1.7557    -0.0000     8.0000 </r>
       <r>    -1.6836    -0.0000     8.0000 </r>
       <r>    -1.6116    -0.0000     8.0000 </r>
       <r>    -1.5395    -0.0000     8.0000 </r>
       <r>    -1.4675    -0.0000     8.0000 </r>
       <r>    -1.3954    -0.0000     8.0000 </r>
       <r>    -1.3233    -0.0000     8.0000 </r>
       <r>    -1.2513    -0.0000     8.0000 </r>
       <r>    -1.1792    -0.0000     8.0000 </r>
       <r>    -1.1072    -0.0000     8.0000 </r>
       <r>    -1.0351    -0.0000     8.0000 </r>
       <r>    -0.9631    -0.0005     8.0000 </r>
       <r>    -0.8910    -0.0039     7.9997 </r>
       <r>    -0.8190    -0.0221     7.9981 </r>
       <r>    -0.7469    -0.0913     7.9915 </r>
       <r>    -0.6749    -0.2594     7.9728 </r>
       <r>    -0.6028    -0.4361     7.9414 </r>
       <r>    -0.5308    -0.0946     7.9346 </r>
       <r>    -0.4587     1.6425     8.0529 </r>
       <r>    -0.3867     4.8680     8.4037 </r>
       <r>    -0.3146     7.7804     8.9643 </r>
       <r>    -0.2426     7.9763     9.5390 </r>
       <r>    -0.1705     5.2775     9.9192 </r>
       <r>    -0.0985     1.9597    10.0605 </r>
       <r>    -0.0264     0.0186    10.0618 </r>
       <r>     0.0456    -0.4571    10.0289 </r>
       <r>     0.1177    -0.3684    10.0023 </r>
       <r>     0.1897    -0.3831     9.9747 </r>
       <r>     0.2618    -0.6556     9.9275 </r>
       <r>     0.3339    -0.7849     9.8709 </r>
       <r>     0.4059     0.3848     9.8986 </r>
       <r>     0.4780     4.3355    10.2110 </r>
       <r>     0.5500    11.2433    11.0211 </r>
       <r>     0.6221    18.4560    12.3509 </r>
       <r>     0.6941    21.5109    13.9008 </r>
       <r>     0.7662    17.9693    15.1956 </r>
       <r>     0.8382    10.1945    15.9301 </r>
       <r>     0.9103     3.1400    16.1563 </r>
       <r>     0.9823    -0.3595    16.1304 </r>
       <r>     1.0544    -0.9752    16.0602 </r>
       <r>     1.1264    -0.5707    16.0191 </r>
       <r>     1.1985    -0.2035    16.0044 </r>
       <r>     1.2705    -0.0505    16.0008 </r>
       <r>     1.3426    -0.0091    16.0001 </r>
       <r>     1.4146    -0.0012    16.0000 </r>
       <r>     1.4867    -0.0001    16.0000 </r>
       <r>     1.5587    -0.0000    16.0000 </r>
       <r>     1.6308    -0.0000    16.0000 </r>
       <r>     1.7028    -0.0000    16.0000 </r>
       <r>     1.7749    -0.0000    16.0000 </r>
       <r>     1.8469    -0.0000    16.0000 </r>
       <r>     1.9190    -0.0000    16.0000 </r>
       <r>     1.9911    -0.0000    16.0000 </r>
       <r>     2.0631     0.0000    16.0000 </r>
       <r>     2.1352     0.0000    16.0000 </r>
       <r>     2.2072     0.0000    16.0000 </r>
       <r>     2.2793     0.0000    16.0000 </r>
       <r>     2.3513     0.0000    16.0000 </r>
       <r>     2.4234     0.0000    16.0000 </r>
       <r>     2.4954     0.0000    16.0000 </r>
       <r>     2.5675     0.0000    16.0000 </r>
       <r>     2.6395     0.0000    16.0000 </r>
       <r>     2.7116     0.0000    16.0000 </r>
      </set>
     </set>
    </array>
   </total>
  </dos>
  <time name="totalsc">   89.84   90.06</time>
 </calculation>
 <calculation>
  <scstep>
   <time name="dav">    1.95    1.95</time>
   <time name="total">    3.82    3.83</time>
   <energy>
    <i name="alphaZ">      0.24455017 </i>
    <i name="ewald">    130.60231346 </i>
    <i name="hartreedc">   -285.69937301 </i>
    <i name="XCdc">     24.82021719 </i>
    <i name="pawpsdc">    468.99476611 </i>
    <i name="pawaedc">   -469.78653567 </i>
    <i name="eentropy">      0.01877502 </i>
    <i name="bandstr">    -90.25970264 </i>
    <i name="atom">    197.04175453 </i>
    <i name="e_fr_energy">    -24.02323483 </i>
    <i name="e_wo_entrp">    -24.04200986 </i>
    <i name="e_0_energy">    -24.02949317 </i>
   </energy>
  </scstep>
  <scstep>
   <time name="diag">    0.42    0.42</time>
   <time name="diis">    1.39    1.39</time>
   <time name="orth">    0.01    0.01</time>
   <time name="total">    3.56    3.57</time>
   <energy>
    <i name="e_fr_energy">    -24.03516853 </i>
    <i name="e_wo_entrp">    -24.05728827 </i>
    <i name="e_0_energy">    -24.04254178 </i>
   </energy>
  </scstep>
  <scstep>
   <time name="diag">    0.43    0.44</time>
   <time name="diis">    1.47    1.47</time>
   <time name="orth">    0.01    0.01</time>
   <time name="total">    3.65    3.66</time>
   <energy>
    <i name="e_fr_energy">    -24.02123278 </i>
    <i name="e_wo_entrp">    -24.04951239 </i>
    <i name="e_0_energy">    -24.03065932 </i>
   </energy>
  </scstep>
  <scstep>
   <time name="diag">    0.41    0.41</time>
   <time name="diis">    1.46    1.47</time>
   <time name="orth">    0.01    0.01</time>
   <time name="total">    3.70    3.71</time>
   <energy>
    <i name="e_fr_energy">    -24.01020279 </i>
    <i name="e_wo_entrp">    -24.03994704 </i>
    <i name="e_0_energy">    -24.02011754 </i>
   </energy>
  </scstep>
  <scstep>
   <time name="diag">    0.43    0.43</time>
   <time name="diis">    1.47    1.47</time>
   <time name="orth">    0.01    0.01</time>
   <time name="total">    3.73    3.74</time>
   <energy>
    <i name="e_fr_energy">    -24.01314822 </i>
    <i name="e_wo_entrp">    -24.04000299 </i>
    <i name="e_0_energy">    -24.02209981 </i>
   </energy>
  </scstep>
  <scstep>
   <time name="diag">    0.42    0.43</time>
   <time name="diis">    1.45    1.46</time>
   <time name="orth">    0.01    0.01</time>
   <time name="total">    3.77    3.78</time>
   <energy>
    <i name="e_fr_energy">    -24.01414214 </i>
    <i name="e_wo_entrp">    -24.04295270 </i>
    <i name="e_0_energy">    -24.02374566 </i>
   </energy>
  </scstep>
  <scstep>
   <time name="diag">    0.45    0.45</time>
   <time name="diis">    1.44    1.45</time>
   <time name="orth">    0.01    0.01</time>
   <time name="total">    3.76    3.77</time>
   <energy>
    <i name="e_fr_energy">    -24.01379654 </i>
    <i name="e_wo_entrp">    -24.04295165 </i>
    <i name="e_0_energy">    -24.02351491 </i>
   </energy>
  </scstep>
  <scstep>
   <time name="diag">    0.47    0.48</time>
   <time name="diis">    1.44    1.45</time>
   <time name="orth">    0.01    0.01</time>
   <time name="total">    3.76    3.77</time>
   <energy>
    <i name="e_fr_energy">    -24.01416354 </i>
    <i name="e_wo_entrp">    -24.04285678 </i>
    <i name="e_0_energy">    -24.02372795 </i>
   </energy>
  </scstep>
  <scstep>
   <time name="diag">    0.48    0.48</time>
   <time name="diis">    1.46    1.46</time>
   <time name="orth">    0.01    0.01</time>
   <time name="total">    3.79    3.80</time>
   <energy>
    <i name="e_fr_energy">    -24.01432492 </i>
    <i name="e_wo_entrp">    -24.04337788 </i>
    <i name="e_0_energy">    -24.02400924 </i>
   </energy>
  </scstep>
  <scstep>
   <time name="diag">    0.48    0.48</time>
   <time name="diis">    1.46    1.46</time>
   <time name="orth">    0.01    0.01</time>
   <time name="total">    3.84    3.85</time>
   <energy>
    <i name="e_fr_energy">    -24.01432384 </i>
    <i name="e_wo_entrp">    -24.04311985 </i>
    <i name="e_0_energy">    -24.02392251 </i>
   </energy>
  </scstep>
  <scstep>
   <time name="diag">    0.47    0.47</time>
   <time name="diis">    1.47    1.47</time>
   <time name="orth">    0.01    0.01</time>
   <time name="total">    3.86    3.87</time>
   <energy>
    <i name="e_fr_energy">    -24.01435762 </i>
    <i name="e_wo_entrp">    -24.04310119 </i>
    <i name="e_0_energy">    -24.02393881 </i>
   </energy>
  </scstep>
  <scstep>
   <time name="diag">    0.45    0.45</time>
   <time name="diis">    1.51    1.51</time>
   <time name="orth">    0.01    0.01</time>
   <time name="total">    3.89    3.90</time>
   <energy>
    <i name="e_fr_energy">    -24.01437580 </i>
    <i name="e_wo_entrp">    -24.04308189 </i>
    <i name="e_0_energy">    -24.02394450 </i>
   </energy>
  </scstep>
  <scstep>
   <time name="diag">    0.45    0.46</time>
   <time name="diis">    1.50    1.50</time>
   <time name="orth">    0.01    0.01</time>
   <time name="total">    3.89    3.90</time>
   <energy>
    <i name="e_fr_energy">    -24.01439301 </i>
    <i name="e_wo_entrp">    -24.04304097 </i>
    <i name="e_0_energy">    -24.02394233 </i>
   </energy>
  </scstep>
  <scstep>
   <time name="diag">    0.46    0.46</time>
   <time name="diis">    1.47    1.47</time>
   <time name="orth">    0.01    0.01</time>
   <time name="total">    3.85    3.86</time>
   <energy>
    <i name="e_fr_energy">    -24.01440124 </i>
    <i name="e_wo_entrp">    -24.04302801 </i>
    <i name="e_0_energy">    -24.02394350 </i>
   </energy>
  </scstep>
  <scstep>
   <time name="diag">    0.46    0.46</time>
   <time name="diis">    1.16    1.16</time>
   <time name="orth">    0.01    0.01</time>
   <time name="total">    3.59    3.59</time>
   <energy>
    <i name="e_fr_energy">    -24.01440815 </i>
    <i name="e_wo_entrp">    -24.04303439 </i>
    <i name="e_0_energy">    -24.02395023 </i>
   </energy>
  </scstep>
  <scstep>
   <time name="diag">    0.43    0.43</time>
   <time name="diis">    1.14    1.15</time>
   <time name="orth">    0.01    0.01</time>
   <time name="total">    3.55    3.56</time>
   <energy>
    <i name="e_fr_energy">    -24.01440925 </i>
    <i name="e_wo_entrp">    -24.04303495 </i>
    <i name="e_0_energy">    -24.02395115 </i>
   </energy>
  </scstep>
  <scstep>
   <time name="diag">    0.44    0.45</time>
   <time name="diis">    1.09    1.09</time>
   <time name="orth">    0.01    0.01</time>
   <time name="total">    3.24    3.25</time>
   <energy>
    <i name="alphaZ">      0.24455017 </i>
    <i name="ewald">    130.60231346 </i>
    <i name="hartreedc">   -286.15135096 </i>
    <i name="XCdc">     24.84670054 </i>
    <i name="pawpsdc">    482.93116762 </i>
    <i name="pawaedc">   -483.72782992 </i>
    <i name="eentropy">      0.02862611 </i>
    <i name="bandstr">    -89.83034172 </i>
    <i name="atom">    197.04175453 </i>
    <i name="e_fr_energy">    -24.01441016 </i>
    <i name="e_wo_entrp">    -24.04303628 </i>
    <i name="e_0_energy">    -24.02395220 </i>
   </energy>
  </scstep>
  <structure>
   <crystal>
    <varray name="basis" >
     <v>       9.75683482       0.00000000       0.00000000 </v>
     <v>       0.10884809       9.93225665       0.00000000 </v>
     <v>       0.00890039       0.16858278      10.22210524 </v>
    </varray>
    <i name="volume">    990.59751364 </i>
    <varray name="rec_basis" >
     <v>       0.10249225      -0.00112322      -0.00007072 </v>
     <v>       0.00000000       0.10068205      -0.00166045 </v>
     <v>       0.00000000       0.00000000       0.09782721 </v>
    </varray>
   </crystal>
   <varray name="positions" >
    <v>       0.53874995       0.40736614       0.36271631 </v>
    <v>       0.39184594       0.48167472       0.43881726 </v>
    <v>       0.55313634       0.56410966       0.44224167 </v>
    <v>       0.52438851       0.41810012       0.53774878 </v>
    <v>       0.50373871       0.46709218       0.44520611 </v>
   </varray>
  </structure>
  <varray name="forces" >
   <v>       0.41321721      -0.52468471      -1.67721823 </v>
   <v>       1.05624364      -0.17103133      -0.35008547 </v>
   <v>       0.73091835       0.83600250      -0.14107408 </v>
   <v>       0.05271442      -0.37480340       0.47136259 </v>
   <v>      -1.19441842       0.90502771      -0.34273727 </v>
  </varray>
  <varray name="stress" >
   <v>       0.56175464       0.47126813       0.53709025 </v>
   <v>       0.47126813       1.18596798       0.17049446 </v>
   <v>       0.53709025       0.17049446       2.03484245 </v>
  </varray>
  <energy>
   <i name="e_fr_energy">    -24.01441016 </i>
   <i name="e_wo_entrp">    -24.02395220 </i>
   <i name="e_0_energy">      0.02862611 </i>
   <i name="kinetic">      0.03921080 </i>
   <i name="lattice kinetic">      0.00000000 </i>
   <i name="nosepot">      0.00006519 </i>
   <i name="nosekinetic">      0.00004163 </i>
   <i name="total">    -23.97509254 </i>
  </energy>
  <dos>
   <i name="efermi">     -9.06581989 </i>
   <total>
    <array>
     <dimension dim="1">gridpoints</dimension>
     <dimension dim="2">spin</dimension>
     <field>energy</field>
     <field>total</field>
     <field>integrated</field>
     <set>
      <set comment="spin 1">
       <r>   -18.9539     0.0000     0.0000 </r>
       <r>   -18.8817     0.0000     0.0000 </r>
       <r>   -18.8094     0.0000     0.0000 </r>
       <r>   -18.7372     0.0000     0.0000 </r>
       <r>   -18.6650     0.0000     0.0000 </r>
       <r>   -18.5927    -0.0000    -0.0000 </r>
       <r>   -18.5205    -0.0000    -0.0000 </r>
       <r>   -18.4482    -0.0000    -0.0000 </r>
       <r>   -18.3760    -0.0000    -0.0000 </r>
       <r>   -18.3038    -0.0000    -0.0000 </r>
       <r>   -18.2315    -0.0000    -0.0000 </r>
       <r>   -18.1593    -0.0000    -0.0000 </r>
       <r>   -18.0870    -0.0000    -0.0000 </r>
       <r>   -18.0148    -0.0000    -0.0000 </r>
       <r>   -17.9425    -0.0000    -0.0000 </r>
       <r>   -17.8703    -0.0000    -0.0000 </r>
       <r>   -17.7981    -0.0000    -0.0000 </r>
       <r>   -17.7258    -0.0000    -0.0000 </r>
       <r>   -17.6536    -0.0001    -0.0000 </r>
       <r>   -17.5813    -0.0011    -0.0001 </r>
       <r>   -17.5091    -0.0074    -0.0006 </r>
       <r>   -17.4369    -0.0380    -0.0034 </r>
       <r>   -17.3646    -0.1389    -0.0134 </r>
       <r>   -17.2924    -0.3373    -0.0378 </r>
       <r>   -17.2201    -0.4173    -0.0679 </r>
       <r>   -17.1479     0.3385    -0.0435 </r>
       <r>   -17.0757     2.7079     0.1522 </r>
       <r>   -17.0034     6.1281     0.5949 </r>
       <r>   -16.9312     8.2513     1.1910 </r>
       <r>   -16.8589     7.2116     1.7119 </r>
       <r>   -16.7867     3.9516     1.9974 </r>
       <r>   -16.7144     1.0142     2.0707 </r>
       <r>   -16.6422    -0.2865     2.0500 </r>
       <r>   -16.5700    -0.4074     2.0205 </r>
       <r>   -16.4977    -0.2038     2.0058 </r>
       <r>   -16.4255    -0.0640     2.0012 </r>
       <r>   -16.3532    -0.0141     2.0002 </r>
       <r>   -16.2810    -0.0022     2.0000 </r>
       <r>   -16.2088    -0.0003     2.0000 </r>
       <r>   -16.1365    -0.0000     2.0000 </r>
       <r>   -16.0643    -0.0000     2.0000 </r>
       <r>   -15.9920    -0.0000     2.0000 </r>
       <r>   -15.9198    -0.0000     2.0000 </r>
       <r>   -15.8475    -0.0000     2.0000 </r>
       <r>   -15.7753    -0.0000     2.0000 </r>
       <r>   -15.7031    -0.0000     2.0000 </r>
       <r>   -15.6308     0.0000     2.0000 </r>
       <r>   -15.5586     0.0000     2.0000 </r>
       <r>   -15.4863     0.0000     2.0000 </r>
       <r>   -15.4141     0.0000     2.0000 </r>
       <r>   -15.3419     0.0000     2.0000 </r>
       <r>   -15.2696     0.0000     2.0000 </r>
       <r>   -15.1974     0.0000     2.0000 </r>
       <r>   -15.1251     0.0000     2.0000 </r>
       <r>   -15.0529     0.0000     2.0000 </r>
       <r>   -14.9807     0.0000     2.0000 </r>
       <r>   -14.9084     0.0000     2.0000 </r>
       <r>   -14.8362     0.0000     2.0000 </r>
       <r>   -14.7639     0.0000     2.0000 </r>
       <r>   -14.6917     0.0000     2.0000 </r>
       <r>   -14.6194     0.0000     2.0000 </r>
       <r>   -14.5472     0.0000     2.0000 </r>
       <r>   -14.4750     0.0000     2.0000 </r>
       <r>   -14.4027     0.0000     2.0000 </r>
       <r>   -14.3305     0.0000     2.0000 </r>
       <r>   -14.2582     0.0000     2.0000 </r>
       <r>   -14.1860     0.0000     2.0000 </r>
       <r>   -14.1138     0.0000     2.0000 </r>
       <r>   -14.0415     0.0000     2.0000 </r>
       <r>   -13.9693     0.0000     2.0000 </r>
       <r>   -13.8970     0.0000     2.0000 </r>
       <r>   -13.8248     0.0000     2.0000 </r>
       <r>   -13.7526     0.0000     2.0000 </r>
       <r>   -13.6803     0.0000     2.0000 </r>
       <r>   -13.6081     0.0000     2.0000 </r>
       <r>   -13.5358     0.0000     2.0000 </r>
       <r>   -13.4636     0.0000     2.0000 </r>
       <r>   -13.3913     0.0000     2.0000 </r>
       <r>   -13.3191     0.0000     2.0000 </r>
       <r>   -13.2469     0.0000     2.0000 </r>
       <r>   -13.1746     0.0000     2.0000 </r>
       <r>   -13.1024     0.0000     2.0000 </r>
       <r>   -13.0301     0.0000     2.0000 </r>
       <r>   -12.9579     0.0000     2.0000 </r>
       <r>   -12.8857     0.0000     2.0000 </r>
       <r>   -12.8134     0.0000     2.0000 </r>
       <r>   -12.7412     0.0000     2.0000 </r>
       <r>   -12.6689     0.0000     2.0000 </r>
       <r>   -12.5967     0.0000     2.0000 </r>
       <r>   -12.5245     0.0000     2.0000 </r>
       <r>   -12.4522     0.0000     2.0000 </r>
       <r>   -12.3800     0.0000     2.0000 </r>
       <r>   -12.3077     0.0000     2.0000 </r>
       <r>   -12.2355     0.0000     2.0000 </r>
       <r>   -12.1632     0.0000     2.0000 </r>
       <r>   -12.0910     0.0000     2.0000 </r>
       <r>   -12.0188     0.0000     2.0000 </r>
       <r>   -11.9465     0.0000     2.0000 </r>
       <r>   -11.8743     0.0000     2.0000 </r>
       <r>   -11.8020     0.0000     2.0000 </r>
       <r>   -11.7298     0.0000     2.0000 </r>
       <r>   -11.6576     0.0000     2.0000 </r>
       <r>   -11.5853     0.0000     2.0000 </r>
       <r>   -11.5131     0.0000     2.0000 </r>
       <r>   -11.4408     0.0000     2.0000 </r>
       <r>   -11.3686     0.0000     2.0000 </r>
       <r>   -11.2963     0.0000     2.0000 </r>
       <r>   -11.2241     0.0000     2.0000 </r>
       <r>   -11.1519     0.0000     2.0000 </r>
       <r>   -11.0796    -0.0000     2.0000 </r>
       <r>   -11.0074    -0.0000     2.0000 </r>
       <r>   -10.9351    -0.0000     2.0000 </r>
       <r>   -10.8629    -0.0000     2.0000 </r>
       <r>   -10.7907    -0.0000     2.0000 </r>
       <r>   -10.7184    -0.0000     2.0000 </r>
       <r>   -10.6462    -0.0000     2.0000 </r>
       <r>   -10.5739    -0.0000     2.0000 </r>
       <r>   -10.5017    -0.0000     2.0000 </r>
       <r>   -10.4295    -0.0000     2.0000 </r>
       <r>   -10.3572    -0.0000     2.0000 </r>
       <r>   -10.2850    -0.0000     2.0000 </r>
       <r>   -10.2127    -0.0000     2.0000 </r>
       <r>   -10.1405    -0.0004     2.0000 </r>
       <r>   -10.0682    -0.0031     1.9997 </r>
       <r>    -9.9960    -0.0184     1.9984 </r>
       <r>    -9.9238    -0.0796     1.9927 </r>
       <r>    -9.8515    -0.2404     1.9753 </r>
       <r>    -9.7793    -0.4541     1.9425 </r>
       <r>    -9.7070    -0.2990     1.9209 </r>
       <r>    -9.6348     1.0165     1.9943 </r>
       <r>    -9.5626     3.7845     2.2677 </r>
       <r>    -9.4903     7.0390     2.7762 </r>
       <r>    -9.4181     9.7899     3.4835 </r>
       <r>    -9.3458    12.5398     4.3894 </r>
       <r>    -9.2736    15.4588     5.5061 </r>
       <r>    -9.2014    16.1682     6.6741 </r>
       <r>    -9.1291    12.5127     7.5781 </r>
       <r>    -9.0569     6.2974     8.0330 </r>
       <r>    -8.9846     1.3721     8.1321 </r>
       <r>    -8.9124    -0.6238     8.0871 </r>
       <r>    -8.8401    -0.7198     8.0351 </r>
       <r>    -8.7679    -0.3482     8.0099 </r>
       <r>    -8.6957    -0.1088     8.0021 </r>
       <r>    -8.6234    -0.0241     8.0003 </r>
       <r>    -8.5512    -0.0039     8.0000 </r>
       <r>    -8.4789    -0.0005     8.0000 </r>
       <r>    -8.4067    -0.0000     8.0000 </r>
       <r>    -8.3345    -0.0000     8.0000 </r>
       <r>    -8.2622    -0.0000     8.0000 </r>
       <r>    -8.1900    -0.0000     8.0000 </r>
       <r>    -8.1177    -0.0000     8.0000 </r>
       <r>    -8.0455    -0.0000     8.0000 </r>
       <r>    -7.9732    -0.0000     8.0000 </r>
       <r>    -7.9010     0.0000     8.0000 </r>
       <r>    -7.8288     0.0000     8.0000 </r>
       <r>    -7.7565     0.0000     8.0000 </r>
       <r>    -7.6843     0.0000     8.0000 </r>
       <r>    -7.6120     0.0000     8.0000 </r>
       <r>    -7.5398     0.0000     8.0000 </r>
       <r>    -7.4676     0.0000     8.0000 </r>
       <r>    -7.3953     0.0000     8.0000 </r>
       <r>    -7.3231     0.0000     8.0000 </r>
       <r>    -7.2508     0.0000     8.0000 </r>
       <r>    -7.1786     0.0000     8.0000 </r>
       <r>    -7.1064     0.0000     8.0000 </r>
       <r>    -7.0341     0.0000     8.0000 </r>
       <r>    -6.9619     0.0000     8.0000 </r>
       <r>    -6.8896     0.0000     8.0000 </r>
       <r>    -6.8174     0.0000     8.0000 </r>
       <r>    -6.7451     0.0000     8.0000 </r>
       <r>    -6.6729     0.0000     8.0000 </r>
       <r>    -6.6007     0.0000     8.0000 </r>
       <r>    -6.5284     0.0000     8.0000 </r>
       <r>    -6.4562     0.0000     8.0000 </r>
       <r>    -6.3839     0.0000     8.0000 </r>
       <r>    -6.3117     0.0000     8.0000 </r>
       <r>    -6.2395     0.0000     8.0000 </r>
       <r>    -6.1672     0.0000     8.0000 </r>
       <r>    -6.0950     0.0000     8.0000 </r>
       <r>    -6.0227     0.0000     8.0000 </r>
       <r>    -5.9505     0.0000     8.0000 </r>
       <r>    -5.8783     0.0000     8.0000 </r>
       <r>    -5.8060     0.0000     8.0000 </r>
       <r>    -5.7338     0.0000     8.0000 </r>
       <r>    -5.6615     0.0000     8.0000 </r>
       <r>    -5.5893     0.0000     8.0000 </r>
       <r>    -5.5170     0.0000     8.0000 </r>
       <r>    -5.4448     0.0000     8.0000 </r>
       <r>    -5.3726     0.0000     8.0000 </r>
       <r>    -5.3003     0.0000     8.0000 </r>
       <r>    -5.2281     0.0000     8.0000 </r>
       <r>    -5.1558     0.0000     8.0000 </r>
       <r>    -5.0836     0.0000     8.0000 </r>
       <r>    -5.0114     0.0000     8.0000 </r>
       <r>    -4.9391     0.0000     8.0000 </r>
       <r>    -4.8669     0.0000     8.0000 </r>
       <r>    -4.7946     0.0000     8.0000 </r>
       <r>    -4.7224     0.0000     8.0000 </r>
       <r>    -4.6502     0.0000     8.0000 </r>
       <r>    -4.5779     0.0000     8.0000 </r>
       <r>    -4.5057     0.0000     8.0000 </r>
       <r>    -4.4334     0.0000     8.0000 </r>
       <r>    -4.3612     0.0000     8.0000 </r>
       <r>    -4.2889     0.0000     8.0000 </r>
       <r>    -4.2167     0.0000     8.0000 </r>
       <r>    -4.1445     0.0000     8.0000 </r>
       <r>    -4.0722     0.0000     8.0000 </r>
       <r>    -4.0000     0.0000     8.0000 </r>
       <r>    -3.9277     0.0000     8.0000 </r>
       <r>    -3.8555     0.0000     8.0000 </r>
       <r>    -3.7833     0.0000     8.0000 </r>
       <r>    -3.7110     0.0000     8.0000 </r>
       <r>    -3.6388     0.0000     8.0000 </r>
       <r>    -3.5665     0.0000     8.0000 </r>
       <r>    -3.4943     0.0000     8.0000 </r>
       <r>    -3.4220     0.0000     8.0000 </r>
       <r>    -3.3498     0.0000     8.0000 </r>
       <r>    -3.2776     0.0000     8.0000 </r>
       <r>    -3.2053     0.0000     8.0000 </r>
       <r>    -3.1331     0.0000     8.0000 </r>
       <r>    -3.0608     0.0000     8.0000 </r>
       <r>    -2.9886     0.0000     8.0000 </r>
       <r>    -2.9164     0.0000     8.0000 </r>
       <r>    -2.8441     0.0000     8.0000 </r>
       <r>    -2.7719     0.0000     8.0000 </r>
       <r>    -2.6996     0.0000     8.0000 </r>
       <r>    -2.6274     0.0000     8.0000 </r>
       <r>    -2.5552     0.0000     8.0000 </r>
       <r>    -2.4829     0.0000     8.0000 </r>
       <r>    -2.4107     0.0000     8.0000 </r>
       <r>    -2.3384     0.0000     8.0000 </r>
       <r>    -2.2662     0.0000     8.0000 </r>
       <r>    -2.1939     0.0000     8.0000 </r>
       <r>    -2.1217     0.0000     8.0000 </r>
       <r>    -2.0495     0.0000     8.0000 </r>
       <r>    -1.9772     0.0000     8.0000 </r>
       <r>    -1.9050    -0.0000     8.0000 </r>
       <r>    -1.8327    -0.0000     8.0000 </r>
       <r>    -1.7605    -0.0000     8.0000 </r>
       <r>    -1.6883    -0.0000     8.0000 </r>
       <r>    -1.6160    -0.0000     8.0000 </r>
       <r>    -1.5438    -0.0000     8.0000 </r>
       <r>    -1.4715    -0.0000     8.0000 </r>
       <r>    -1.3993    -0.0000     8.0000 </r>
       <r>    -1.3271    -0.0000     8.0000 </r>
       <r>    -1.2548    -0.0000     8.0000 </r>
       <r>    -1.1826    -0.0000     8.0000 </r>
       <r>    -1.1103    -0.0000     8.0000 </r>
       <r>    -1.0381    -0.0000     8.0000 </r>
       <r>    -0.9658    -0.0003     8.0000 </r>
       <r>    -0.8936    -0.0027     7.9998 </r>
       <r>    -0.8214    -0.0162     7.9986 </r>
       <r>    -0.7491    -0.0717     7.9934 </r>
       <r>    -0.6769    -0.2206     7.9775 </r>
       <r>    -0.6046    -0.4191     7.9472 </r>
       <r>    -0.5324    -0.2350     7.9302 </r>
       <r>    -0.4602     1.2037     8.0172 </r>
       <r>    -0.3879     4.2485     8.3241 </r>
       <r>    -0.3157     7.4170     8.8599 </r>
       <r>    -0.2434     8.1831     9.4511 </r>
       <r>    -0.1712     5.8496     9.8737 </r>
       <r>    -0.0990     2.4448    10.0503 </r>
       <r>    -0.0267     0.2167    10.0659 </r>
       <r>     0.0455    -0.4447    10.0338 </r>
       <r>     0.1178    -0.3921    10.0055 </r>
       <r>     0.1900    -0.3771     9.9782 </r>
       <r>     0.2623    -0.6245     9.9331 </r>
       <r>     0.3345    -0.7978     9.8755 </r>
       <r>     0.4067     0.1897     9.8892 </r>
       <r>     0.4790     3.8419    10.1667 </r>
       <r>     0.5512    10.5447    10.9285 </r>
       <r>     0.6235    17.9204    12.2231 </r>
       <r>     0.6957    21.5130    13.7772 </r>
       <r>     0.7679    18.4970    15.1135 </r>
       <r>     0.8402    10.8445    15.8969 </r>
       <r>     0.9124     3.5459    16.1531 </r>
       <r>     0.9847    -0.2399    16.1357 </r>
       <r>     1.0569    -0.9908    16.0642 </r>
       <r>     1.1292    -0.6024    16.0206 </r>
       <r>     1.2014    -0.2190    16.0048 </r>
       <r>     1.2736    -0.0550    16.0008 </r>
       <r>     1.3459    -0.0100    16.0001 </r>
       <r>     1.4181    -0.0014    16.0000 </r>
       <r>     1.4904    -0.0001    16.0000 </r>
       <r>     1.5626    -0.0000    16.0000 </r>
       <r>     1.6348    -0.0000    16.0000 </r>
       <r>     1.7071    -0.0000    16.0000 </r>
       <r>     1.7793    -0.0000    16.0000 </r>
       <r>     1.8516    -0.0000    16.0000 </r>
       <r>     1.9238    -0.0000    16.0000 </r>
       <r>     1.9960    -0.0000    16.0000 </r>
       <r>     2.0683     0.0000    16.0000 </r>
       <r>     2.1405     0.0000    16.0000 </r>
       <r>     2.2128     0.0000    16.0000 </r>
       <r>     2.2850     0.0000    16.0000 </r>
       <r>     2.3573     0.0000    16.0000 </r>
       <r>     2.4295     0.0000    16.0000 </r>
       <r>     2.5017     0.0000    16.0000 </r>
       <r>     2.5740     0.0000    16.0000 </r>
       <r>     2.6462     0.0000    16.0000 </r>
       <r>     2.7185     0.0000    16.0000 </r>
      </set>
     </set>
    </array>
   </total>
  </dos>
  <time name="totalsc">   70.93   71.11</time>
 </calculation>
 <calculation>
  <scstep>
   <time name="dav">    2.03    2.03</time>
   <time name="total">    3.98    3.99</time>
   <energy>
    <i name="alphaZ">      0.24455017 </i>
    <i name="ewald">    126.89165414 </i>
    <i name="hartreedc">   -284.06682204 </i>
    <i name="XCdc">     24.74267345 </i>
    <i name="pawpsdc">    486.44438173 </i>
    <i name="pawaedc">   -487.24235636 </i>
    <i name="eentropy">      0.01323067 </i>
    <i name="bandstr">    -88.08505490 </i>
    <i name="atom">    197.04175453 </i>
    <i name="e_fr_energy">    -24.01598860 </i>
    <i name="e_wo_entrp">    -24.02921927 </i>
    <i name="e_0_energy">    -24.02039883 </i>
   </energy>
  </scstep>
  <scstep>
   <time name="diag">    0.45    0.46</time>
   <time name="diis">    1.51    1.52</time>
   <time name="orth">    0.01    0.01</time>
   <time name="total">    3.80    3.81</time>
   <energy>
    <i name="e_fr_energy">    -24.00903283 </i>
    <i name="e_wo_entrp">    -24.03178129 </i>
    <i name="e_0_energy">    -24.01661565 </i>
   </energy>
  </scstep>
  <scstep>
   <time name="diag">    0.46    0.46</time>
   <time name="diis">    1.47    1.47</time>
   <time name="orth">    0.01    0.01</time>
   <time name="total">    3.75    3.76</time>
   <energy>
    <i name="e_fr_energy">    -24.01215400 </i>
    <i name="e_wo_entrp">    -24.03636688 </i>
    <i name="e_0_energy">    -24.02022496 </i>
   </energy>
  </scstep>
  <scstep>
   <time name="diag">    0.45    0.45</time>
   <time name="diis">    1.46    1.47</time>
   <time name="orth">    0.01    0.01</time>
   <time name="total">    3.76    3.77</time>
   <energy>
    <i name="e_fr_energy">    -24.00003059 </i>
    <i name="e_wo_entrp">    -24.02589857 </i>
    <i name="e_0_energy">    -24.00865325 </i>
   </energy>
  </scstep>
  <scstep>
   <time name="diag">    0.44    0.44</time>
   <time name="diis">    1.48    1.48</time>
   <time name="orth">    0.01    0.01</time>
   <time name="total">    3.79    3.80</time>
   <energy>
    <i name="e_fr_energy">    -23.99989128 </i>
    <i name="e_wo_entrp">    -24.02581058 </i>
    <i name="e_0_energy">    -24.00853105 </i>
   </energy>
  </scstep>
  <scstep>
   <time name="diag">    0.41    0.41</time>
   <time name="diis">    1.46    1.46</time>
   <time name="orth">    0.01    0.01</time>
   <time name="total">    3.81    3.82</time>
   <energy>
    <i name="e_fr_energy">    -23.99984403 </i>
    <i name="e_wo_entrp">    -24.02575498 </i>
    <i name="e_0_energy">    -24.00848101 </i>
   </energy>
  </scstep>
  <scstep>
   <time name="diag">    0.41    0.41</time>
   <time name="diis">    1.44    1.44</time>
   <time name="orth">    0.01    0.01</time>
   <time name="total">    3.82    3.82</time>
   <energy>
    <i name="e_fr_energy">    -23.99948442 </i>
    <i name="e_wo_entrp">    -24.02540297 </i>
    <i name="e_0_energy">    -24.00812394 </i>
   </energy>
  </scstep>
  <scstep>
   <time name="diag">    0.41    0.41</time>
   <time name="diis">    1.46    1.46</time>
   <time name="orth">    0.01    0.01</time>
   <time name="total">    3.84    3.85</time>
   <energy>
    <i name="e_fr_energy">    -23.99938143 </i>
    <i name="e_wo_entrp">    -24.02530371 </i>
    <i name="e_0_energy">    -24.00802219 </i>
   </energy>
  </scstep>
  <scstep>
   <time name="diag">    0.42    0.42</time>
   <time name="diis">    1.47    1.47</time>
   <time name="orth">    0.01    0.01</time>
   <time name="total">    3.83    3.84</time>
   <energy>
    <i name="e_fr_energy">    -23.99927421 </i>
    <i name="e_wo_entrp">    -24.02520073 </i>
    <i name="e_0_energy">    -24.00791638 </i>
   </energy>
  </scstep>
  <scstep>
   <time name="diag">    0.43    0.43</time>
   <time name="diis">    1.48    1.48</time>
   <time name="orth">    0.01    0.01</time>
   <time name="total">    3.88    3.89</time>
   <energy>
    <i name="e_fr_energy">    -23.99925535 </i>
    <i name="e_wo_entrp">    -24.02518248 </i>
    <i name="e_0_energy">    -24.00789773 </i>
   </energy>
  </scstep>
  <scstep>
   <time name="diag">    0.44    0.44</time>
   <time name="diis">    1.47    1.47</time>
   <time name="orth">    0.01    0.01</time>
   <time name="total">    3.90    3.91</time>
   <energy>
    <i name="e_fr_energy">    -23.99926396 </i>
    <i name="e_wo_entrp">    -24.02519230 </i>
    <i name="e_0_energy">    -24.00790674 </i>
   </energy>
  </scstep>
  <scstep>
   <time name="diag">    0.45    0.45</time>
   <time name="diis">    1.46    1.46</time>
   <time name="orth">    0.01    0.01</time>
   <time name="total">    3.93    3.94</time>
   <energy>
    <i name="e_fr_energy">    -23.99927068 </i>
    <i name="e_wo_entrp">    -24.02519892 </i>
    <i name="e_0_energy">    -24.00791343 </i>
   </energy>
  </scstep>
  <scstep>
   <time name="diag">    0.47    0.47</time>
   <time name="diis">    1.34    1.34</time>
   <time name="orth">    0.01    0.01</time>
   <time name="total">    3.85    3.86</time>
   <energy>
    <i name="e_fr_energy">    -23.99927721 </i>
    <i name="e_wo_entrp">    -24.02520500 </i>
    <i name="e_0_energy">    -24.00791981 </i>
   </energy>
  </scstep>
  <scstep>
   <time name="diag">    0.46    0.46</time>
   <time name="diis">    1.12    1.12</time>
   <time name="orth">    0.01    0.01</time>
   <time name="total">    3.65    3.66</time>
   <energy>
    <i name="e_fr_energy">    -23.99927889 </i>
    <i name="e_wo_entrp">    -24.02520655 </i>
    <i name="e_0_energy">    -24.00792145 </i>
   </energy>
  </scstep>
  <scstep>
   <time name="diag">    0.44    0.44</time>
   <time name="diis">    1.15    1.15</time>
   <time name="orth">    0.01    0.01</time>
   <time name="total">    3.65    3.66</time>
   <energy>
    <i name="e_fr_energy">    -23.99928038 </i>
    <i name="e_wo_entrp">    -24.02520809 </i>
    <i name="e_0_energy">    -24.00792295 </i>
   </energy>
  </scstep>
  <scstep>
   <time name="diag">    0.45    0.45</time>
   <time name="diis">    1.15    1.16</time>
   <time name="orth">    0.01    0.01</time>
   <time name="total">    3.29    3.30</time>
   <energy>
    <i name="alphaZ">      0.24455017 </i>
    <i name="ewald">    126.89165414 </i>
    <i name="hartreedc">   -282.87380729 </i>
    <i name="XCdc">     24.67379747 </i>
    <i name="pawpsdc">    458.40888032 </i>
    <i name="pawaedc">   -459.19357710 </i>
    <i name="eentropy">      0.02592781 </i>
    <i name="bandstr">    -89.21846091 </i>
    <i name="atom">    197.04175453 </i>
    <i name="e_fr_energy">    -23.99928085 </i>
    <i name="e_wo_entrp">    -24.02520866 </i>
    <i name="e_0_energy">    -24.00792345 </i>
   </energy>
  </scstep>
  <structure>
   <crystal>
    <varray name="basis" >
     <v>       9.75683482       0.00000000       0.00000000 </v>
     <v>       0.10884809       9.93225665       0.00000000 </v>
     <v>       0.00890039       0.16858278      10.22210524 </v>
    </varray>
    <i name="volume">    990.59751364 </i>
    <varray name="rec_basis" >
     <v>       0.10249225      -0.00112322      -0.00007072 </v>
     <v>       0.00000000       0.10068205      -0.00166045 </v>
     <v>       0.00000000       0.00000000       0.09782721 </v>
    </varray>
   </crystal>
   <varray name="positions" >
    <v>       0.54068513       0.40559810       0.35911649 </v>
    <v>       0.39322395       0.48282216       0.43898182 </v>
    <v>       0.55694365       0.56553092       0.44200554 </v>
    <v>       0.52003186       0.41793751       0.53879019 </v>
    <v>       0.50350860       0.46703906       0.44542508 </v>
   </varray>
  </structure>
  <varray name="forces" >
   <v>      -0.35073155       0.31132847       0.63333932 </v>
   <v>       0.92566491      -0.00427533      -0.77707531 </v>
   <v>      -0.08985255      -0.47299001       0.06460115 </v>
   <v>       0.88942014      -0.63516745       1.08176759 </v>
   <v>      -0.50359531       0.94736064      -1.21535984 </v>
  </varray>
  <varray name="stress" >
   <v>      -0.28168178       0.03727090       2.30968169 </v>
   <v>       0.03727089      -1.49803738      -0.83194792 </v>
   <v>       2.30968169      -0.83194792      -0.44155620 </v>
  </varray>
  <energy>
   <i name="e_fr_energy">    -23.99928085 </i>
   <i name="e_wo_entrp">    -24.00792345 </i>
   <i name="e_0_energy">      0.02592781 </i>
   <i name="kinetic">      0.06882640 </i>
   <i name="lattice kinetic">      0.00000000 </i>
   <i name="nosepot">      0.00045947 </i>
   <i name="nosekinetic">      0.00067991 </i>
   <i name="total">    -23.92931506 </i>
  </energy>
  <dos>
   <i name="efermi">     -8.92967987 </i>
   <total>
    <array>
     <dimension dim="1">gridpoints</dimension>
     <dimension dim="2">spin</dimension>
     <field>energy</field>
     <field>total</field>
     <field>integrated</field>
     <set>
      <set comment="spin 1">
       <r>   -18.8423     0.0000     0.0000 </r>
       <r>   -18.7704     0.0000     0.0000 </r>
       <r>   -18.6986     0.0000     0.0000 </r>
       <r>   -18.6267     0.0000     0.0000 </r>
       <r>   -18.5549     0.0000     0.0000 </r>
       <r>   -18.4830    -0.0000    -0.0000 </r>
       <r>   -18.4112    -0.0000    -0.0000 </r>
       <r>   -18.3393    -0.0000    -0.0000 </r>
       <r>   -18.2675    -0.0000    -0.0000 </r>
       <r>   -18.1956    -0.0000    -0.0000 </r>
       <r>   -18.1238    -0.0000    -0.0000 </r>
       <r>   -18.0519    -0.0000    -0.0000 </r>
       <r>   -17.9801    -0.0000    -0.0000 </r>
       <r>   -17.9082    -0.0000    -0.0000 </r>
       <r>   -17.8363    -0.0000    -0.0000 </r>
       <r>   -17.7645    -0.0000    -0.0000 </r>
       <r>   -17.6926    -0.0000    -0.0000 </r>
       <r>   -17.6208    -0.0000    -0.0000 </r>
       <r>   -17.5489    -0.0001    -0.0000 </r>
       <r>   -17.4771    -0.0009    -0.0001 </r>
       <r>   -17.4052    -0.0061    -0.0005 </r>
       <r>   -17.3334    -0.0321    -0.0028 </r>
       <r>   -17.2615    -0.1217    -0.0116 </r>
       <r>   -17.1897    -0.3111    -0.0339 </r>
       <r>   -17.1178    -0.4340    -0.0651 </r>
       <r>   -17.0460     0.1556    -0.0539 </r>
       <r>   -16.9741     2.2841     0.1102 </r>
       <r>   -16.9023     5.6539     0.5164 </r>
       <r>   -16.8304     8.1192     1.0998 </r>
       <r>   -16.7586     7.5742     1.6440 </r>
       <r>   -16.6867     4.5114     1.9682 </r>
       <r>   -16.6149     1.3925     2.0682 </r>
       <r>   -16.5430    -0.1753     2.0556 </r>
       <r>   -16.4712    -0.4295     2.0248 </r>
       <r>   -16.3993    -0.2403     2.0075 </r>
       <r>   -16.3275    -0.0817     2.0017 </r>
       <r>   -16.2556    -0.0193     2.0003 </r>
       <r>   -16.1838    -0.0033     2.0000 </r>
       <r>   -16.1119    -0.0004     2.0000 </r>
       <r>   -16.0401    -0.0000     2.0000 </r>
       <r>   -15.9682    -0.0000     2.0000 </r>
       <r>   -15.8964    -0.0000     2.0000 </r>
       <r>   -15.8245    -0.0000     2.0000 </r>
       <r>   -15.7526    -0.0000     2.0000 </r>
       <r>   -15.6808    -0.0000     2.0000 </r>
       <r>   -15.6089    -0.0000     2.0000 </r>
       <r>   -15.5371     0.0000     2.0000 </r>
       <r>   -15.4652     0.0000     2.0000 </r>
       <r>   -15.3934     0.0000     2.0000 </r>
       <r>   -15.3215     0.0000     2.0000 </r>
       <r>   -15.2497     0.0000     2.0000 </r>
       <r>   -15.1778     0.0000     2.0000 </r>
       <r>   -15.1060     0.0000     2.0000 </r>
[...]
       <r>     0.2688    -0.7040     9.9119 </r>
       <r>     0.3406    -0.5220     9.8744 </r>
       <r>     0.4125     1.3371     9.9705 </r>
       <r>     0.4843     5.9565    10.3984 </r>
       <r>     0.5562    12.8102    11.3187 </r>
       <r>     0.6280    19.0128    12.6847 </r>
       <r>     0.6998    20.7216    14.1734 </r>
       <r>     0.7717    16.4051    15.3520 </r>
       <r>     0.8435     8.7826    15.9830 </r>
       <r>     0.9154     2.3998    16.1554 </r>
       <r>     0.9872    -0.5278    16.1175 </r>
       <r>     1.0591    -0.9146    16.0518 </r>
       <r>     1.1309    -0.4998    16.0159 </r>
       <r>     1.2027    -0.1713    16.0036 </r>
       <r>     1.2746    -0.0412    16.0006 </r>
       <r>     1.3464    -0.0073    16.0001 </r>
       <r>     1.4183    -0.0010    16.0000 </r>
       <r>     1.4901    -0.0001    16.0000 </r>
       <r>     1.5620    -0.0000    16.0000 </r>
       <r>     1.6338    -0.0000    16.0000 </r>
       <r>     1.7057    -0.0000    16.0000 </r>
       <r>     1.7775    -0.0000    16.0000 </r>
       <r>     1.8493    -0.0000    16.0000 </r>
       <r>     1.9212    -0.0000    16.0000 </r>
       <r>     1.9930    -0.0000    16.0000 </r>
       <r>     2.0649     0.0000    16.0000 </r>
       <r>     2.1367     0.0000    16.0000 </r>
       <r>     2.2086     0.0000    16.0000 </r>
       <r>     2.2804     0.0000    16.0000 </r>
       <r>     2.3522     0.0000    16.0000 </r>
       <r>     2.4241     0.0000    16.0000 </r>
       <r>     2.4959     0.0000    16.0000 </r>
       <r>     2.5678     0.0000    16.0000 </r>
       <r>     2.6396     0.0000    16.0000 </r>
       <r>     2.7115     0.0000    16.0000 </r>
      </set>
     </set>
    </array>
   </total>
  </dos>
  <time name="totalsc">   69.60   69.96</time>
  <eigenvalues>
   <array>
    <dimension dim="1">band</dimension>
    <dimension dim="2">kpoint</dimension>
    <dimension dim="3">spin</dimension>
    <field>eigene</field>
    <field>occ</field>
    <set>
     <set comment="spin 1">
      <set comment="kpoint 1">
       <r>  -17.0102    1.0000 </r>
       <r>   -9.4751    1.0015 </r>
       <r>   -9.3828    1.0086 </r>
       <r>   -9.1469    0.9899 </r>
       <r>   -0.2995    0.0000 </r>
       <r>    0.5706    0.0000 </r>
       <r>    0.6975    0.0000 </r>
       <r>    0.7226    0.0000 </r>
      </set>
      <set comment="kpoint 2">
       <r>  -17.0101    1.0000 </r>
       <r>   -9.4751    1.0015 </r>
       <r>   -9.3827    1.0086 </r>
       <r>   -9.1470    0.9899 </r>
       <r>   -0.2962    0.0000 </r>
       <r>    0.5598    0.0000 </r>
       <r>    0.6814    0.0000 </r>
       <r>    0.7225    0.0000 </r>
      </set>
      <set comment="kpoint 3">
       <r>  -17.0102    1.0000 </r>
       <r>   -9.4751    1.0015 </r>
       <r>   -9.3829    1.0085 </r>
       <r>   -9.1469    0.9899 </r>
       <r>   -0.2941    0.0000 </r>
       <r>    0.5593    0.0000 </r>
       <r>    0.6704    0.0000 </r>
       <r>    0.7199    0.0000 </r>
      </set>
      <set comment="kpoint 4">
       <r>  -17.0102    1.0000 </r>
       <r>   -9.4752    1.0015 </r>
       <r>   -9.3827    1.0086 </r>
       <r>   -9.1471    0.9901 </r>
       <r>   -0.2967    0.0000 </r>
       <r>    0.5685    0.0000 </r>
       <r>    0.6823    0.0000 </r>
       <r>    0.7157    0.0000 </r>
      </set>
     </set>
    </set>
   </array>
  </eigenvalues>
  <separator name="orbital magnetization" >
   <v name="MAGDIPOLOUT">      0.00000000      0.00000000      0.00000000</v>
  </separator>
  <dos>
   <i name="efermi">     -8.98704363 </i>
   <total>
    <array>
     <dimension dim="1">gridpoints</dimension>
     <dimension dim="2">spin</dimension>
     <field>energy</field>
     <field>total</field>
     <field>integrated</field>
     <set>
      <set comment="spin 1">
       <r>   -19.0102     0.0000     0.0000 </r>
       <r>   -18.9377     0.0000     0.0000 </r>
       <r>   -18.8653     0.0000     0.0000 </r>
       <r>   -18.7928     0.0000     0.0000 </r>
       <r>   -18.7204     0.0000     0.0000 </r>
       <r>   -18.6480    -0.0000    -0.0000 </r>
       <r>   -18.5755    -0.0000    -0.0000 </r>
       <r>   -18.5031    -0.0000    -0.0000 </r>
       <r>   -18.4306    -0.0000    -0.0000 </r>
       <r>   -18.3582    -0.0000    -0.0000 </r>
       <r>   -18.2857    -0.0000    -0.0000 </r>
       <r>   -18.2133    -0.0000    -0.0000 </r>
       <r>   -18.1409    -0.0000    -0.0000 </r>
       <r>   -18.0684    -0.0000    -0.0000 </r>
       <r>   -17.9960    -0.0000    -0.0000 </r>
       <r>   -17.9235    -0.0000    -0.0000 </r>
       <r>   -17.8511    -0.0000    -0.0000 </r>
       <r>   -17.7787    -0.0000    -0.0000 </r>
       <r>   -17.7062    -0.0001    -0.0000 </r>
       <r>   -17.6338    -0.0012    -0.0001 </r>
       <r>   -17.5613    -0.0081    -0.0007 </r>
       <r>   -17.4889    -0.0413    -0.0037 </r>
       <r>   -17.4164    -0.1484    -0.0144 </r>
       <r>   -17.3440    -0.3505    -0.0398 </r>
       <r>   -17.2716    -0.4036    -0.0691 </r>
       <r>   -17.1991     0.4451    -0.0368 </r>
       <r>   -17.1267     2.9367     0.1759 </r>
       <r>   -17.0542     6.3633     0.6369 </r>
       <r>   -16.9818     8.2900     1.2375 </r>
       <r>   -16.9093     7.0015     1.7447 </r>
       <r>   -16.8369     3.6660     2.0102 </r>
       <r>   -16.7645     0.8376     2.0709 </r>
       <r>   -16.6920    -0.3302     2.0470 </r>
       <r>   -16.6196    -0.3925     2.0186 </r>
       <r>   -16.5471    -0.1861     2.0051 </r>
       <r>   -16.4747    -0.0562     2.0010 </r>
       <r>   -16.4022    -0.0119     2.0001 </r>
       <r>   -16.3298    -0.0018     2.0000 </r>
       <r>   -16.2574    -0.0002     2.0000 </r>
       <r>   -16.1849    -0.0000     2.0000 </r>
       <r>   -16.1125    -0.0000     2.0000 </r>
       <r>   -16.0400    -0.0000     2.0000 </r>
       <r>   -15.9676    -0.0000     2.0000 </r>
       <r>   -15.8951    -0.0000     2.0000 </r>
       <r>   -15.8227    -0.0000     2.0000 </r>
       <r>   -15.7503    -0.0000     2.0000 </r>
       <r>   -15.6778     0.0000     2.0000 </r>
       <r>   -15.6054     0.0000     2.0000 </r>
       <r>   -15.5329     0.0000     2.0000 </r>
       <r>   -15.4605     0.0000     2.0000 </r>
       <r>   -15.3880     0.0000     2.0000 </r>
       <r>   -15.3156     0.0000     2.0000 </r>
       <r>   -15.2432     0.0000     2.0000 </r>
       <r>   -15.1707     0.0000     2.0000 </r>
       <r>   -15.0983     0.0000     2.0000 </r>
       <r>   -15.0258     0.0000     2.0000 </r>
       <r>   -14.9534     0.0000     2.0000 </r>
       <r>   -14.8810     0.0000     2.0000 </r>
       <r>   -14.8085     0.0000     2.0000 </r>
       <r>   -14.7361     0.0000     2.0000 </r>
       <r>   -14.6636     0.0000     2.0000 </r>
       <r>   -14.5912     0.0000     2.0000 </r>
       <r>   -14.5187     0.0000     2.0000 </r>
       <r>   -14.4463     0.0000     2.0000 </r>
       <r>   -14.3739     0.0000     2.0000 </r>
       <r>   -14.3014     0.0000     2.0000 </r>
       <r>   -14.2290     0.0000     2.0000 </r>
       <r>   -14.1565     0.0000     2.0000 </r>
       <r>   -14.0841     0.0000     2.0000 </r>
       <r>   -14.0116     0.0000     2.0000 </r>
       <r>   -13.9392     0.0000     2.0000 </r>
       <r>   -13.8668     0.0000     2.0000 </r>
       <r>   -13.7943     0.0000     2.0000 </r>
       <r>   -13.7219     0.0000     2.0000 </r>
       <r>   -13.6494     0.0000     2.0000 </r>
       <r>   -13.5770     0.0000     2.0000 </r>
       <r>   -13.5045     0.0000     2.0000 </r>
       <r>   -13.4321     0.0000     2.0000 </r>
       <r>   -13.3597     0.0000     2.0000 </r>
       <r>   -13.2872     0.0000     2.0000 </r>
       <r>   -13.2148     0.0000     2.0000 </r>
       <r>   -13.1423     0.0000     2.0000 </r>
       <r>   -13.0699     0.0000     2.0000 </r>
       <r>   -12.9974     0.0000     2.0000 </r>
       <r>   -12.9250     0.0000     2.0000 </r>
       <r>   -12.8526     0.0000     2.0000 </r>
       <r>   -12.7801     0.0000     2.0000 </r>
       <r>   -12.7077     0.0000     2.0000 </r>
       <r>   -12.6352     0.0000     2.0000 </r>
       <r>   -12.5628     0.0000     2.0000 </r>
       <r>   -12.4903     0.0000     2.0000 </r>
       <r>   -12.4179     0.0000     2.0000 </r>
       <r>   -12.3455     0.0000     2.0000 </r>
       <r>   -12.2730     0.0000     2.0000 </r>
       <r>   -12.2006     0.0000     2.0000 </r>
       <r>   -12.1281     0.0000     2.0000 </r>
       <r>   -12.0557     0.0000     2.0000 </r>
       <r>   -11.9832     0.0000     2.0000 </r>
       <r>   -11.9108     0.0000     2.0000 </r>
       <r>   -11.8384     0.0000     2.0000 </r>
       <r>   -11.7659     0.0000     2.0000 </r>
       <r>   -11.6935     0.0000     2.0000 </r>
       <r>   -11.6210     0.0000     2.0000 </r>
       <r>   -11.5486     0.0000     2.0000 </r>
       <r>   -11.4762     0.0000     2.0000 </r>
       <r>   -11.4037     0.0000     2.0000 </r>
       <r>   -11.3313     0.0000     2.0000 </r>
       <r>   -11.2588     0.0000     2.0000 </r>
       <r>   -11.1864     0.0000     2.0000 </r>
       <r>   -11.1139    -0.0000     2.0000 </r>
       <r>   -11.0415    -0.0000     2.0000 </r>
       <r>   -10.9691    -0.0000     2.0000 </r>
       <r>   -10.8966    -0.0000     2.0000 </r>
       <r>   -10.8242    -0.0000     2.0000 </r>
       <r>   -10.7517    -0.0000     2.0000 </r>
       <r>   -10.6793    -0.0000     2.0000 </r>
       <r>   -10.6068    -0.0000     2.0000 </r>
       <r>   -10.5344    -0.0000     2.0000 </r>
       <r>   -10.4620    -0.0000     2.0000 </r>
       <r>   -10.3895    -0.0000     2.0000 </r>
       <r>   -10.3171    -0.0000     2.0000 </r>
       <r>   -10.2446    -0.0000     2.0000 </r>
       <r>   -10.1722    -0.0001     2.0000 </r>
       <r>   -10.0997    -0.0012     1.9999 </r>
       <r>   -10.0273    -0.0086     1.9993 </r>
       <r>    -9.9549    -0.0453     1.9960 </r>
       <r>    -9.8824    -0.1729     1.9835 </r>
       <r>    -9.8100    -0.4545     1.9506 </r>
       <r>    -9.7375    -0.6978     1.9000 </r>
       <r>    -9.6651    -0.0337     1.8976 </r>
       <r>    -9.5926     2.8639     2.1050 </r>
       <r>    -9.5202     8.1351     2.6944 </r>
       <r>    -9.4478    13.2625     3.6551 </r>
       <r>    -9.3753    14.8880     4.7337 </r>
       <r>    -9.3029    12.7735     5.6590 </r>
       <r>    -9.2304    10.0535     6.3873 </r>
       <r>    -9.1580     8.7556     7.0216 </r>
       <r>    -9.0855     7.5553     7.5689 </r>
       <r>    -9.0131     4.9547     7.9278 </r>
       <r>    -8.9407     1.8917     8.0649 </r>
       <r>    -8.8682     0.0132     8.0658 </r>
       <r>    -8.7958    -0.4578     8.0327 </r>
       <r>    -8.7233    -0.3023     8.0108 </r>
       <r>    -8.6509    -0.1135     8.0025 </r>
       <r>    -8.5785    -0.0289     8.0004 </r>
       <r>    -8.5060    -0.0053     8.0001 </r>
       <r>    -8.4336    -0.0007     8.0000 </r>
       <r>    -8.3611    -0.0001     8.0000 </r>
       <r>    -8.2887    -0.0000     8.0000 </r>
       <r>    -8.2162    -0.0000     8.0000 </r>
       <r>    -8.1438    -0.0000     8.0000 </r>
       <r>    -8.0714    -0.0000     8.0000 </r>
       <r>    -7.9989    -0.0000     8.0000 </r>
       <r>    -7.9265    -0.0000     8.0000 </r>
       <r>    -7.8540    -0.0000     8.0000 </r>
       <r>    -7.7816     0.0000     8.0000 </r>
       <r>    -7.7091     0.0000     8.0000 </r>
       <r>    -7.6367     0.0000     8.0000 </r>
       <r>    -7.5643     0.0000     8.0000 </r>
       <r>    -7.4918     0.0000     8.0000 </r>
       <r>    -7.4194     0.0000     8.0000 </r>
       <r>    -7.3469     0.0000     8.0000 </r>
       <r>    -7.2745     0.0000     8.0000 </r>
       <r>    -7.2020     0.0000     8.0000 </r>
       <r>    -7.1296     0.0000     8.0000 </r>
       <r>    -7.0572     0.0000     8.0000 </r>
       <r>    -6.9847     0.0000     8.0000 </r>
       <r>    -6.9123     0.0000     8.0000 </r>
       <r>    -6.8398     0.0000     8.0000 </r>
       <r>    -6.7674     0.0000     8.0000 </r>
       <r>    -6.6949     0.0000     8.0000 </r>
       <r>    -6.6225     0.0000     8.0000 </r>
       <r>    -6.5501     0.0000     8.0000 </r>
       <r>    -6.4776     0.0000     8.0000 </r>
       <r>    -6.4052     0.0000     8.0000 </r>
       <r>    -6.3327     0.0000     8.0000 </r>
       <r>    -6.2603     0.0000     8.0000 </r>
       <r>    -6.1878     0.0000     8.0000 </r>
       <r>    -6.1154     0.0000     8.0000 </r>
       <r>    -6.0430     0.0000     8.0000 </r>
       <r>    -5.9705     0.0000     8.0000 </r>
       <r>    -5.8981     0.0000     8.0000 </r>
       <r>    -5.8256     0.0000     8.0000 </r>
       <r>    -5.7532     0.0000     8.0000 </r>
       <r>    -5.6807     0.0000     8.0000 </r>
       <r>    -5.6083     0.0000     8.0000 </r>
       <r>    -5.5359     0.0000     8.0000 </r>
       <r>    -5.4634     0.0000     8.0000 </r>
       <r>    -5.3910     0.0000     8.0000 </r>
       <r>    -5.3185     0.0000     8.0000 </r>
       <r>    -5.2461     0.0000     8.0000 </r>
       <r>    -5.1737     0.0000     8.0000 </r>
       <r>    -5.1012     0.0000     8.0000 </r>
       <r>    -5.0288     0.0000     8.0000 </r>
       <r>    -4.9563     0.0000     8.0000 </r>
       <r>    -4.8839     0.0000     8.0000 </r>
       <r>    -4.8114     0.0000     8.0000 </r>
       <r>    -4.7390     0.0000     8.0000 </r>
       <r>    -4.6666     0.0000     8.0000 </r>
       <r>    -4.5941     0.0000     8.0000 </r>
       <r>    -4.5217     0.0000     8.0000 </r>
       <r>    -4.4492     0.0000     8.0000 </r>
       <r>    -4.3768     0.0000     8.0000 </r>
       <r>    -4.3043     0.0000     8.0000 </r>
       <r>    -4.2319     0.0000     8.0000 </r>
       <r>    -4.1595     0.0000     8.0000 </r>
       <r>    -4.0870     0.0000     8.0000 </r>
       <r>    -4.0146     0.0000     8.0000 </r>
       <r>    -3.9421     0.0000     8.0000 </r>
       <r>    -3.8697     0.0000     8.0000 </r>
       <r>    -3.7972     0.0000     8.0000 </r>
       <r>    -3.7248     0.0000     8.0000 </r>
       <r>    -3.6524     0.0000     8.0000 </r>
       <r>    -3.5799     0.0000     8.0000 </r>
       <r>    -3.5075     0.0000     8.0000 </r>
       <r>    -3.4350     0.0000     8.0000 </r>
       <r>    -3.3626     0.0000     8.0000 </r>
       <r>    -3.2901     0.0000     8.0000 </r>
       <r>    -3.2177     0.0000     8.0000 </r>
       <r>    -3.1453     0.0000     8.0000 </r>
       <r>    -3.0728     0.0000     8.0000 </r>
       <r>    -3.0004     0.0000     8.0000 </r>
       <r>    -2.9279     0.0000     8.0000 </r>
       <r>    -2.8555     0.0000     8.0000 </r>
       <r>    -2.7830     0.0000     8.0000 </r>
       <r>    -2.7106     0.0000     8.0000 </r>
       <r>    -2.6382     0.0000     8.0000 </r>
       <r>    -2.5657     0.0000     8.0000 </r>
       <r>    -2.4933     0.0000     8.0000 </r>
       <r>    -2.4208     0.0000     8.0000 </r>
       <r>    -2.3484     0.0000     8.0000 </r>
       <r>    -2.2760     0.0000     8.0000 </r>
       <r>    -2.2035     0.0000     8.0000 </r>
       <r>    -2.1311     0.0000     8.0000 </r>
       <r>    -2.0586     0.0000     8.0000 </r>
       <r>    -1.9862     0.0000     8.0000 </r>
       <r>    -1.9137    -0.0000     8.0000 </r>
       <r>    -1.8413    -0.0000     8.0000 </r>
       <r>    -1.7689    -0.0000     8.0000 </r>
       <r>    -1.6964    -0.0000     8.0000 </r>
       <r>    -1.6240    -0.0000     8.0000 </r>
       <r>    -1.5515    -0.0000     8.0000 </r>
       <r>    -1.4791    -0.0000     8.0000 </r>
       <r>    -1.4066    -0.0000     8.0000 </r>
       <r>    -1.3342    -0.0000     8.0000 </r>
       <r>    -1.2618    -0.0000     8.0000 </r>
       <r>    -1.1893    -0.0000     8.0000 </r>
       <r>    -1.1169    -0.0000     8.0000 </r>
       <r>    -1.0444    -0.0000     8.0000 </r>
       <r>    -0.9720    -0.0002     8.0000 </r>
       <r>    -0.8995    -0.0021     7.9998 </r>
       <r>    -0.8271    -0.0134     7.9989 </r>
       <r>    -0.7547    -0.0618     7.9944 </r>
       <r>    -0.6822    -0.1991     7.9800 </r>
       <r>    -0.6098    -0.4038     7.9507 </r>
       <r>    -0.5373    -0.2961     7.9293 </r>
       <r>    -0.4649     0.9806     8.0003 </r>
       <r>    -0.3924     3.9052     8.2832 </r>
       <r>    -0.3200     7.1831     8.8036 </r>
       <r>    -0.2476     8.2543     9.4015 </r>
       <r>    -0.1751     6.1436     9.8466 </r>
       <r>    -0.1027     2.7155    10.0433 </r>
       <r>    -0.0302     0.3360    10.0676 </r>
       <r>     0.0422    -0.4346    10.0361 </r>
       <r>     0.1147    -0.4154    10.0061 </r>
       <r>     0.1871    -0.4012     9.9770 </r>
       <r>     0.2595    -0.6298     9.9314 </r>
       <r>     0.3320    -0.7250     9.8788 </r>
       <r>     0.4044     0.4057     9.9082 </r>
       <r>     0.4769     4.1131    10.2062 </r>
       <r>     0.5493    10.5729    10.9721 </r>
       <r>     0.6218    17.5151    12.2410 </r>
       <r>     0.6942    20.9332    13.7574 </r>
       <r>     0.7666    18.1979    15.0757 </r>
       <r>     0.8391    10.9379    15.8681 </r>
       <r>     0.9115     3.7774    16.1417 </r>
       <r>     0.9840    -0.0958    16.1348 </r>
       <r>     1.0564    -0.9544    16.0656 </r>
       <r>     1.1288    -0.6084    16.0216 </r>
       <r>     1.2013    -0.2271    16.0051 </r>
       <r>     1.2737    -0.0583    16.0009 </r>
       <r>     1.3462    -0.0108    16.0001 </r>
       <r>     1.4186    -0.0015    16.0000 </r>
       <r>     1.4911    -0.0002    16.0000 </r>
       <r>     1.5635    -0.0000    16.0000 </r>
       <r>     1.6359    -0.0000    16.0000 </r>
       <r>     1.7084    -0.0000    16.0000 </r>
       <r>     1.7808    -0.0000    16.0000 </r>
       <r>     1.8533    -0.0000    16.0000 </r>
       <r>     1.9257    -0.0000    16.0000 </r>
       <r>     1.9982    -0.0000    16.0000 </r>
       <r>     2.0706     0.0000    16.0000 </r>
       <r>     2.1430     0.0000    16.0000 </r>
       <r>     2.2155     0.0000    16.0000 </r>
       <r>     2.2879     0.0000    16.0000 </r>
       <r>     2.3604     0.0000    16.0000 </r>
       <r>     2.4328     0.0000    16.0000 </r>
       <r>     2.5053     0.0000    16.0000 </r>
       <r>     2.5777     0.0000    16.0000 </r>
       <r>     2.6501     0.0000    16.0000 </r>
       <r>     2.7226     0.0000    16.0000 </r>
      </set>
     </set>
    </array>
   </total>
  </dos>
 </calculation>
 <structure name="finalpos" >
  <crystal>
   <varray name="basis" >
    <v>       9.75683482       0.00000000       0.00000000 </v>
    <v>       0.10884809       9.93225665       0.00000000 </v>
    <v>       0.00890039       0.16858278      10.22210524 </v>
   </varray>
   <i name="volume">    990.59751364 </i>
   <varray name="rec_basis" >
    <v>       0.10249225      -0.00112322      -0.00007072 </v>
    <v>       0.00000000       0.10068205      -0.00166045 </v>
    <v>       0.00000000       0.00000000       0.09782721 </v>
   </varray>
  </crystal>
  <varray name="positions" >
   <v>       0.54179688       0.39937553       0.36757367 </v>
   <v>       0.39592928       0.49277677       0.42948919 </v>
   <v>       0.55969401       0.55869110       0.44840055 </v>
   <v>       0.51936134       0.41749441       0.53736857 </v>
   <v>       0.50301765       0.46733470       0.44509721 </v>
  </varray>
  <varray name="velocities" >
   <v>       0.00208577      -0.00304991      -0.00094767 </v>
   <v>       0.00561308       0.00045812      -0.00103033 </v>
   <v>      -0.00040278      -0.00131940      -0.00249748 </v>
   <v>      -0.00140037       0.00363845      -0.00394529 </v>
   <v>      -0.00049086       0.00002271       0.00070109 </v>
  </varray>
 </structure>
</modeling>
