unknown system                          
           1
     9.756835    0.000000    0.000000
     0.108848    9.932257    0.000000
     0.008900    0.168583   10.222105
   H    C 
   4   1
Direct configuration=     1
   0.53821102  0.40703518  0.36046770
   0.39439691  0.47970729  0.43780932
   0.55191309  0.56577557  0.44242711
   0.52872793  0.41660227  0.53896842
   0.50331176  0.46726955  0.44536026
Direct configuration=     2
   0.53874995  0.40736614  0.36271631
   0.39184594  0.48167472  0.43881726
   0.55313634  0.56410966  0.44224167
   0.52438851  0.41810012  0.53774878
   0.50373871  0.46709218  0.44520611
Direct configuration=     3
   0.54068513  0.40559810  0.35911649
   0.39322395  0.48282216  0.43898182
   0.55694365  0.56553092  0.44200554
   0.52003186  0.41793751  0.53879019
   0.50350860  0.46703906  0.44542508
Direct configuration=     4
   0.54098281  0.40498433  0.35800052
   0.39799563  0.48394598  0.43628546
   0.56013802  0.56506518  0.44206506
   0.51905125  0.41522701  0.54391054
   0.50290223  0.46726104  0.44531122
Direct configuration=     5
   0.53872696  0.40593546  0.36341837
   0.39382208  0.48635063  0.43173221
   0.56046967  0.56110627  0.44307322
   0.52297724  0.41414548  0.54309317
   0.50308305  0.46740130  0.44522335
Direct configuration=     6
   0.53966410  0.40458983  0.36450673
   0.39240664  0.48834541  0.42930961
   0.56027091  0.56054116  0.44534632
   0.52499431  0.41582652  0.53709326
   0.50297148  0.46725434  0.44564472
Direct configuration=     7
   0.54013627  0.39813025  0.36366733
   0.39705496  0.49079317  0.42908238
   0.55757297  0.56178148  0.44958344
   0.52655081  0.41606100  0.53361758
   0.50264020  0.46746557  0.44567013
Direct configuration=     8
   0.53942691  0.39945472  0.36633231
   0.39735491  0.49167308  0.43079200
   0.55762868  0.56209831  0.45167822
   0.52689835  0.41294618  0.53706350
   0.50264071  0.46751499  0.44484461
Direct configuration=     9
   0.53877437  0.40211349  0.36819215
   0.39110851  0.49191451  0.43089988
   0.55975737  0.56106957  0.45282473
   0.52448202  0.41181451  0.54146723
   0.50323904  0.46745340  0.44421869
Direct configuration=    10
   0.53971111  0.40242544  0.36852134
   0.39031619  0.49231864  0.43051952
   0.56009679  0.56001051  0.45089804
   0.52076170  0.41385596  0.54131386
   0.50350850  0.46731199  0.44439613
