   5   5   0   0
  0.2047616E+03  0.9845176E-09  0.1021549E-08  0.1018224E-08  0.2000000E-14
   50.000000000000000     
  CAR 
 unknown system                          
      2.69732511    -18.79749862  301     -9.06774411      1.00000000
    -18.797  0.0000E+00  0.0000E+00
    -18.726  0.0000E+00  0.0000E+00
    -18.654  0.0000E+00  0.0000E+00
    -18.583  0.0000E+00  0.0000E+00
    -18.511  0.0000E+00  0.0000E+00
    -18.439 -0.3510E-27 -0.2515E-28
    -18.368 -0.1054E-24 -0.7581E-26
    -18.296 -0.2452E-22 -0.1764E-23
    -18.224 -0.4398E-20 -0.3169E-21
    -18.153 -0.6087E-18 -0.4393E-19
    -18.081 -0.6495E-16 -0.4698E-17
    -18.009 -0.5341E-14 -0.3874E-15
    -17.938 -0.3275E-12 -0.2385E-13
    -17.866 -0.1593E-10 -0.1165E-11
    -17.794 -0.5940E-09 -0.4373E-10
    -17.723 -0.1700E-07 -0.1261E-08
    -17.651 -0.3723E-06 -0.2794E-07
    -17.579 -0.6227E-05 -0.4741E-06
    -17.508 -0.7924E-04 -0.6151E-05
    -17.436 -0.7629E-03 -0.6081E-04
    -17.365 -0.5511E-02 -0.4556E-03
    -17.293 -0.2945E-01 -0.2566E-02
    -17.221 -0.1135E+00 -0.1070E-01
    -17.150 -0.2973E+00 -0.3200E-01
    -17.078 -0.4381E+00 -0.6338E-01
    -17.006  0.7216E-01 -0.5821E-01
    -16.935  0.2075E+01  0.9044E-01
    -16.863  0.5400E+01  0.4774E+00
    -16.791  0.8022E+01  0.1052E+01
    -16.720  0.7737E+01  0.1606E+01
    -16.648  0.4803E+01  0.1951E+01
    -16.576  0.1608E+01  0.2066E+01
    -16.505 -0.1023E+00  0.2058E+01
    -16.433 -0.4364E+00  0.2027E+01
    -16.361 -0.2602E+00  0.2009E+01
    -16.290 -0.9227E-01  0.2002E+01
    -16.218 -0.2258E-01  0.2000E+01
    -16.146 -0.4005E-02  0.2000E+01
    -16.075 -0.5273E-03  0.2000E+01
    -16.003 -0.5218E-04  0.2000E+01
    -15.932 -0.3911E-05  0.2000E+01
    -15.860 -0.2232E-06  0.2000E+01
    -15.788 -0.9730E-08  0.2000E+01
    -15.717 -0.3249E-09  0.2000E+01
    -15.645 -0.8321E-11  0.2000E+01
    -15.573 -0.1673E-12  0.2000E+01
    -15.502  0.0000E+00  0.2000E+01
    -15.430  0.0000E+00  0.2000E+01
    -15.358  0.0000E+00  0.2000E+01
    -15.287  0.0000E+00  0.2000E+01
    -15.215  0.0000E+00  0.2000E+01
    -15.143  0.0000E+00  0.2000E+01
    -15.072  0.0000E+00  0.2000E+01
    -15.000  0.0000E+00  0.2000E+01
    -14.928  0.0000E+00  0.2000E+01
    -14.857  0.0000E+00  0.2000E+01
    -14.785  0.0000E+00  0.2000E+01
    -14.713  0.0000E+00  0.2000E+01
    -14.642  0.0000E+00  0.2000E+01
    -14.570  0.0000E+00  0.2000E+01
    -14.499  0.0000E+00  0.2000E+01
    -14.427  0.0000E+00  0.2000E+01
    -14.355  0.0000E+00  0.2000E+01
    -14.284  0.0000E+00  0.2000E+01
    -14.212  0.0000E+00  0.2000E+01
    -14.140  0.0000E+00  0.2000E+01
    -14.069  0.0000E+00  0.2000E+01
    -13.997  0.0000E+00  0.2000E+01
    -13.925  0.0000E+00  0.2000E+01
    -13.854  0.0000E+00  0.2000E+01
    -13.782  0.0000E+00  0.2000E+01
    -13.710  0.0000E+00  0.2000E+01
    -13.639  0.0000E+00  0.2000E+01
    -13.567  0.0000E+00  0.2000E+01
    -13.495  0.0000E+00  0.2000E+01
    -13.424  0.0000E+00  0.2000E+01
    -13.352  0.0000E+00  0.2000E+01
    -13.280  0.0000E+00  0.2000E+01
    -13.209  0.0000E+00  0.2000E+01
    -13.137  0.0000E+00  0.2000E+01
    -13.066  0.0000E+00  0.2000E+01
    -12.994  0.0000E+00  0.2000E+01
    -12.922  0.0000E+00  0.2000E+01
    -12.851  0.0000E+00  0.2000E+01
    -12.779  0.0000E+00  0.2000E+01
    -12.707  0.0000E+00  0.2000E+01
    -12.636  0.0000E+00  0.2000E+01
    -12.564  0.0000E+00  0.2000E+01
    -12.492  0.0000E+00  0.2000E+01
    -12.421  0.0000E+00  0.2000E+01
    -12.349  0.0000E+00  0.2000E+01
    -12.277  0.0000E+00  0.2000E+01
    -12.206  0.0000E+00  0.2000E+01
    -12.134  0.0000E+00  0.2000E+01
    -12.062  0.0000E+00  0.2000E+01
    -11.991  0.0000E+00  0.2000E+01
    -11.919  0.0000E+00  0.2000E+01
    -11.848  0.0000E+00  0.2000E+01
    -11.776  0.0000E+00  0.2000E+01
    -11.704  0.0000E+00  0.2000E+01
    -11.633  0.0000E+00  0.2000E+01
    -11.561  0.0000E+00  0.2000E+01
    -11.489  0.0000E+00  0.2000E+01
    -11.418  0.0000E+00  0.2000E+01
    -11.346  0.0000E+00  0.2000E+01
    -11.274  0.0000E+00  0.2000E+01
    -11.203  0.0000E+00  0.2000E+01
    -11.131  0.0000E+00  0.2000E+01
    -11.059  0.0000E+00  0.2000E+01
    -10.988  0.0000E+00  0.2000E+01
    -10.916 -0.2121E-27  0.2000E+01
    -10.844 -0.6753E-25  0.2000E+01
    -10.773 -0.1653E-22  0.2000E+01
    -10.701 -0.3125E-20  0.2000E+01
    -10.629 -0.4560E-18  0.2000E+01
    -10.558 -0.5135E-16  0.2000E+01
    -10.486 -0.4462E-14  0.2000E+01
    -10.415 -0.2896E-12  0.2000E+01
    -10.343 -0.1492E-10  0.2000E+01
    -10.271 -0.5904E-09  0.2000E+01
    -10.200 -0.1796E-07  0.2000E+01
    -10.128 -0.4191E-06  0.2000E+01
    -10.056 -0.7492E-05  0.2000E+01
     -9.985 -0.1022E-03  0.2000E+01
     -9.913 -0.1061E-02  0.2000E+01
     -9.841 -0.8307E-02  0.1999E+01
     -9.770 -0.4858E-01  0.1996E+01
     -9.698 -0.2080E+00  0.1981E+01
     -9.626 -0.6256E+00  0.1936E+01
     -9.555 -0.1179E+01  0.1852E+01
     -9.483 -0.7093E+00  0.1801E+01
     -9.411  0.3159E+01  0.2027E+01
     -9.340  0.1159E+02  0.2858E+01
     -9.268  0.2095E+02  0.4359E+01
     -9.196  0.2427E+02  0.6098E+01
     -9.125  0.1869E+02  0.7437E+01
     -9.053  0.8946E+01  0.8077E+01
     -8.982  0.1668E+01  0.8197E+01
     -8.910 -0.1037E+01  0.8123E+01
     -8.838 -0.1045E+01  0.8048E+01
     -8.767 -0.4833E+00  0.8013E+01
     -8.695 -0.1470E+00  0.8003E+01
     -8.623 -0.3197E-01  0.8000E+01
     -8.552 -0.5144E-02  0.8000E+01
     -8.480 -0.6225E-03  0.8000E+01
     -8.408 -0.5721E-04  0.8000E+01
     -8.337 -0.4015E-05  0.8000E+01
     -8.265 -0.2160E-06  0.8000E+01
     -8.193 -0.8932E-08  0.8000E+01
     -8.122 -0.2842E-09  0.8000E+01
     -8.050 -0.6968E-11  0.8000E+01
     -7.978 -0.1317E-12  0.8000E+01
     -7.907  0.0000E+00  0.8000E+01
     -7.835  0.0000E+00  0.8000E+01
     -7.763  0.0000E+00  0.8000E+01
     -7.692  0.0000E+00  0.8000E+01
     -7.620  0.0000E+00  0.8000E+01
     -7.549  0.0000E+00  0.8000E+01
     -7.477  0.0000E+00  0.8000E+01
     -7.405  0.0000E+00  0.8000E+01
     -7.334  0.0000E+00  0.8000E+01
     -7.262  0.0000E+00  0.8000E+01
     -7.190  0.0000E+00  0.8000E+01
     -7.119  0.0000E+00  0.8000E+01
     -7.047  0.0000E+00  0.8000E+01
     -6.975  0.0000E+00  0.8000E+01
     -6.904  0.0000E+00  0.8000E+01
     -6.832  0.0000E+00  0.8000E+01
     -6.760  0.0000E+00  0.8000E+01
     -6.689  0.0000E+00  0.8000E+01
     -6.617  0.0000E+00  0.8000E+01
     -6.545  0.0000E+00  0.8000E+01
     -6.474  0.0000E+00  0.8000E+01
     -6.402  0.0000E+00  0.8000E+01
     -6.331  0.0000E+00  0.8000E+01
     -6.259  0.0000E+00  0.8000E+01
     -6.187  0.0000E+00  0.8000E+01
     -6.116  0.0000E+00  0.8000E+01
     -6.044  0.0000E+00  0.8000E+01
     -5.972  0.0000E+00  0.8000E+01
     -5.901  0.0000E+00  0.8000E+01
     -5.829  0.0000E+00  0.8000E+01
     -5.757  0.0000E+00  0.8000E+01
     -5.686  0.0000E+00  0.8000E+01
     -5.614  0.0000E+00  0.8000E+01
     -5.542  0.0000E+00  0.8000E+01
     -5.471  0.0000E+00  0.8000E+01
     -5.399  0.0000E+00  0.8000E+01
     -5.327  0.0000E+00  0.8000E+01
     -5.256  0.0000E+00  0.8000E+01
     -5.184  0.0000E+00  0.8000E+01
     -5.112  0.0000E+00  0.8000E+01
     -5.041  0.0000E+00  0.8000E+01
     -4.969  0.0000E+00  0.8000E+01
     -4.898  0.0000E+00  0.8000E+01
     -4.826  0.0000E+00  0.8000E+01
     -4.754  0.0000E+00  0.8000E+01
     -4.683  0.0000E+00  0.8000E+01
     -4.611  0.0000E+00  0.8000E+01
     -4.539  0.0000E+00  0.8000E+01
     -4.468  0.0000E+00  0.8000E+01
     -4.396  0.0000E+00  0.8000E+01
     -4.324  0.0000E+00  0.8000E+01
     -4.253  0.0000E+00  0.8000E+01
     -4.181  0.0000E+00  0.8000E+01
     -4.109  0.0000E+00  0.8000E+01
     -4.038  0.0000E+00  0.8000E+01
     -3.966  0.0000E+00  0.8000E+01
     -3.894  0.0000E+00  0.8000E+01
     -3.823  0.0000E+00  0.8000E+01
     -3.751  0.0000E+00  0.8000E+01
     -3.679  0.0000E+00  0.8000E+01
     -3.608  0.0000E+00  0.8000E+01
     -3.536  0.0000E+00  0.8000E+01
     -3.465  0.0000E+00  0.8000E+01
     -3.393  0.0000E+00  0.8000E+01
     -3.321  0.0000E+00  0.8000E+01
     -3.250  0.0000E+00  0.8000E+01
     -3.178  0.0000E+00  0.8000E+01
     -3.106  0.0000E+00  0.8000E+01
     -3.035  0.0000E+00  0.8000E+01
     -2.963  0.0000E+00  0.8000E+01
     -2.891  0.0000E+00  0.8000E+01
     -2.820  0.0000E+00  0.8000E+01
     -2.748  0.0000E+00  0.8000E+01
     -2.676  0.0000E+00  0.8000E+01
     -2.605  0.0000E+00  0.8000E+01
     -2.533  0.0000E+00  0.8000E+01
     -2.461  0.0000E+00  0.8000E+01
     -2.390  0.0000E+00  0.8000E+01
     -2.318  0.0000E+00  0.8000E+01
     -2.246  0.0000E+00  0.8000E+01
     -2.175  0.0000E+00  0.8000E+01
     -2.103  0.0000E+00  0.8000E+01
     -2.032  0.0000E+00  0.8000E+01
     -1.960 -0.1133E-26  0.8000E+01
     -1.888 -0.3228E-24  0.8000E+01
     -1.817 -0.7121E-22  0.8000E+01
     -1.745 -0.1212E-19  0.8000E+01
     -1.673 -0.1591E-17  0.8000E+01
     -1.602 -0.1610E-15  0.8000E+01
     -1.530 -0.1256E-13  0.8000E+01
     -1.458 -0.7309E-12  0.8000E+01
     -1.387 -0.3365E-10  0.8000E+01
     -1.315 -0.1190E-08  0.8000E+01
     -1.243 -0.3226E-07  0.8000E+01
     -1.172 -0.6693E-06  0.8000E+01
     -1.100 -0.1060E-04  0.8000E+01
     -1.028 -0.1276E-03  0.8000E+01
     -0.957 -0.1160E-02  0.8000E+01
     -0.885 -0.7899E-02  0.7999E+01
     -0.813 -0.3964E-01  0.7997E+01
     -0.742 -0.1423E+00  0.7986E+01
     -0.670 -0.3402E+00  0.7962E+01
     -0.599 -0.4166E+00  0.7932E+01
     -0.527  0.3338E+00  0.7956E+01
     -0.455  0.2673E+01  0.8148E+01
     -0.384  0.6066E+01  0.8582E+01
     -0.312  0.8233E+01  0.9172E+01
     -0.240  0.7301E+01  0.9695E+01
     -0.169  0.4105E+01  0.9989E+01
     -0.097  0.1127E+01  0.1007E+02
     -0.025 -0.2569E+00  0.1005E+02
      0.046 -0.4472E+00  0.1002E+02
      0.118 -0.3424E+00  0.9995E+01
      0.190 -0.4368E+00  0.9964E+01
      0.261 -0.7296E+00  0.9912E+01
      0.333 -0.6311E+00  0.9866E+01
      0.405  0.1149E+01  0.9949E+01
      0.476  0.5864E+01  0.1037E+02
      0.548  0.1305E+02  0.1130E+02
      0.619  0.1952E+02  0.1270E+02
      0.691  0.2113E+02  0.1422E+02
      0.763  0.1642E+02  0.1539E+02
      0.834  0.8541E+01  0.1600E+02
      0.906  0.2176E+01  0.1616E+02
      0.978 -0.6201E+00  0.1612E+02
      1.049 -0.9228E+00  0.1605E+02
      1.121 -0.4886E+00  0.1602E+02
      1.193 -0.1644E+00  0.1600E+02
      1.264 -0.3904E-01  0.1600E+02
      1.336 -0.6804E-02  0.1600E+02
      1.408 -0.8866E-03  0.1600E+02
      1.479 -0.8732E-04  0.1600E+02
      1.551 -0.6541E-05  0.1600E+02
      1.623 -0.3744E-06  0.1600E+02
      1.694 -0.1642E-07  0.1600E+02
      1.766 -0.5530E-09  0.1600E+02
      1.838 -0.1432E-10  0.1600E+02
      1.909 -0.2867E-12  0.1600E+02
      1.981 -0.4649E-14  0.1600E+02
      2.052  0.0000E+00  0.1600E+02
      2.124  0.0000E+00  0.1600E+02
      2.196  0.0000E+00  0.1600E+02
      2.267  0.0000E+00  0.1600E+02
      2.339  0.0000E+00  0.1600E+02
      2.411  0.0000E+00  0.1600E+02
      2.482  0.0000E+00  0.1600E+02
      2.554  0.0000E+00  0.1600E+02
      2.626  0.0000E+00  0.1600E+02
      2.697  0.0000E+00  0.1600E+02
      2.70525764    -18.96808686  301     -9.06491317      1.00000000
    -18.968  0.0000E+00  0.0000E+00
    -18.896  0.0000E+00  0.0000E+00
    -18.824  0.0000E+00  0.0000E+00
    -18.751  0.0000E+00  0.0000E+00
    -18.679  0.0000E+00  0.0000E+00
    -18.607 -0.4436E-27 -0.3205E-28
    -18.535 -0.1381E-24 -0.1001E-25
    -18.462 -0.3313E-22 -0.2403E-23
    -18.390 -0.6105E-20 -0.4435E-21
    -18.318 -0.8641E-18 -0.6287E-19
    -18.246 -0.9389E-16 -0.6846E-17
    -18.173 -0.7828E-14 -0.5724E-15
    -18.101 -0.4852E-12 -0.3562E-13
    -18.029 -0.2367E-10 -0.1745E-11
    -17.957 -0.8830E-09 -0.6554E-10
    -17.884 -0.2515E-07 -0.1883E-08
    -17.812 -0.5461E-06 -0.4133E-07
    -17.740 -0.9008E-05 -0.6921E-06
    -17.668 -0.1125E-03 -0.8817E-05
    -17.595 -0.1056E-02 -0.8514E-04
    -17.523 -0.7397E-02 -0.6195E-03
    -17.451 -0.3801E-01 -0.3365E-02
    -17.379 -0.1391E+00 -0.1341E-01
    -17.306 -0.3375E+00 -0.3780E-01
    -17.234 -0.4171E+00 -0.6793E-01
    -17.162  0.3404E+00 -0.4334E-01
    -17.090  0.2712E+01  0.1526E+00
    -17.017  0.6132E+01  0.5956E+00
    -16.945  0.8252E+01  0.1192E+01
    -16.873  0.7208E+01  0.1713E+01
    -16.801  0.3947E+01  0.1998E+01
    -16.729  0.1011E+01  0.2071E+01
    -16.656 -0.2873E+00  0.2050E+01
    -16.584 -0.4071E+00  0.2021E+01
    -16.512 -0.2035E+00  0.2006E+01
    -16.440 -0.6389E-01  0.2001E+01
    -16.367 -0.1402E-01  0.2000E+01
    -16.295 -0.2239E-02  0.2000E+01
    -16.223 -0.2652E-03  0.2000E+01
    -16.151 -0.2357E-04  0.2000E+01
    -16.078 -0.1582E-05  0.2000E+01
    -16.006 -0.8061E-07  0.2000E+01
    -15.934 -0.3126E-08  0.2000E+01
    -15.862 -0.9253E-10  0.2000E+01
    -15.789 -0.2093E-11  0.2000E+01
    -15.717 -0.3688E-13  0.2000E+01
    -15.645  0.0000E+00  0.2000E+01
    -15.573  0.0000E+00  0.2000E+01
    -15.500  0.0000E+00  0.2000E+01
    -15.428  0.0000E+00  0.2000E+01
    -15.356  0.0000E+00  0.2000E+01
    -15.284  0.0000E+00  0.2000E+01
    -15.211  0.0000E+00  0.2000E+01
    -15.139  0.0000E+00  0.2000E+01
    -15.067  0.0000E+00  0.2000E+01
    -14.995  0.0000E+00  0.2000E+01
    -14.922  0.0000E+00  0.2000E+01
    -14.850  0.0000E+00  0.2000E+01
    -14.778  0.0000E+00  0.2000E+01
    -14.706  0.0000E+00  0.2000E+01
    -14.633  0.0000E+00  0.2000E+01
    -14.561  0.0000E+00  0.2000E+01
    -14.489  0.0000E+00  0.2000E+01
    -14.417  0.0000E+00  0.2000E+01
    -14.344  0.0000E+00  0.2000E+01
    -14.272  0.0000E+00  0.2000E+01
    -14.200  0.0000E+00  0.2000E+01
    -14.128  0.0000E+00  0.2000E+01
    -14.055  0.0000E+00  0.2000E+01
    -13.983  0.0000E+00  0.2000E+01
    -13.911  0.0000E+00  0.2000E+01
    -13.839  0.0000E+00  0.2000E+01
    -13.766  0.0000E+00  0.2000E+01
    -13.694  0.0000E+00  0.2000E+01
    -13.622  0.0000E+00  0.2000E+01
    -13.550  0.0000E+00  0.2000E+01
    -13.478  0.0000E+00  0.2000E+01
    -13.405  0.0000E+00  0.2000E+01
    -13.333  0.0000E+00  0.2000E+01
    -13.261  0.0000E+00  0.2000E+01
    -13.189  0.0000E+00  0.2000E+01
    -13.116  0.0000E+00  0.2000E+01
    -13.044  0.0000E+00  0.2000E+01
    -12.972  0.0000E+00  0.2000E+01
    -12.900  0.0000E+00  0.2000E+01
    -12.827  0.0000E+00  0.2000E+01
    -12.755  0.0000E+00  0.2000E+01
    -12.683  0.0000E+00  0.2000E+01
    -12.611  0.0000E+00  0.2000E+01
    -12.538  0.0000E+00  0.2000E+01
    -12.466  0.0000E+00  0.2000E+01
    -12.394  0.0000E+00  0.2000E+01
    -12.322  0.0000E+00  0.2000E+01
    -12.249  0.0000E+00  0.2000E+01
    -12.177  0.0000E+00  0.2000E+01
    -12.105  0.0000E+00  0.2000E+01
    -12.033  0.0000E+00  0.2000E+01
    -11.960  0.0000E+00  0.2000E+01
    -11.888  0.0000E+00  0.2000E+01
    -11.816  0.0000E+00  0.2000E+01
    -11.744  0.0000E+00  0.2000E+01
    -11.671  0.0000E+00  0.2000E+01
    -11.599  0.0000E+00  0.2000E+01
    -11.527  0.0000E+00  0.2000E+01
    -11.455  0.0000E+00  0.2000E+01
    -11.382  0.0000E+00  0.2000E+01
    -11.310  0.0000E+00  0.2000E+01
    -11.238  0.0000E+00  0.2000E+01
    -11.166 -0.2394E-27  0.2000E+01
    -11.093 -0.7661E-25  0.2000E+01
    -11.021 -0.1889E-22  0.2000E+01
    -10.949 -0.3579E-20  0.2000E+01
    -10.877 -0.5207E-18  0.2000E+01
    -10.804 -0.5817E-16  0.2000E+01
    -10.732 -0.4987E-14  0.2000E+01
    -10.660 -0.3171E-12  0.2000E+01
    -10.588 -0.1595E-10  0.2000E+01
    -10.515 -0.6120E-09  0.2000E+01
    -10.443 -0.1794E-07  0.2000E+01
    -10.371 -0.4007E-06  0.2000E+01
    -10.299 -0.6804E-05  0.2000E+01
    -10.227 -0.8748E-04  0.2000E+01
    -10.154 -0.8470E-03  0.2000E+01
    -10.082 -0.6120E-02  0.1999E+01
    -10.010 -0.3253E-01  0.1997E+01
     -9.938 -0.1238E+00  0.1988E+01
     -9.865 -0.3174E+00  0.1965E+01
     -9.793 -0.4481E+00  0.1933E+01
     -9.721  0.1120E+00  0.1941E+01
     -9.649  0.2102E+01  0.2093E+01
     -9.576  0.5125E+01  0.2463E+01
     -9.504  0.7406E+01  0.2998E+01
     -9.432  0.8268E+01  0.3595E+01
     -9.360  0.9767E+01  0.4301E+01
     -9.287  0.1329E+02  0.5261E+01
     -9.215  0.1592E+02  0.6411E+01
     -9.143  0.1383E+02  0.7411E+01
     -9.071  0.7815E+01  0.7975E+01
     -8.998  0.2191E+01  0.8133E+01
     -8.926 -0.4543E+00  0.8101E+01
     -8.854 -0.7930E+00  0.8043E+01
     -8.782 -0.4220E+00  0.8013E+01
     -8.709 -0.1397E+00  0.8003E+01
     -8.637 -0.3234E-01  0.8000E+01
     -8.565 -0.5460E-02  0.8000E+01
     -8.493 -0.6860E-03  0.8000E+01
     -8.420 -0.6485E-04  0.8000E+01
     -8.348 -0.4645E-05  0.8000E+01
     -8.276 -0.2532E-06  0.8000E+01
     -8.204 -0.1053E-07  0.8000E+01
     -8.131 -0.3351E-09  0.8000E+01
     -8.059 -0.8169E-11  0.8000E+01
     -7.987 -0.1537E-12  0.8000E+01
     -7.915  0.0000E+00  0.8000E+01
     -7.842  0.0000E+00  0.8000E+01
     -7.770  0.0000E+00  0.8000E+01
     -7.698  0.0000E+00  0.8000E+01
     -7.626  0.0000E+00  0.8000E+01
     -7.553  0.0000E+00  0.8000E+01
     -7.481  0.0000E+00  0.8000E+01
     -7.409  0.0000E+00  0.8000E+01
     -7.337  0.0000E+00  0.8000E+01
     -7.264  0.0000E+00  0.8000E+01
     -7.192  0.0000E+00  0.8000E+01
     -7.120  0.0000E+00  0.8000E+01
     -7.048  0.0000E+00  0.8000E+01
     -6.976  0.0000E+00  0.8000E+01
     -6.903  0.0000E+00  0.8000E+01
     -6.831  0.0000E+00  0.8000E+01
     -6.759  0.0000E+00  0.8000E+01
     -6.687  0.0000E+00  0.8000E+01
     -6.614  0.0000E+00  0.8000E+01
     -6.542  0.0000E+00  0.8000E+01
     -6.470  0.0000E+00  0.8000E+01
     -6.398  0.0000E+00  0.8000E+01
     -6.325  0.0000E+00  0.8000E+01
     -6.253  0.0000E+00  0.8000E+01
     -6.181  0.0000E+00  0.8000E+01
     -6.109  0.0000E+00  0.8000E+01
     -6.036  0.0000E+00  0.8000E+01
     -5.964  0.0000E+00  0.8000E+01
     -5.892  0.0000E+00  0.8000E+01
     -5.820  0.0000E+00  0.8000E+01
     -5.747  0.0000E+00  0.8000E+01
     -5.675  0.0000E+00  0.8000E+01
     -5.603  0.0000E+00  0.8000E+01
     -5.531  0.0000E+00  0.8000E+01
     -5.458  0.0000E+00  0.8000E+01
     -5.386  0.0000E+00  0.8000E+01
     -5.314  0.0000E+00  0.8000E+01
     -5.242  0.0000E+00  0.8000E+01
     -5.169  0.0000E+00  0.8000E+01
     -5.097  0.0000E+00  0.8000E+01
     -5.025  0.0000E+00  0.8000E+01
     -4.953  0.0000E+00  0.8000E+01
     -4.880  0.0000E+00  0.8000E+01
     -4.808  0.0000E+00  0.8000E+01
     -4.736  0.0000E+00  0.8000E+01
     -4.664  0.0000E+00  0.8000E+01
     -4.591  0.0000E+00  0.8000E+01
     -4.519  0.0000E+00  0.8000E+01
     -4.447  0.0000E+00  0.8000E+01
     -4.375  0.0000E+00  0.8000E+01
     -4.302  0.0000E+00  0.8000E+01
     -4.230  0.0000E+00  0.8000E+01
     -4.158  0.0000E+00  0.8000E+01
     -4.086  0.0000E+00  0.8000E+01
     -4.013  0.0000E+00  0.8000E+01
     -3.941  0.0000E+00  0.8000E+01
     -3.869  0.0000E+00  0.8000E+01
     -3.797  0.0000E+00  0.8000E+01
     -3.725  0.0000E+00  0.8000E+01
     -3.652  0.0000E+00  0.8000E+01
     -3.580  0.0000E+00  0.8000E+01
     -3.508  0.0000E+00  0.8000E+01
     -3.436  0.0000E+00  0.8000E+01
     -3.363  0.0000E+00  0.8000E+01
     -3.291  0.0000E+00  0.8000E+01
     -3.219  0.0000E+00  0.8000E+01
     -3.147  0.0000E+00  0.8000E+01
     -3.074  0.0000E+00  0.8000E+01
     -3.002  0.0000E+00  0.8000E+01
     -2.930  0.0000E+00  0.8000E+01
     -2.858  0.0000E+00  0.8000E+01
     -2.785  0.0000E+00  0.8000E+01
     -2.713  0.0000E+00  0.8000E+01
     -2.641  0.0000E+00  0.8000E+01
     -2.569  0.0000E+00  0.8000E+01
     -2.496  0.0000E+00  0.8000E+01
     -2.424  0.0000E+00  0.8000E+01
     -2.352  0.0000E+00  0.8000E+01
     -2.280  0.0000E+00  0.8000E+01
     -2.207  0.0000E+00  0.8000E+01
     -2.135  0.0000E+00  0.8000E+01
     -2.063  0.0000E+00  0.8000E+01
     -1.991  0.0000E+00  0.8000E+01
     -1.918 -0.2693E-26  0.8000E+01
     -1.846 -0.7723E-24  0.8000E+01
     -1.774 -0.1706E-21  0.8000E+01
     -1.702 -0.2897E-19  0.8000E+01
     -1.629 -0.3777E-17  0.8000E+01
     -1.557 -0.3780E-15  0.8000E+01
     -1.485 -0.2787E-13  0.8000E+01
     -1.413 -0.1655E-11  0.8000E+01
     -1.340 -0.7426E-10  0.8000E+01
     -1.268 -0.2549E-08  0.8000E+01
     -1.196 -0.6678E-07  0.8000E+01
     -1.124 -0.1332E-05  0.8000E+01
     -1.051 -0.2017E-04  0.8000E+01
     -0.979 -0.2309E-03  0.8000E+01
     -0.907 -0.1983E-02  0.8000E+01
     -0.835 -0.1265E-01  0.7999E+01
     -0.762 -0.5880E-01  0.7995E+01
     -0.690 -0.1917E+00  0.7981E+01
     -0.618 -0.3971E+00  0.7952E+01
     -0.546 -0.3185E+00  0.7929E+01
     -0.473  0.8823E+00  0.7993E+01
     -0.401  0.3732E+01  0.8263E+01
     -0.329  0.7045E+01  0.8772E+01
     -0.257  0.8284E+01  0.9370E+01
     -0.185  0.6329E+01  0.9827E+01
     -0.112  0.2910E+01  0.1004E+02
     -0.040  0.4340E+00  0.1007E+02
      0.032 -0.4211E+00  0.1004E+02
      0.104 -0.4296E+00  0.1001E+02
      0.177 -0.4150E+00  0.9977E+01
      0.249 -0.6530E+00  0.9930E+01
      0.321 -0.7864E+00  0.9873E+01
      0.393  0.3189E+00  0.9896E+01
      0.466  0.4153E+01  0.1020E+02
      0.538  0.1097E+02  0.1099E+02
      0.610  0.1822E+02  0.1231E+02
      0.682  0.2147E+02  0.1386E+02
      0.755  0.1813E+02  0.1517E+02
      0.827  0.1041E+02  0.1592E+02
      0.899  0.3277E+01  0.1615E+02
      0.971 -0.3160E+00  0.1613E+02
      1.044 -0.9760E+00  0.1606E+02
      1.116 -0.5780E+00  0.1602E+02
      1.188 -0.2071E+00  0.1600E+02
      1.260 -0.5148E-01  0.1600E+02
      1.333 -0.9297E-02  0.1600E+02
      1.405 -0.1246E-02  0.1600E+02
      1.477 -0.1256E-03  0.1600E+02
      1.549 -0.9569E-05  0.1600E+02
      1.622 -0.5544E-06  0.1600E+02
      1.694 -0.2450E-07  0.1600E+02
      1.766 -0.8275E-09  0.1600E+02
      1.838 -0.2140E-10  0.1600E+02
      1.911 -0.4257E-12  0.1600E+02
      1.983 -0.6147E-14  0.1600E+02
      2.055  0.0000E+00  0.1600E+02
      2.127  0.0000E+00  0.1600E+02
      2.200  0.0000E+00  0.1600E+02
      2.272  0.0000E+00  0.1600E+02
      2.344  0.0000E+00  0.1600E+02
      2.416  0.0000E+00  0.1600E+02
      2.489  0.0000E+00  0.1600E+02
      2.561  0.0000E+00  0.1600E+02
      2.633  0.0000E+00  0.1600E+02
      2.705  0.0000E+00  0.1600E+02
      2.70677357    -19.00985329  301     -8.96804987      1.00000000
    -19.010  0.0000E+00  0.0000E+00
    -18.937  0.0000E+00  0.0000E+00
    -18.865  0.0000E+00  0.0000E+00
    -18.793  0.0000E+00  0.0000E+00
    -18.720  0.0000E+00  0.0000E+00
    -18.648 -0.4697E-27 -0.3400E-28
    -18.576 -0.1475E-24 -0.1071E-25
    -18.503 -0.3565E-22 -0.2591E-23
    -18.431 -0.6612E-20 -0.4812E-21
    -18.358 -0.9409E-18 -0.6859E-19
    -18.286 -0.1027E-15 -0.7501E-17
    -18.214 -0.8589E-14 -0.6292E-15
    -18.141 -0.5335E-12 -0.3925E-13
    -18.069 -0.2605E-10 -0.1925E-11
    -17.996 -0.9718E-09 -0.7227E-10
    -17.924 -0.2765E-07 -0.2074E-08
    -17.852 -0.5990E-06 -0.4543E-07
    -17.779 -0.9846E-05 -0.7582E-06
    -17.707 -0.1223E-03 -0.9615E-05
    -17.634 -0.1142E-02 -0.9229E-04
    -17.562 -0.7936E-02 -0.6668E-03
    -17.490 -0.4038E-01 -0.3590E-02
    -17.417 -0.1458E+00 -0.1415E-01
    -17.345 -0.3470E+00 -0.3927E-01
    -17.273 -0.4076E+00 -0.6877E-01
    -17.200  0.4160E+00 -0.3866E-01
    -17.128  0.2875E+01  0.1695E+00
    -17.055  0.6302E+01  0.6257E+00
    -16.983  0.8282E+01  0.1225E+01
    -16.911  0.7059E+01  0.1736E+01
    -16.838  0.3742E+01  0.2007E+01
    -16.766  0.8833E+00  0.2071E+01
    -16.693 -0.3194E+00  0.2048E+01
    -16.621 -0.3966E+00  0.2019E+01
    -16.549 -0.1907E+00  0.2005E+01
    -16.476 -0.5819E-01  0.2001E+01
    -16.404 -0.1244E-01  0.2000E+01
    -16.331 -0.1937E-02  0.2000E+01
    -16.259 -0.2236E-03  0.2000E+01
    -16.187 -0.1936E-04  0.2000E+01
    -16.114 -0.1265E-05  0.2000E+01
    -16.042 -0.6268E-07  0.2000E+01
    -15.970 -0.2362E-08  0.2000E+01
    -15.897 -0.6789E-10  0.2000E+01
    -15.825 -0.1491E-11  0.2000E+01
    -15.752 -0.2454E-13  0.2000E+01
    -15.680  0.0000E+00  0.2000E+01
    -15.608  0.0000E+00  0.2000E+01
    -15.535  0.0000E+00  0.2000E+01
    -15.463  0.0000E+00  0.2000E+01
    -15.390  0.0000E+00  0.2000E+01
    -15.318  0.0000E+00  0.2000E+01
    -15.246  0.0000E+00  0.2000E+01
    -15.173  0.0000E+00  0.2000E+01
    -15.101  0.0000E+00  0.2000E+01
    -15.028  0.0000E+00  0.2000E+01
    -14.956  0.0000E+00  0.2000E+01
    -14.884  0.0000E+00  0.2000E+01
    -14.811  0.0000E+00  0.2000E+01
    -14.739  0.0000E+00  0.2000E+01
    -14.667  0.0000E+00  0.2000E+01
    -14.594  0.0000E+00  0.2000E+01
    -14.522  0.0000E+00  0.2000E+01
    -14.449  0.0000E+00  0.2000E+01
    -14.377  0.0000E+00  0.2000E+01
    -14.305  0.0000E+00  0.2000E+01
    -14.232  0.0000E+00  0.2000E+01
    -14.160  0.0000E+00  0.2000E+01
    -14.087  0.0000E+00  0.2000E+01
    -14.015  0.0000E+00  0.2000E+01
    -13.943  0.0000E+00  0.2000E+01
    -13.870  0.0000E+00  0.2000E+01
    -13.798  0.0000E+00  0.2000E+01
    -13.725  0.0000E+00  0.2000E+01
    -13.653  0.0000E+00  0.2000E+01
    -13.581  0.0000E+00  0.2000E+01
    -13.508  0.0000E+00  0.2000E+01
    -13.436  0.0000E+00  0.2000E+01
    -13.364  0.0000E+00  0.2000E+01
    -13.291  0.0000E+00  0.2000E+01
    -13.219  0.0000E+00  0.2000E+01
    -13.146  0.0000E+00  0.2000E+01
    -13.074  0.0000E+00  0.2000E+01
    -13.002  0.0000E+00  0.2000E+01
    -12.929  0.0000E+00  0.2000E+01
    -12.857  0.0000E+00  0.2000E+01
    -12.784  0.0000E+00  0.2000E+01
    -12.712  0.0000E+00  0.2000E+01
    -12.640  0.0000E+00  0.2000E+01
    -12.567  0.0000E+00  0.2000E+01
    -12.495  0.0000E+00  0.2000E+01
    -12.422  0.0000E+00  0.2000E+01
    -12.350  0.0000E+00  0.2000E+01
    -12.278  0.0000E+00  0.2000E+01
    -12.205  0.0000E+00  0.2000E+01
    -12.133  0.0000E+00  0.2000E+01
    -12.061  0.0000E+00  0.2000E+01
    -11.988  0.0000E+00  0.2000E+01
    -11.916  0.0000E+00  0.2000E+01
    -11.843  0.0000E+00  0.2000E+01
    -11.771  0.0000E+00  0.2000E+01
    -11.699  0.0000E+00  0.2000E+01
    -11.626  0.0000E+00  0.2000E+01
    -11.554  0.0000E+00  0.2000E+01
    -11.481  0.0000E+00  0.2000E+01
    -11.409  0.0000E+00  0.2000E+01
    -11.337  0.0000E+00  0.2000E+01
    -11.264  0.0000E+00  0.2000E+01
    -11.192 -0.6797E-28  0.2000E+01
    -11.119 -0.2327E-25  0.2000E+01
    -11.047 -0.6130E-23  0.2000E+01
    -10.975 -0.1240E-20  0.2000E+01
    -10.902 -0.1923E-18  0.2000E+01
    -10.830 -0.2289E-16  0.2000E+01
    -10.758 -0.2088E-14  0.2000E+01
    -10.685 -0.1414E-12  0.2000E+01
    -10.613 -0.7551E-11  0.2000E+01
    -10.540 -0.3077E-09  0.2000E+01
    -10.468 -0.9570E-08  0.2000E+01
    -10.396 -0.2268E-06  0.2000E+01
    -10.323 -0.4085E-05  0.2000E+01
    -10.251 -0.5574E-04  0.2000E+01
    -10.178 -0.5736E-03  0.2000E+01
    -10.106 -0.4420E-02  0.2000E+01
    -10.034 -0.2523E-01  0.1998E+01
     -9.961 -0.1046E+00  0.1990E+01
     -9.889 -0.3021E+00  0.1968E+01
     -9.816 -0.5427E+00  0.1929E+01
     -9.744 -0.2942E+00  0.1908E+01
     -9.672  0.1441E+01  0.2012E+01
     -9.599  0.5179E+01  0.2387E+01
     -9.527  0.9756E+01  0.3093E+01
     -9.455  0.1273E+02  0.4015E+01
     -9.382  0.1253E+02  0.4922E+01
     -9.310  0.1009E+02  0.5652E+01
     -9.237  0.8099E+01  0.6238E+01
     -9.165  0.7925E+01  0.6812E+01
     -9.093  0.7928E+01  0.7386E+01
     -9.020  0.6073E+01  0.7826E+01
     -8.948  0.2917E+01  0.8037E+01
     -8.875  0.4852E+00  0.8072E+01
     -8.803 -0.4035E+00  0.8043E+01
     -8.731 -0.3700E+00  0.8016E+01
     -8.658 -0.1620E+00  0.8004E+01
     -8.586 -0.4638E-01  0.8001E+01
     -8.513 -0.9397E-02  0.8000E+01
     -8.441 -0.1392E-02  0.8000E+01
     -8.369 -0.1532E-03  0.8000E+01
     -8.296 -0.1267E-04  0.8000E+01
     -8.224 -0.7913E-06  0.8000E+01
     -8.152 -0.3750E-07  0.8000E+01
     -8.079 -0.1352E-08  0.8000E+01
     -8.007 -0.3720E-10  0.8000E+01
     -7.934 -0.7822E-12  0.8000E+01
     -7.862 -0.1227E-13  0.8000E+01
     -7.790  0.0000E+00  0.8000E+01
     -7.717  0.0000E+00  0.8000E+01
     -7.645  0.0000E+00  0.8000E+01
     -7.572  0.0000E+00  0.8000E+01
     -7.500  0.0000E+00  0.8000E+01
     -7.428  0.0000E+00  0.8000E+01
     -7.355  0.0000E+00  0.8000E+01
     -7.283  0.0000E+00  0.8000E+01
     -7.210  0.0000E+00  0.8000E+01
     -7.138  0.0000E+00  0.8000E+01
     -7.066  0.0000E+00  0.8000E+01
     -6.993  0.0000E+00  0.8000E+01
     -6.921  0.0000E+00  0.8000E+01
     -6.849  0.0000E+00  0.8000E+01
     -6.776  0.0000E+00  0.8000E+01
     -6.704  0.0000E+00  0.8000E+01
     -6.631  0.0000E+00  0.8000E+01
     -6.559  0.0000E+00  0.8000E+01
     -6.487  0.0000E+00  0.8000E+01
     -6.414  0.0000E+00  0.8000E+01
     -6.342  0.0000E+00  0.8000E+01
     -6.269  0.0000E+00  0.8000E+01
     -6.197  0.0000E+00  0.8000E+01
     -6.125  0.0000E+00  0.8000E+01
     -6.052  0.0000E+00  0.8000E+01
     -5.980  0.0000E+00  0.8000E+01
     -5.907  0.0000E+00  0.8000E+01
     -5.835  0.0000E+00  0.8000E+01
     -5.763  0.0000E+00  0.8000E+01
     -5.690  0.0000E+00  0.8000E+01
     -5.618  0.0000E+00  0.8000E+01
     -5.546  0.0000E+00  0.8000E+01
     -5.473  0.0000E+00  0.8000E+01
     -5.401  0.0000E+00  0.8000E+01
     -5.328  0.0000E+00  0.8000E+01
     -5.256  0.0000E+00  0.8000E+01
     -5.184  0.0000E+00  0.8000E+01
     -5.111  0.0000E+00  0.8000E+01
     -5.039  0.0000E+00  0.8000E+01
     -4.966  0.0000E+00  0.8000E+01
     -4.894  0.0000E+00  0.8000E+01
     -4.822  0.0000E+00  0.8000E+01
     -4.749  0.0000E+00  0.8000E+01
     -4.677  0.0000E+00  0.8000E+01
     -4.604  0.0000E+00  0.8000E+01
     -4.532  0.0000E+00  0.8000E+01
     -4.460  0.0000E+00  0.8000E+01
     -4.387  0.0000E+00  0.8000E+01
     -4.315  0.0000E+00  0.8000E+01
     -4.243  0.0000E+00  0.8000E+01
     -4.170  0.0000E+00  0.8000E+01
     -4.098  0.0000E+00  0.8000E+01
     -4.025  0.0000E+00  0.8000E+01
     -3.953  0.0000E+00  0.8000E+01
     -3.881  0.0000E+00  0.8000E+01
     -3.808  0.0000E+00  0.8000E+01
     -3.736  0.0000E+00  0.8000E+01
     -3.663  0.0000E+00  0.8000E+01
     -3.591  0.0000E+00  0.8000E+01
     -3.519  0.0000E+00  0.8000E+01
     -3.446  0.0000E+00  0.8000E+01
     -3.374  0.0000E+00  0.8000E+01
     -3.301  0.0000E+00  0.8000E+01
     -3.229  0.0000E+00  0.8000E+01
     -3.157  0.0000E+00  0.8000E+01