    5    5    1    1
  0.2047616E+03  0.9845175E-09  0.1021549E-08  0.1018224E-08  0.2000000E-14
   50.000000000000000     
  CAR 
 unknown system                          
      8      4      8

  0.2500000E+00  0.2500000E+00  0.2500000E+00  0.2500000E+00
    1      -16.947011   1.000000
    2       -9.525558   1.000114
    3       -9.303869   1.012379
    4       -9.090733   0.987488
    5       -0.300165   0.000000
    6        0.547824   0.000000
    7        0.666738   0.000000
    8        0.688724   0.000000

 -0.2500000E+00  0.2500000E+00  0.2500000E+00  0.2500000E+00
    1      -16.946963   1.000000
    2       -9.525610   1.000114
    3       -9.304000   1.012356
    4       -9.090779   0.987549
    5       -0.302521   0.000000
    6        0.550633   0.000000
    7        0.663613   0.000000
    8        0.698647   0.000000

  0.2500000E+00 -0.2500000E+00  0.2500000E+00  0.2500000E+00
    1      -16.946995   1.000000
    2       -9.525648   1.000114
    3       -9.304043   1.012348
    4       -9.090765   0.987531
    5       -0.302698   0.000000
    6        0.555071   0.000000
    7        0.662812   0.000000
    8        0.700041   0.000000

 -0.2500000E+00 -0.2500000E+00  0.2500000E+00  0.2500000E+00
    1      -16.946947   1.000000
    2       -9.525580   1.000114
    3       -9.303968   1.012361
    4       -9.090765   0.987531
    5       -0.306344   0.000000
    6        0.567420   0.000000
    7        0.674599   0.000000
    8        0.697929   0.000000
