       N       E                     dE             d eps       ncg     rms          rms(c)
DAV:   1     0.240666578195E+02    0.24067E+02   -0.18772E+03    88   0.416E+02
DAV:   2    -0.198527057771E+02   -0.43919E+02   -0.39906E+02    72   0.107E+02
DAV:   3    -0.270278767796E+02   -0.71752E+01   -0.71897E+01    64   0.521E+01
DAV:   4    -0.274055768801E+02   -0.37770E+00   -0.37322E+00   128   0.131E+01
DAV:   5    -0.274057609790E+02   -0.18410E-03   -0.18410E-03    96   0.303E-01    0.854E+00
RMM:   6    -0.246317524179E+02    0.27740E+01   -0.51118E+00    64   0.138E+01    0.424E+00
RMM:   7    -0.241623443178E+02    0.46941E+00   -0.11102E+00    64   0.607E+00    0.228E+00
RMM:   8    -0.240286106987E+02    0.13373E+00   -0.13528E-01    64   0.254E+00    0.742E-01
RMM:   9    -0.240131604836E+02    0.15450E-01   -0.18496E-02    64   0.989E-01    0.281E-01
RMM:  10    -0.240111061610E+02    0.20543E-02   -0.27499E-03    64   0.322E-01    0.186E-01
RMM:  11    -0.240105993340E+02    0.50683E-03   -0.25780E-03    64   0.268E-01    0.116E-01
RMM:  12    -0.240051302122E+02    0.54691E-02   -0.42803E-03    64   0.402E-01    0.116E-01
RMM:  13    -0.240068184055E+02   -0.16882E-02   -0.44746E-04    64   0.137E-01    0.491E-02
RMM:  14    -0.240135851143E+02   -0.67667E-02   -0.14237E-03    64   0.210E-01    0.490E-02
RMM:  15    -0.240156514528E+02   -0.20663E-02   -0.40662E-04    64   0.128E-01    0.193E-02
RMM:  16    -0.240175830731E+02   -0.19316E-02   -0.31887E-04    64   0.971E-02    0.172E-02
RMM:  17    -0.240179276664E+02   -0.34459E-03   -0.60563E-05    64   0.468E-02    0.120E-02
RMM:  18    -0.240182628576E+02   -0.33519E-03   -0.38686E-05    64   0.375E-02    0.603E-03
RMM:  19    -0.240183133253E+02   -0.50468E-04   -0.21904E-06    54   0.843E-03    0.404E-03
RMM:  20    -0.240183382339E+02   -0.24909E-04   -0.30493E-06    60   0.103E-02    0.125E-03
RMM:  21    -0.240183415313E+02   -0.32974E-05   -0.14726E-07    48   0.276E-03    0.561E-04
RMM:  22    -0.240183431129E+02   -0.15816E-05   -0.12795E-07    44   0.225E-03    0.198E-04
RMM:  23    -0.240183440930E+02   -0.98007E-06    0.00000E+00    32   0.135E-03
    1 T=    65. E= -.23984690E+02 F= -.24018344E+02 E0= -.24030607E+02  EK= 0.33646E-01 SP= 0.00E+00 SK= 0.73E-05
       N       E                     dE             d eps       ncg     rms          rms(c)
DAV:   1    -0.240309215657E+02   -0.12578E-01   -0.20848E+00    64   0.133E+01    0.753E-01
RMM:   2    -0.240227779146E+02    0.81437E-02   -0.17684E-01    64   0.259E+00    0.508E-01
RMM:   3    -0.240188572382E+02    0.39207E-02   -0.39863E-02    64   0.116E+00    0.159E-01
RMM:   4    -0.240199303616E+02   -0.10731E-02   -0.38133E-03    64   0.463E-01    0.162E-01
RMM:   5    -0.240194302402E+02    0.50012E-03   -0.14411E-03    64   0.220E-01    0.514E-02
RMM:   6    -0.240195686822E+02   -0.13844E-03   -0.39769E-04    64   0.134E-01    0.215E-02
RMM:   7    -0.240196978243E+02   -0.12914E-03   -0.11247E-04    64   0.707E-02    0.183E-02
RMM:   8    -0.240197658597E+02   -0.68035E-04   -0.16623E-05    64   0.281E-02    0.875E-03
RMM:   9    -0.240197984550E+02   -0.32595E-04   -0.50527E-05    64   0.419E-02    0.100E-02
RMM:  10    -0.240198095504E+02   -0.11095E-04   -0.18687E-05    64   0.254E-02    0.274E-03
RMM:  11    -0.240198156035E+02   -0.60532E-05   -0.46919E-06    60   0.145E-02    0.558E-03
RMM:  12    -0.240198179347E+02   -0.23312E-05   -0.55119E-06    64   0.135E-02    0.692E-04
RMM:  13    -0.240198201084E+02   -0.21737E-05   -0.51519E-07    48   0.548E-03    0.121E-03
RMM:  14    -0.240198205923E+02   -0.48395E-06   -0.99305E-08    48   0.257E-03
    2 T=    76. E= -.23980413E+02 F= -.24019821E+02 E0= -.24028562E+02  EK= 0.39116E-01 SP= 0.19E-03 SK= 0.10E-03
       N       E                     dE             d eps       ncg     rms          rms(c)
DAV:   1    -0.240075265609E+02    0.12294E-01   -0.35563E+00    64   0.182E+01    0.667E-01
RMM:   2    -0.240454925324E+02   -0.37966E-01   -0.24814E-01    64   0.337E+00    0.133E+00
RMM:   3    -0.240126294036E+02    0.32863E-01   -0.53372E-02    64   0.143E+00    0.605E-01
RMM:   4    -0.240087423794E+02    0.38870E-02   -0.10074E-01    64   0.194E+00    0.305E-01
RMM:   5    -0.240075637056E+02    0.11787E-02   -0.24918E-03    64   0.411E-01    0.255E-01
RMM:   6    -0.240057881652E+02    0.17755E-02   -0.60597E-03    64   0.456E-01    0.768E-02
RMM:   7    -0.240058920540E+02   -0.10389E-03   -0.14450E-04    64   0.912E-02    0.777E-02
RMM:   8    -0.240057663782E+02    0.12568E-03   -0.44317E-04    64   0.130E-01    0.287E-02
RMM:   9    -0.240057727970E+02   -0.64188E-05   -0.13159E-04    64   0.733E-02    0.107E-02
RMM:  10    -0.240057922934E+02   -0.19496E-04   -0.63412E-05    64   0.517E-02    0.108E-02
RMM:  11    -0.240057981514E+02   -0.58581E-05   -0.13510E-05    64   0.230E-02    0.184E-03
RMM:  12    -0.240058032158E+02   -0.50644E-05   -0.15941E-06    48   0.985E-03    0.147E-03
RMM:  13    -0.240058068075E+02   -0.35917E-05   -0.94230E-07    48   0.743E-03    0.148E-03
RMM:  14    -0.240058087094E+02   -0.19020E-05   -0.35843E-07    48   0.408E-03    0.326E-04
RMM:  15    -0.240058092610E+02   -0.55152E-06   -0.15780E-07    48   0.273E-03
    3 T=   169. E= -.23916630E+02 F= -.24005809E+02 E0= -.24010913E+02  EK= 0.87166E-01 SP= 0.71E-03 SK= 0.13E-02
       N       E                     dE             d eps       ncg     rms          rms(c)
DAV:   1    -0.239776592782E+02    0.28149E-01   -0.21305E+00    64   0.138E+01    0.773E-01
RMM:   2    -0.239891317662E+02   -0.11472E-01   -0.28797E-01    64   0.309E+00    0.854E-01
RMM:   3    -0.239755532225E+02    0.13579E-01   -0.11531E-02    64   0.850E-01    0.643E-01
RMM:   4    -0.239652899698E+02    0.10263E-01   -0.39211E-02    64   0.115E+00    0.174E-01
RMM:   5    -0.239653944913E+02   -0.10452E-03   -0.22761E-03    64   0.326E-01    0.108E-01
RMM:   6    -0.239653730489E+02    0.21442E-04   -0.29273E-03    64   0.326E-01    0.198E-02
RMM:   7    -0.239654622452E+02   -0.89196E-04   -0.92459E-05    64   0.770E-02    0.633E-03
RMM:   8    -0.239654978188E+02   -0.35574E-04   -0.83853E-06    64   0.195E-02    0.455E-03
RMM:   9    -0.239655148952E+02   -0.17076E-04   -0.62145E-06    64   0.148E-02    0.293E-03
RMM:  10    -0.239655329471E+02   -0.18052E-04   -0.17708E-06    52   0.850E-03    0.331E-03
RMM:  11    -0.239655355304E+02   -0.25833E-05   -0.13373E-06    48   0.774E-03    0.354E-03
RMM:  12    -0.239655377180E+02   -0.21876E-05   -0.22230E-06    52   0.895E-03    0.810E-04
RMM:  13    -0.239655390602E+02   -0.13422E-05   -0.46729E-07    48   0.548E-03    0.964E-04
RMM:  14    -0.239655398356E+02   -0.77536E-06   -0.11772E-07    48   0.254E-03
    4 T=   175. E= -.23866022E+02 F= -.23965540E+02 E0= -.23969664E+02  EK= 0.90385E-01 SP= 0.27E-02 SK= 0.64E-02
       N       E                     dE             d eps       ncg     rms          rms(c)
DAV:   1    -0.239546156966E+02    0.10923E-01   -0.21542E+00    64   0.145E+01    0.574E-01
RMM:   2    -0.239877684932E+02   -0.33153E-01   -0.19366E-01    64   0.301E+00    0.114E+00
RMM:   3    -0.239558380526E+02    0.31930E-01   -0.20432E-01    64   0.258E+00    0.325E-01
RMM:   4    -0.239648270050E+02   -0.89890E-02   -0.51528E-02    64   0.140E+00    0.607E-01
RMM:   5    -0.239533838430E+02    0.11443E-01   -0.29330E-02    64   0.980E-01    0.172E-01
RMM:   6    -0.239536427839E+02   -0.25894E-03   -0.56987E-03    71   0.486E-01    0.455E-02
RMM:   7    -0.239538285476E+02   -0.18576E-03   -0.18037E-04    64   0.927E-02    0.334E-02
RMM:   8    -0.239538875659E+02   -0.59018E-04   -0.21313E-04    64   0.872E-02    0.102E-02
RMM:   9    -0.239539075697E+02   -0.20004E-04   -0.28090E-05    64   0.329E-02    0.104E-02
RMM:  10    -0.239539303162E+02   -0.22746E-04   -0.28268E-05    64   0.300E-02    0.331E-03
RMM:  11    -0.239539410747E+02   -0.10759E-04   -0.58690E-06    64   0.157E-02    0.590E-03
RMM:  12    -0.239539451478E+02   -0.40732E-05   -0.41544E-06    60   0.114E-02    0.136E-03
RMM:  13    -0.239539456238E+02   -0.47594E-06   -0.11596E-06    48   0.773E-03
    5 T=   182. E= -.23837467E+02 F= -.23953946E+02 E0= -.23957817E+02  EK= 0.94121E-01 SP= 0.63E-02 SK= 0.16E-01
       N       E                     dE             d eps       ncg     rms          rms(c)
DAV:   1    -0.239921849307E+02   -0.38240E-01   -0.20958E+00    64   0.137E+01    0.776E-01
RMM:   2    -0.240381287934E+02   -0.45944E-01   -0.58429E-01    64   0.442E+00    0.134E+00
RMM:   3    -0.239857454626E+02    0.52383E-01   -0.40457E-01    64   0.366E+00    0.430E-01
RMM:   4    -0.239843393889E+02    0.14061E-02   -0.49612E-02    64   0.133E+00    0.304E-01
RMM:   5    -0.239827589598E+02    0.15804E-02   -0.21127E-03    64   0.347E-01    0.257E-01
RMM:   6    -0.239809385144E+02    0.18204E-02   -0.11744E-02    64   0.614E-01    0.175E-02
RMM:   7    -0.239810343133E+02   -0.95799E-04   -0.60009E-04    64   0.168E-01    0.336E-02
RMM:   8    -0.239810518324E+02   -0.17519E-04   -0.53582E-05    64   0.489E-02    0.192E-02
RMM:   9    -0.239810739364E+02   -0.22104E-04   -0.15235E-05    64   0.247E-02    0.144E-02
RMM:  10    -0.239810927641E+02   -0.18828E-04   -0.22829E-05    64   0.284E-02    0.504E-03
RMM:  11    -0.239810966374E+02   -0.38733E-05   -0.31160E-06    60   0.120E-02    0.204E-03
RMM:  12    -0.239811014226E+02   -0.47852E-05   -0.44776E-06    60   0.132E-02    0.266E-03
RMM:  13    -0.239811027821E+02   -0.13595E-05   -0.37816E-07    48   0.434E-03    0.112E-03
RMM:  14    -0.239811041038E+02   -0.13217E-05   -0.96242E-07    48   0.631E-03    0.785E-04
RMM:  15    -0.239811047620E+02   -0.65818E-06   -0.13118E-07    48   0.313E-03
    6 T=   175. E= -.23849193E+02 F= -.23981105E+02 E0= -.23984971E+02  EK= 0.90298E-01 SP= 0.12E-01 SK= 0.30E-01
       N       E                     dE             d eps       ncg     rms          rms(c)
DAV:   1    -0.239738356586E+02    0.72684E-02   -0.14957E+00    64   0.117E+01    0.547E-01
RMM:   2    -0.239711091605E+02    0.27265E-02   -0.28090E-02    64   0.130E+00    0.244E-01
RMM:   3    -0.239772338745E+02   -0.61247E-02   -0.18661E-02    64   0.846E-01    0.449E-01
RMM:   4    -0.239736123758E+02    0.36215E-02   -0.35006E-03    64   0.366E-01    0.274E-01
RMM:   5    -0.239734875557E+02    0.12482E-03   -0.60511E-04    68   0.160E-01    0.239E-01
RMM:   6    -0.239725509826E+02    0.93657E-03   -0.17197E-02    64   0.762E-01    0.750E-02
RMM:   7    -0.239724895142E+02    0.61468E-04   -0.13465E-04    64   0.109E-01    0.371E-02
RMM:   8    -0.239725142398E+02   -0.24726E-04   -0.29292E-04    64   0.985E-02    0.257E-03
RMM:   9    -0.239725524897E+02   -0.38250E-04   -0.68720E-06    60   0.191E-02    0.299E-03
RMM:  10    -0.239725748333E+02   -0.22344E-04   -0.18973E-06    52   0.812E-03    0.270E-03
RMM:  11    -0.239725833734E+02   -0.85401E-05   -0.71526E-07    48   0.526E-03    0.102E-03
RMM:  12    -0.239725858885E+02   -0.25151E-05   -0.23672E-07    44   0.320E-03    0.549E-04
RMM:  13    -0.239725866843E+02   -0.79575E-06   -0.12878E-07    48   0.253E-03
    7 T=   170. E= -.23818590E+02 F= -.23972587E+02 E0= -.23976517E+02  EK= 0.87951E-01 SP= 0.18E-01 SK= 0.48E-01
       N       E                     dE             d eps       ncg     rms          rms(c)
DAV:   1    -0.240018216449E+02   -0.29236E-01   -0.15715E+00    64   0.119E+01    0.774E-01
RMM:   2    -0.239916086053E+02    0.10213E-01   -0.94994E-02    64   0.212E+00    0.333E-01
RMM:   3    -0.240293056604E+02   -0.37697E-01   -0.17253E-01    64   0.249E+00    0.108E+00
RMM:   4    -0.239965261913E+02    0.32779E-01   -0.68038E-02    64   0.151E+00    0.425E-01
RMM:   5    -0.239945786743E+02    0.19475E-02   -0.53102E-02    64   0.139E+00    0.485E-02
RMM:   6    -0.239953185090E+02   -0.73983E-03   -0.38706E-03    64   0.410E-01    0.115E-01
RMM:   7    -0.239954327789E+02   -0.11427E-03   -0.13793E-04    64   0.786E-02    0.104E-01
RMM:   8    -0.239951891735E+02    0.24361E-03   -0.17256E-03    64   0.236E-01    0.117E-02
RMM:   9    -0.239952689739E+02   -0.79800E-04   -0.48170E-04    64   0.136E-01    0.329E-02
RMM:  10    -0.239952521474E+02    0.16826E-04   -0.78947E-05    64   0.537E-02    0.757E-03
RMM:  11    -0.239952812758E+02   -0.29128E-04   -0.61854E-05    64   0.479E-02    0.936E-03
RMM:  12    -0.239952856091E+02   -0.43333E-05   -0.26864E-06    60   0.121E-02    0.561E-03
RMM:  13    -0.239952891399E+02   -0.35308E-05   -0.12616E-05    64   0.201E-02    0.250E-03
RMM:  14    -0.239952894936E+02   -0.35369E-06   -0.27877E-07    48   0.381E-03
    8 T=   154. E= -.23821438E+02 F= -.23995289E+02 E0= -.24000631E+02  EK= 0.79699E-01 SP= 0.27E-01 SK= 0.67E-01
       N       E                     dE             d eps       ncg     rms          rms(c)
DAV:   1    -0.240019066804E+02   -0.66175E-02   -0.15756E+00    64   0.123E+01    0.588E-01
RMM:   2    -0.239904760092E+02    0.11431E-01   -0.23696E-02    64   0.129E+00    0.297E-01
RMM:   3    -0.240398688975E+02   -0.49393E-01   -0.19858E-01    64   0.252E+00    0.118E+00
RMM:   4    -0.240008159307E+02    0.39053E-01   -0.77161E-02    64   0.156E+00    0.515E-01
RMM:   5    -0.239974166234E+02    0.33993E-02   -0.36088E-02    64   0.114E+00    0.102E-01
RMM:   6    -0.239988317954E+02   -0.14152E-02   -0.99064E-04    64   0.257E-01    0.136E-01
RMM:   7    -0.239986161000E+02    0.21570E-03   -0.17847E-03    64   0.252E-01    0.420E-02
RMM:   8    -0.239987138341E+02   -0.97734E-04   -0.52515E-04    64   0.139E-01    0.427E-03
RMM:   9    -0.239987681442E+02   -0.54310E-04   -0.20907E-05    64   0.367E-02    0.247E-03
RMM:  10    -0.239987853657E+02   -0.17221E-04   -0.41758E-06    60   0.144E-02    0.203E-03
RMM:  11    -0.239987944909E+02   -0.91253E-05   -0.90161E-07    48   0.620E-03    0.730E-04
RMM:  12    -0.239987985971E+02   -0.41062E-05   -0.81188E-07    48   0.558E-03    0.145E-03
RMM:  13    -0.239988001022E+02   -0.15051E-05   -0.17683E-07    48   0.339E-03    0.165E-03
RMM:  14    -0.239988004673E+02   -0.36507E-06   -0.21620E-07    48   0.287E-03
    9 T=   101. E= -.23827501E+02 F= -.23998800E+02 E0= -.24002680E+02  EK= 0.52336E-01 SP= 0.37E-01 SK= 0.82E-01
       N       E                     dE             d eps       ncg     rms          rms(c)
DAV:   1    -0.240230772303E+02   -0.24277E-01   -0.94372E-01    64   0.908E+00    0.515E-01
RMM:   2    -0.240325654218E+02   -0.94882E-02   -0.47939E-02    64   0.162E+00    0.666E-01
RMM:   3    -0.240173074089E+02    0.15258E-01   -0.12998E-01    64   0.203E+00    0.166E-01
RMM:   4    -0.240177780254E+02   -0.47062E-03   -0.17405E-03    64   0.355E-01    0.153E-01
RMM:   5    -0.240175777380E+02    0.20029E-03   -0.50810E-03    64   0.400E-01    0.284E-02
RMM:   6    -0.240176638395E+02   -0.86102E-04   -0.11224E-04    64   0.835E-02    0.328E-02
RMM:   7    -0.240177308827E+02   -0.67043E-04   -0.51083E-04    64   0.128E-01    0.254E-02
RMM:   8    -0.240177400896E+02   -0.92070E-05   -0.46068E-05    64   0.408E-02    0.398E-03
RMM:   9    -0.240177577742E+02   -0.17685E-04   -0.21828E-05    64   0.292E-02    0.601E-03
RMM:  10    -0.240177681218E+02   -0.10348E-04   -0.97518E-06    64   0.182E-02    0.242E-03
RMM:  11    -0.240177721968E+02   -0.40750E-05   -0.41584E-07    48   0.465E-03    0.798E-04
RMM:  12    -0.240177735806E+02   -0.13839E-05   -0.77175E-07    48   0.529E-03    0.765E-04
RMM:  13    -0.240177740375E+02   -0.45687E-06   -0.81938E-08    48   0.216E-03
   10 T=    83. E= -.23836362E+02 F= -.24017774E+02 E0= -.24021742E+02  EK= 0.42785E-01 SP= 0.47E-01 SK= 0.91E-01
