 vasp.5.4.4.18Apr17-6-g9f103f2a35 (build Jul 12 2018 13:43:46) complex           
 executed on             LinuxGNU date 2019.06.22  02:17:35
 running on    1 total cores
 distrk:  each k-point on    1 cores,    1 groups
 distr:  one band on NCORES_PER_BAND=   1 cores,    1 groups


--------------------------------------------------------------------------------------------------------


 INCAR:
 POTCAR:    PAW_PBE H 15Jun2001                   
 POTCAR:    PAW_PBE C 08Apr2002                   
 POTCAR:    PAW_PBE H 15Jun2001                   
   VRHFIN =H: ultrasoft test                                                    
   LEXCH  = PE                                                                  
   EATOM  =    12.4884 eV,    0.9179 Ry                                         
                                                                                
   TITEL  = PAW_PBE H 15Jun2001                                                 
   LULTRA =        F    use ultrasoft PP ?                                      
   IUNSCR =        0    unscreen: 0-lin 1-nonlin 2-no                           
   RPACOR =    0.000    partial core radius                                     
   POMASS =    1.000; ZVAL   =    1.000    mass and valenz                      
   RCORE  =    1.100    outmost cutoff radius                                   
   RWIGS  =    0.700; RWIGS  =    0.370    wigner-seitz radius (au A)           
   ENMAX  =  250.000; ENMIN  =  200.000 eV                                      
   RCLOC  =    0.701    cutoff for local pot                                    
   LCOR   =        T    correct aug charges                                     
   LPAW   =        T    paw PP                                                  
   EAUG   =  400.000                                                            
   RMAX   =    1.123    core radius for proj-oper                               
   RAUG   =    1.200    factor for augmentation sphere                          
   RDEP   =    1.112    radius for radial grids                                 
   RDEPT  =    0.926    core radius for aug-charge                              
                                                                                
   Atomic configuration                                                         
    2 entries                                                                   
     n  l   j            E        occ.                                          
     1  0  0.50        -6.4927   1.0000                                         
     2  1  0.50        -3.4015   0.0000                                         
   Description                                                                  
     l       E           TYP  RCUT    TYP  RCUT                                 
     0     -6.4927494     23  1.100                                             
     0      6.8029130     23  1.100                                             
     1     -4.0817478     23  1.100                                             
  local pseudopotential read in
  atomic valenz-charges read in
  non local Contribution for L=           0  read in
    real space projection operators read in
  non local Contribution for L=           0  read in
    real space projection operators read in
  non local Contribution for L=           1  read in
    real space projection operators read in
    PAW grid and wavefunctions read in

   number of l-projection  operators is LMAX  =           3
   number of lm-projection operators is LMMAX =           5

 POTCAR:    PAW_PBE C 08Apr2002                   
   VRHFIN =C: s2p2                                                              
   LEXCH  = PE                                                                  
   EATOM  =   147.1560 eV,   10.8157 Ry                                         
                                                                                
   TITEL  = PAW_PBE C 08Apr2002                                                 
   LULTRA =        F    use ultrasoft PP ?                                      
   IUNSCR =        1    unscreen: 0-lin 1-nonlin 2-no                           
   RPACOR =    1.200    partial core radius                                     
   POMASS =   12.011; ZVAL   =    4.000    mass and valenz                      
   RCORE  =    1.500    outmost cutoff radius                                   
   RWIGS  =    1.630; RWIGS  =    0.863    wigner-seitz radius (au A)           
   ENMAX  =  400.000; ENMIN  =  300.000 eV                                      
   ICORE  =        2    local potential                                         
   LCOR   =        T    correct aug charges                                     
   LPAW   =        T    paw PP                                                  
   EAUG   =  644.873                                                            
   DEXC   =    0.000                                                            
   RMAX   =    1.529    core radius for proj-oper                               
   RAUG   =    1.300    factor for augmentation sphere                          
   RDEP   =    1.501    radius for radial grids                                 
   RDEPT  =    1.300    core radius for aug-charge                              
                                                                                
   Atomic configuration                                                         
    4 entries                                                                   
     n  l   j            E        occ.                                          
     1  0  0.50      -273.3789   2.0000                                         
     2  0  0.50       -13.7508   2.0000                                         
     2  1  0.50        -5.2854   2.0000                                         
     3  2  1.50        -5.4423   0.0000                                         
   Description                                                                  
     l       E           TYP  RCUT    TYP  RCUT                                 
     0    -13.7508458     23  1.200                                             
     0     -8.2022199     23  1.200                                             
     1     -5.2854383     23  1.500                                             
     1     34.0145650     23  1.500                                             
     2     -5.4423304      7  1.500                                             
  local pseudopotential read in
  partial core-charges read in
  partial kinetic energy density read in
  atomic valenz-charges read in
  non local Contribution for L=           0  read in
    real space projection operators read in
  non local Contribution for L=           0  read in
    real space projection operators read in
  non local Contribution for L=           1  read in
    real space projection operators read in
  non local Contribution for L=           1  read in
    real space projection operators read in
    PAW grid and wavefunctions read in

   number of l-projection  operators is LMAX  =           4
   number of lm-projection operators is LMMAX =           8


 ----------------------------------------------------------------------------- 
|                                                                             |
|  ADVICE TO THIS USER RUNNING 'VASP/VAMP'   (HEAR YOUR MASTER'S VOICE ...):  |
|                                                                             |
|      You have a (more or less) 'small supercell' and for smaller cells      |
|      it is recommended  to use the reciprocal-space projection scheme!      |
|      The real space optimization is not  efficient for small cells and it   |
|      is also less accurate ...                                              |
|      Therefore set LREAL=.FALSE. in the  INCAR file                         |
|                                                                             |
 ----------------------------------------------------------------------------- 


 ----------------------------------------------------------------------------- 
|                                                                             |
|           W    W    AA    RRRRR   N    N  II  N    N   GGGG   !!!           |
|           W    W   A  A   R    R  NN   N  II  NN   N  G    G  !!!           |
|           W    W  A    A  R    R  N N  N  II  N N  N  G       !!!           |
|           W WW W  AAAAAA  RRRRR   N  N N  II  N  N N  G  GGG   !            |
|           WW  WW  A    A  R   R   N   NN  II  N   NN  G    G                |
|           W    W  A    A  R    R  N    N  II  N    N   GGGG   !!!           |
|                                                                             |
|     The real-space-projection scheme for the treatment of the nonlocal      |
|     pseudopotentials has been switched on -- but on file POTCAR I have      |
|     not found any entries signalling me that you have ever performed a      |
|     real-space optimization of all nonlocal projectors! BE WARNED that      |
|     a calculation using the real-space-projection scheme together with      |
|     nonlocal projectors which were not real-space-optimized (according      |
|     to the plane-wave-cutoff used in this calculation) might give more      |
|     or less inaccurate results                                              |
|     I hope you know what you are doing                                      |
|                                                                             |
 ----------------------------------------------------------------------------- 

  PAW_PBE H 15Jun2001                   :
 energy of atom  1       EATOM=  -12.4884
 kinetic energy error for atom=    0.0098 (will be added to EATOM!!)
  PAW_PBE C 08Apr2002                   :
 energy of atom  2       EATOM= -147.1560
 kinetic energy error for atom=    0.0288 (will be added to EATOM!!)


 POSCAR:  H  C                                   
  positions in cartesian coordinates
  No initial velocities read in
 exchange correlation table for  LEXCH =        8
   RHO(1)=    0.500       N(1)  =     2000
   RHO(2)=  100.500       N(2)  =     4000



--------------------------------------------------------------------------------------------------------


 ion  position               nearest neighbor table
   1  0.538  0.406  0.360-   5 1.12
   2  0.394  0.480  0.439-   5 1.08
   3  0.552  0.565  0.442-   5 1.11
   4  0.529  0.416  0.539-   5 1.12
   5  0.503  0.467  0.445-   2 1.08   3 1.11   1 1.12   4 1.12


IMPORTANT INFORMATION: All symmetrisations will be switched off!
NOSYMM: (Re-)initialisation of all symmetry stuff for point group C_1.




Automatic generation of k-mesh.
 generate k-points for:    2    2    2
Space group operators:
 irot       det(A)        alpha          n_x          n_y          n_z        tau_x        tau_y        tau_z
    1     1.000000     0.000000     1.000000     0.000000     0.000000     0.000000     0.000000     0.000000
 
 Subroutine IBZKPT returns following result:
 ===========================================
 
 Found      4 irreducible k-points:
 
 Following reciprocal coordinates:
            Coordinates               Weight
  0.250000  0.250000  0.250000      2.000000
 -0.250000  0.250000  0.250000      2.000000
  0.250000 -0.250000  0.250000      2.000000
 -0.250000 -0.250000  0.250000      2.000000
 
 Following cartesian coordinates:
            Coordinates               Weight
  0.025393  0.024404  0.025331      2.000000
 -0.025393  0.024541  0.024617      2.000000
  0.025393 -0.024541  0.024500      2.000000
 -0.025393 -0.024404  0.023786      2.000000
 


--------------------------------------------------------------------------------------------------------




 Dimension of arrays:
   k-points           NKPTS =      4   k-points in BZ     NKDIM =      4   number of bands    NBANDS=      8
   number of dos      NEDOS =    301   number of ions     NIONS =      5
   non local maximal  LDIM  =      4   non local SUM 2l+1 LMDIM =      8
   total plane-waves  NPLWV = 313600
   max r-space proj   IRMAX =    729   max aug-charges    IRDMAX=   3814
   dimension x,y,z NGX =    64 NGY =   70 NGZ =   70
   dimension x,y,z NGXF=   128 NGYF=  140 NGZF=  140
   support grid    NGXF=   128 NGYF=  140 NGZF=  140
   ions per type =               4   1
   NGX,Y,Z   is equivalent  to a cutoff of  10.81, 11.39, 11.43 a.u.
   NGXF,Y,Z  is equivalent  to a cutoff of  21.61, 22.78, 22.86 a.u.

 SYSTEM =  unknown system                          
 POSCAR =   H  C                                   

 Startparameter for this run:
   NWRITE =      2    write-flag & timer
   PREC   = a         normal or accurate (medium, high low for compatibility)
   ISTART =      0    job   : 0-new  1-cont  2-samecut
   ICHARG =      2    charge: 1-file 2-atom 10-const
   ISPIN  =      1    spin polarized calculation?
   LNONCOLLINEAR =      F non collinear calculations
   LSORBIT =      F    spin-orbit coupling
   INIWAV =      1    electr: 0-lowe 1-rand  2-diag
   LASPH  =      F    aspherical Exc in radial PAW
   METAGGA=      F    non-selfconsistent MetaGGA calc.

 Electronic Relaxation 1
   ENCUT  =  400.0 eV  29.40 Ry    5.42 a.u.  16.05 16.66 16.60*2*pi/ulx,y,z
   ENINI  =  400.0     initial cutoff
   ENAUG  =  644.9 eV  augmentation charge cutoff
   NELM   =     60;   NELMIN=  2; NELMDL= -5     # of ELM steps 
   EDIFF  = 0.1E-05   stopping-criterion for ELM
   LREAL  =      T    real-space projection
   NLSPLINE    = F    spline interpolate recip. space projectors
   LCOMPAT=      F    compatible to vasp.4.4
   GGA_COMPAT  = T    GGA compatible to vasp.4.4-vasp.4.6
   LMAXPAW     = -100 max onsite density
   LMAXMIX     =    2 max onsite mixed and CHGCAR
   VOSKOWN=      0    Vosko Wilk Nusair interpolation
   ROPT   =    0.00000   0.00000
 Ionic relaxation
   EDIFFG = 0.1E-04   stopping-criterion for IOM
   NSW    =     10    number of steps for IOM
   NBLOCK =      1;   KBLOCK =      1    inner block; outer block 
   IBRION =      0    ionic relax: 0-MD 1-quasi-New 2-CG
   NFREE  =      0    steps in history (QN), initial steepest desc. (CG)
   ISIF   =      2    stress and relaxation
   IWAVPR =     12    prediction:  0-non 1-charg 2-wave 3-comb
   ISYM   =      0    0-nonsym 1-usesym 2-fastsym
   LCORR  =      T    Harris-Foulkes like correction to forces

   POTIM  = 2.0000    time-step for ionic-motion
   TEIN   =   50.0    initial temperature
   TEBEG  =   50.0;   TEEND  =  50.0 temperature during run
   SMASS  =   0.00    Nose mass-parameter (am)
   estimated Nose-frequenzy (Omega)   =  0.79E+14 period in steps = 40.00 mass=   0.123E-29a.u.
   SCALEE = 1.0000    scale energy and forces
   NPACO  =    256;   APACO  = 16.0  distance and # of slots for P.C.
   PSTRESS=    0.0 pullay stress

  Mass of Ions in am
   POMASS =   1.00 12.01
  Ionic Valenz
   ZVAL   =   1.00  4.00
  Atomic Wigner-Seitz radii
   RWIGS  =  -1.00 -1.00
  virtual crystal weights 
   VCA    =   1.00  1.00
   NELECT =       8.0000    total number of electrons
   NUPDOWN=      -1.0000    fix difference up-down

 DOS related values:
   EMIN   =  10.00;   EMAX   =-10.00  energy-range for DOS
   EFERMI =   0.00
   ISMEAR =     1;   SIGMA  =   0.20  broadening in eV -4-tet -1-fermi 0-gaus

 Electronic relaxation 2 (details)
   IALGO  =     68    algorithm
   LDIAG  =      T    sub-space diagonalisation (order eigenvalues)
   LSUBROT=      F    optimize rotation matrix (better conditioning)
   TURBO    =      0    0=normal 1=particle mesh
   IRESTART =      0    0=no restart 2=restart with 2 vectors
   NREBOOT  =      0    no. of reboots
   NMIN     =      0    reboot dimension
   EREF     =   0.00    reference energy to select bands
   IMIX   =      4    mixing-type and parameters
     AMIX     =   0.40;   BMIX     =  1.00
     AMIX_MAG =   1.60;   BMIX_MAG =  1.00
     AMIN     =   0.10
     WC   =   100.;   INIMIX=   1;  MIXPRE=   1;  MAXMIX=  50

 Intra band minimization:
   WEIMIN = 0.0010     energy-eigenvalue tresh-hold
   EBREAK =  0.31E-07  absolut break condition
   DEPER  =   0.30     relativ break condition  

   TIME   =   0.40     timestep for ELM

  volume/ion in A,a.u.               =     204.76      1381.80
  Fermi-wavevector in a.u.,A,eV,Ry     =   0.324862  0.613900  1.435893  0.105535
  Thomas-Fermi vector in A             =   1.215355

 Write flags
   LWAVE        =      F    write WAVECAR
   LDOWNSAMPLE  =      F    k-point downsampling of WAVECAR
   LCHARG       =      F    write CHGCAR
   LVTOT        =      F    write LOCPOT, total local potential
   LVHAR        =      F    write LOCPOT, Hartree potential only
   LELF         =      F    write electronic localiz. function (ELF)
   LORBIT       =      0    0 simple, 1 ext, 2 COOP (PROOUT), +10 PAW based schemes


 Dipole corrections
   LMONO  =      F    monopole corrections only (constant potential shift)
   LDIPOL =      F    correct potential (dipole corrections)
   IDIPOL =      0    1-x, 2-y, 3-z, 4-all directions 
   EPSILON=  1.0000000 bulk dielectric constant

 Exchange correlation treatment:
   GGA     =    --    GGA type
   LEXCH   =     8    internal setting for exchange type
   VOSKOWN=      0    Vosko Wilk Nusair interpolation
   LHFCALC =     F    Hartree Fock is set to
   LHFONE  =     F    Hartree Fock one center treatment
   AEXX    =    0.0000 exact exchange contribution

 Linear response parameters
   LEPSILON=     F    determine dielectric tensor
   LRPA    =     F    only Hartree local field effects (RPA)
   LNABLA  =     F    use nabla operator in PAW spheres
   LVEL    =     F    velocity operator in full k-point grid
   LINTERFAST=   F  fast interpolation
   KINTER  =     0    interpolate to denser k-point grid
   CSHIFT  =0.1000    complex shift for real part using Kramers Kronig
   OMEGAMAX=  -1.0    maximum frequency
   DEG_THRESHOLD= 0.2000000E-02 threshold for treating states as degnerate
   RTIME   =   -0.100 relaxation time in fs
  (WPLASMAI=    0.000 imaginary part of plasma frequency in eV, 0.658/RTIME)
   DFIELD  = 0.0000000 0.0000000 0.0000000 field for delta impulse in time

 Orbital magnetization related:
   ORBITALMAG=     F  switch on orbital magnetization
   LCHIMAG   =     F  perturbation theory with respect to B field
   DQ        =  0.001000  dq finite difference perturbation B field
   LLRAUG    =     F  two centre corrections for induced B field



--------------------------------------------------------------------------------------------------------


 molecular dynamics for ions
   using nose mass (canonical ensemble)
 charge density and potential will be updated during run
 non-spin polarized calculation
 RMM-DIIS sequential band-by-band and
  variant of blocked Davidson during initial phase
 perform sub-space diagonalisation
    before iterative eigenvector-optimisation
 modified Broyden-mixing scheme, WC =      100.0
 initial mixing is a Kerker type mixing with AMIX =  0.4000 and BMIX =      1.0000
 Hartree-type preconditioning will be used
 using additional bands            4
 real space projection scheme for non local part
 use partial core corrections
 calculate Harris-corrections to forces   (improved forces if not selfconsistent)
 use gradient corrections 
 use of overlap-Matrix (Vanderbilt PP)
 Methfessel and Paxton  Order N= 1 SIGMA  =   0.20


--------------------------------------------------------------------------------------------------------


  energy-cutoff  :      400.00
  volume of cell :     1023.81
      direct lattice vectors                 reciprocal lattice vectors
     9.845175412  0.000000000  0.000000000     0.101572593 -0.000274464  0.001428961
     0.027603677 10.215452760  0.000000000    -0.000000000  0.097890913  0.001662255
    -0.143679755 -0.172859277 10.179757918     0.000000000  0.000000000  0.098234163

  length of vectors
     9.845175412 10.215490055 10.182239217     0.101583015  0.097905025  0.098234163



 k-points in units of 2pi/SCALE and weight: read from INCAR                         
   0.02539315  0.02440411  0.02533134       0.250
  -0.02539315  0.02454134  0.02461686       0.250
   0.02539315 -0.02454134  0.02450022       0.250
  -0.02539315 -0.02440411  0.02378574       0.250

 k-points in reciprocal lattice and weights: read from INCAR                         
   0.25000000  0.25000000  0.25000000       0.250
  -0.25000000  0.25000000  0.25000000       0.250
   0.25000000 -0.25000000  0.25000000       0.250
  -0.25000000 -0.25000000  0.25000000       0.250

 position of ions in fractional coordinates (direct lattice) 
   0.53802785  0.40649518  0.35994617
   0.39405425  0.47999859  0.43854876
   0.55237888  0.56514172  0.44238610
   0.52907231  0.41634793  0.53915661
   0.50335376  0.46722321  0.44529762

 position of ions in cartesian coordinates  (Angst):
   5.25648238  4.09031229  3.66416488
   3.82977235  4.82759569  4.46432022
   5.39030500  5.69670803  4.50338345
   5.14283654  4.15998436  5.48848374
   4.90452292  4.69592281  4.53302202



--------------------------------------------------------------------------------------------------------


 k-point  1 :   0.2500 0.2500 0.2500  plane waves:   18595
 k-point  2 :  -0.2500 0.2500 0.2500  plane waves:   18609
 k-point  3 :   0.2500-0.2500 0.2500  plane waves:   18623
 k-point  4 :  -0.2500-0.2500 0.2500  plane waves:   18602

 maximum and minimum number of plane-waves per node :     18623    18595

 maximum number of plane-waves:     18623
 maximum index in each direction: 
   IXMAX=   16   IYMAX=   16   IZMAX=   16
   IXMIN=  -16   IYMIN=  -16   IZMIN=  -16


 serial   3D FFT for wavefunctions
 parallel 3D FFT for charge:
    minimum data exchange during FFTs selected (reduces bandwidth)


 total amount of memory used by VASP MPI-rank0   280839. kBytes
=======================================================================

   base      :      30000. kBytes
   nonlr-proj:        149. kBytes
   fftplans  :      86584. kBytes
   grid      :     154542. kBytes
   one-center:         15. kBytes
   wavefun   :       9549. kBytes

     INWAV:  cpu time    0.0000: real time    0.0000
 Broyden mixing: mesh for mixing (old mesh)
   NGX = 33   NGY = 33   NGZ = 33
  (NGX  =128   NGY  =140   NGZ  =140)
  gives a total of  35937 points

 initial charge density was supplied:
 charge density of overlapping atoms calculated
 number of electron       8.0000000 magnetization 
 keeping initial charge density in first step


--------------------------------------------------------------------------------------------------------


 Maximum index for non-local projection operator          658
 Maximum index for augmentation-charges         3501 (set IRDMAX)


--------------------------------------------------------------------------------------------------------


 First call to EWALD:  gamma=   0.176
 Maximum number of real-space cells 3x 3x 3
 Maximum number of reciprocal cells 3x 3x 3

    FEWALD:  cpu time    0.0007: real time    0.0007


--------------------------------------- Iteration      1(   1)  ---------------------------------------


    POTLOK:  cpu time    1.7482: real time    1.7526
    SETDIJ:  cpu time    0.0067: real time    0.0067
     EDDAV:  cpu time    2.8523: real time    2.8591
       DOS:  cpu time    0.0003: real time    0.0003
    --------------------------------------------
      LOOP:  cpu time    4.6075: real time    4.6186

 eigenvalue-minimisations  :    88
 total energy-change (2. order) : 0.2406666E+02  (-0.1877238E+03)
 number of electron       8.0000000 magnetization 
 augmentation part        8.0000000 magnetization 

 Free energy of the ion-electron system (eV)
  ---------------------------------------------------
  alpha Z        PSCENC =         0.23661740
  Ewald energy   TEWEN  =       127.04945676
  -Hartree energ DENC   =      -243.57048190
  -exchange      EXHF   =         0.00000000
  -V(xc)+E(xc)   XCENC  =        21.94435322
  PAW double counting   =       117.05815612     -117.66307307
  entropy T*S    EENTRO =         0.00542330
  eigenvalues    EBANDS =       -78.03554855
  atomic energy  EATOM  =       197.04175453
  Solvation  Ediel_sol  =         0.00000000
  ---------------------------------------------------
  free energy    TOTEN  =        24.06665782 eV

  energy without entropy =       24.06123452  energy(sigma->0) =       24.06485005


--------------------------------------------------------------------------------------------------------




--------------------------------------- Iteration      1(   2)  ---------------------------------------


     EDDAV:  cpu time    2.3981: real time    2.4039
       DOS:  cpu time    0.0002: real time    0.0002
    --------------------------------------------
      LOOP:  cpu time    2.3983: real time    2.4041

 eigenvalue-minimisations  :    72
 total energy-change (2. order) :-0.4391936E+02  (-0.3990629E+02)
 number of electron       8.0000000 magnetization 
 augmentation part        8.0000000 magnetization 

 Free energy of the ion-electron system (eV)
  ---------------------------------------------------
  alpha Z        PSCENC =         0.23661740
  Ewald energy   TEWEN  =       127.04945676
  -Hartree energ DENC   =      -243.57048190
  -exchange      EXHF   =         0.00000000
  -V(xc)+E(xc)   XCENC  =        21.94435322
  PAW double counting   =       117.05815612     -117.66307307
  entropy T*S    EENTRO =         0.00290066
  eigenvalues    EBANDS =      -121.95238951
  atomic energy  EATOM  =       197.04175453
  Solvation  Ediel_sol  =         0.00000000
  ---------------------------------------------------
  free energy    TOTEN  =       -19.85270578 eV

  energy without entropy =      -19.85560644  energy(sigma->0) =      -19.85367266


--------------------------------------------------------------------------------------------------------




--------------------------------------- Iteration      1(   3)  ---------------------------------------


     EDDAV:  cpu time    2.1937: real time    2.1989
       DOS:  cpu time    0.0002: real time    0.0002
    --------------------------------------------
      LOOP:  cpu time    2.1939: real time    2.1991

 eigenvalue-minimisations  :    64
 total energy-change (2. order) :-0.7175171E+01  (-0.7189668E+01)
 number of electron       8.0000000 magnetization 
 augmentation part        8.0000000 magnetization 

 Free energy of the ion-electron system (eV)
  ---------------------------------------------------
  alpha Z        PSCENC =         0.23661740
  Ewald energy   TEWEN  =       127.04945676
  -Hartree energ DENC   =      -243.57048190
  -exchange      EXHF   =         0.00000000
  -V(xc)+E(xc)   XCENC  =        21.94435322
  PAW double counting   =       117.05815612     -117.66307307
  entropy T*S    EENTRO =         0.03495405
  eigenvalues    EBANDS =      -129.15961390
  atomic energy  EATOM  =       197.04175453
  Solvation  Ediel_sol  =         0.00000000
  ---------------------------------------------------
  free energy    TOTEN  =       -27.02787678 eV

  energy without entropy =      -27.06283083  energy(sigma->0) =      -27.03952813


--------------------------------------------------------------------------------------------------------




--------------------------------------- Iteration      1(   4)  ---------------------------------------


     EDDAV:  cpu time    3.9235: real time    3.9327
       DOS:  cpu time    0.0002: real time    0.0002
    --------------------------------------------
      LOOP:  cpu time    3.9237: real time    3.9330

 eigenvalue-minimisations  :   128
 total energy-change (2. order) :-0.3777001E+00  (-0.3732160E+00)
 number of electron       8.0000000 magnetization 
 augmentation part        8.0000000 magnetization 

 Free energy of the ion-electron system (eV)
  ---------------------------------------------------
  alpha Z        PSCENC =         0.23661740
  Ewald energy   TEWEN  =       127.04945676
  -Hartree energ DENC   =      -243.57048190
  -exchange      EXHF   =         0.00000000
  -V(xc)+E(xc)   XCENC  =        21.94435322
  PAW double counting   =       117.05815612     -117.66307307
  entropy T*S    EENTRO =         0.03493683
  eigenvalues    EBANDS =      -129.53729678
  atomic energy  EATOM  =       197.04175453
  Solvation  Ediel_sol  =         0.00000000
  ---------------------------------------------------
  free energy    TOTEN  =       -27.40557688 eV

  energy without entropy =      -27.44051371  energy(sigma->0) =      -27.41722249


--------------------------------------------------------------------------------------------------------




--------------------------------------- Iteration      1(   5)  ---------------------------------------


     EDDAV:  cpu time    3.0129: real time    3.0200
       DOS:  cpu time    0.0002: real time    0.0002
    CHARGE:  cpu time    0.2081: real time    0.2086
    MIXING:  cpu time    0.0393: real time    0.0393
    --------------------------------------------
      LOOP:  cpu time    3.2605: real time    3.2682

 eigenvalue-minimisations  :    96
 total energy-change (2. order) :-0.1840989E-03  (-0.1840998E-03)
 number of electron       8.0000001 magnetization 
 augmentation part        0.2219966 magnetization 

 Broyden mixing:
  rms(total) = 0.85371E+00    rms(broyden)= 0.85349E+00
  rms(prec ) = 0.12069E+01
  weight for this iteration     100.00

 Free energy of the ion-electron system (eV)
  ---------------------------------------------------
  alpha Z        PSCENC =         0.23661740
  Ewald energy   TEWEN  =       127.04945676
  -Hartree energ DENC   =      -243.57048190
  -exchange      EXHF   =         0.00000000
  -V(xc)+E(xc)   XCENC  =        21.94435322
  PAW double counting   =       117.05815612     -117.66307307
  entropy T*S    EENTRO =         0.03493490
  eigenvalues    EBANDS =      -129.53747895
  atomic energy  EATOM  =       197.04175453
  Solvation  Ediel_sol  =         0.00000000
  ---------------------------------------------------
  free energy    TOTEN  =       -27.40576098 eV

  energy without entropy =      -27.44069588  energy(sigma->0) =      -27.41740595


--------------------------------------------------------------------------------------------------------




--------------------------------------- Iteration      1(   6)  ---------------------------------------


    POTLOK:  cpu time    1.7318: real time    1.7359
    SETDIJ:  cpu time    0.0064: real time    0.0065
    EDDIAG:  cpu time    0.4624: real time    0.4635
  RMM-DIIS:  cpu time    1.6374: real time    1.6413
    ORTHCH:  cpu time    0.0120: real time    0.0120
       DOS:  cpu time    0.0002: real time    0.0002
    CHARGE:  cpu time    0.2158: real time    0.2163
    MIXING:  cpu time    0.0395: real time    0.0396
    --------------------------------------------
      LOOP:  cpu time    4.1056: real time    4.1153

 eigenvalue-minimisations  :    64
 total energy-change (2. order) : 0.2774009E+01  (-0.5111790E+00)
 number of electron       8.0000001 magnetization 
 augmentation part        0.1957795 magnetization 

 Broyden mixing:
  rms(total) = 0.42398E+00    rms(broyden)= 0.42389E+00
  rms(prec ) = 0.54747E+00
  weight for this iteration     100.00

 eigenvalues of (default mixing * dielectric matrix)
  average eigenvalue GAMMA=   1.2916
  1.2916

 Free energy of the ion-electron system (eV)
  ---------------------------------------------------
  alpha Z        PSCENC =         0.23661740
  Ewald energy   TEWEN  =       127.04945676
  -Hartree energ DENC   =      -262.86518663
  -exchange      EXHF   =         0.00000000
  -V(xc)+E(xc)   XCENC  =        23.11604194
  PAW double counting   =       236.62820847     -237.40212085
  entropy T*S    EENTRO =         0.03819811
  eigenvalues    EBANDS =      -108.47472214
  atomic energy  EATOM  =       197.04175453
  Solvation  Ediel_sol  =         0.00000000
  ---------------------------------------------------
  free energy    TOTEN  =       -24.63175242 eV

  energy without entropy =      -24.66995053  energy(sigma->0) =      -24.64448512


--------------------------------------------------------------------------------------------------------




--------------------------------------- Iteration      1(   7)  ---------------------------------------


    POTLOK:  cpu time    1.7388: real time    1.7429
    SETDIJ:  cpu time    0.0064: real time    0.0064
    EDDIAG:  cpu time    0.4718: real time    0.4730
  RMM-DIIS:  cpu time    1.5827: real time    1.5864
    ORTHCH:  cpu time    0.0116: real time    0.0117
       DOS:  cpu time    0.0002: real time    0.0002
    CHARGE:  cpu time    0.1919: real time    0.1923
    MIXING:  cpu time    0.0398: real time    0.0399
    --------------------------------------------
      LOOP:  cpu time    4.0433: real time    4.0528

 eigenvalue-minimisations  :    64
 total energy-change (2. order) : 0.4694081E+00  (-0.1110160E+00)
 number of electron       8.0000001 magnetization 
 augmentation part        0.1857056 magnetization 

 Broyden mixing:
  rms(total) = 0.22793E+00    rms(broyden)= 0.22788E+00
  rms(prec ) = 0.27567E+00
  weight for this iteration     100.00

 eigenvalues of (default mixing * dielectric matrix)
  average eigenvalue GAMMA=   1.7289
  1.4587  1.9992

 Free energy of the ion-electron system (eV)
  ---------------------------------------------------
  alpha Z        PSCENC =         0.23661740
  Ewald energy   TEWEN  =       127.04945676
  -Hartree energ DENC   =      -274.07629064
  -exchange      EXHF   =         0.00000000
  -V(xc)+E(xc)   XCENC  =        23.94330864
  PAW double counting   =       358.94925342     -359.75943146
  entropy T*S    EENTRO =         0.03744463
  eigenvalues    EBANDS =       -97.58445761
  atomic energy  EATOM  =       197.04175453
  Solvation  Ediel_sol  =         0.00000000
  ---------------------------------------------------
  free energy    TOTEN  =       -24.16234432 eV

  energy without entropy =      -24.19978895  energy(sigma->0) =      -24.17482586


--------------------------------------------------------------------------------------------------------




--------------------------------------- Iteration      1(   8)  ---------------------------------------


    POTLOK:  cpu time    1.7710: real time    1.7752
    SETDIJ:  cpu time    0.0066: real time    0.0066
    EDDIAG:  cpu time    0.4674: real time    0.4685
  RMM-DIIS:  cpu time    1.5451: real time    1.5487
    ORTHCH:  cpu time    0.0119: real time    0.0119
       DOS:  cpu time    0.0002: real time    0.0002
    CHARGE:  cpu time    0.1900: real time    0.1905
    MIXING:  cpu time    0.0415: real time    0.0416
    --------------------------------------------
      LOOP:  cpu time    4.0337: real time    4.0432

 eigenvalue-minimisations  :    64
 total energy-change (2. order) : 0.1337336E+00  (-0.1352754E-01)
 number of electron       8.0000001 magnetization 
 augmentation part        0.1844218 magnetization 

 Broyden mixing:
  rms(total) = 0.74184E-01    rms(broyden)= 0.74090E-01
  rms(prec ) = 0.10831E+00
  weight for this iteration     100.00

 eigenvalues of (default mixing * dielectric matrix)
  average eigenvalue GAMMA=   1.4225
  2.2331  1.4296  0.6047

 Free energy of the ion-electron system (eV)
  ---------------------------------------------------
  alpha Z        PSCENC =         0.23661740
  Ewald energy   TEWEN  =       127.04945676
  -Hartree energ DENC   =      -278.87295551
  -exchange      EXHF   =         0.00000000
  -V(xc)+E(xc)   XCENC  =        24.41692110
  PAW double counting   =       453.13281122     -453.91558896
  entropy T*S    EENTRO =         0.04021472
  eigenvalues    EBANDS =       -93.15784196
  atomic energy  EATOM  =       197.04175453
  Solvation  Ediel_sol  =         0.00000000
  ---------------------------------------------------
  free energy    TOTEN  =       -24.02861070 eV

  energy without entropy =      -24.06882541  energy(sigma->0) =      -24.04201560


--------------------------------------------------------------------------------------------------------




--------------------------------------- Iteration      1(   9)  ---------------------------------------


    POTLOK:  cpu time    1.7966: real time    1.8010
    SETDIJ:  cpu time    0.0064: real time    0.0065
    EDDIAG:  cpu time    0.4812: real time    0.4824
  RMM-DIIS:  cpu time    1.5275: real time    1.5312
    ORTHCH:  cpu time    0.0118: real time    0.0119
       DOS:  cpu time    0.0002: real time    0.0002
    CHARGE:  cpu time    0.2065: real time    0.2070
    MIXING:  cpu time    0.0424: real time    0.0425
    --------------------------------------------
      LOOP:  cpu time    4.0727: real time    4.0825

 eigenvalue-minimisations  :    64
 total energy-change (2. order) : 0.1545022E-01  (-0.1849599E-02)
 number of electron       8.0000001 magnetization 
 augmentation part        0.1840813 magnetization 

 Broyden mixing:
  rms(total) = 0.28117E-01    rms(broyden)= 0.27980E-01
  rms(prec ) = 0.51600E-01
  weight for this iteration     100.00

 eigenvalues of (default mixing * dielectric matrix)
  average eigenvalue GAMMA=   1.2331
  2.2061  1.4064  0.7810  0.5388

 Free energy of the ion-electron system (eV)
  ---------------------------------------------------
  alpha Z        PSCENC =         0.23661740
  Ewald energy   TEWEN  =       127.04945676
  -Hartree energ DENC   =      -280.10612604
  -exchange      EXHF   =         0.00000000
  -V(xc)+E(xc)   XCENC  =        24.51334465
  PAW double counting   =       467.40097356     -468.18145575
  entropy T*S    EENTRO =         0.03728818
  eigenvalues    EBANDS =       -92.00501377
  atomic energy  EATOM  =       197.04175453
  Solvation  Ediel_sol  =         0.00000000
  ---------------------------------------------------
  free energy    TOTEN  =       -24.01316048 eV

  energy without entropy =      -24.05044866  energy(sigma->0) =      -24.02558988


--------------------------------------------------------------------------------------------------------




--------------------------------------- Iteration      1(  10)  ---------------------------------------


    POTLOK:  cpu time    1.7983: real time    1.8026
    SETDIJ:  cpu time    0.0064: real time    0.0064
    EDDIAG:  cpu time    0.4508: real time    0.4519
  RMM-DIIS:  cpu time    1.5581: real time    1.5618
    ORTHCH:  cpu time    0.0123: real time    0.0123
       DOS:  cpu time    0.0002: real time    0.0002
    CHARGE:  cpu time    0.2141: real time    0.2146
    MIXING:  cpu time    0.0440: real time    0.0441
    --------------------------------------------
      LOOP:  cpu time    4.0843: real time    4.0940

 eigenvalue-minimisations  :    64
 total energy-change (2. order) : 0.2054323E-02  (-0.2749948E-03)
 number of electron       8.0000001 magnetization 
 augmentation part        0.1836999 magnetization 

 Broyden mixing:
  rms(total) = 0.18632E-01    rms(broyden)= 0.18613E-01
  rms(prec ) = 0.38848E-01
  weight for this iteration     100.00

 eigenvalues of (default mixing * dielectric matrix)
  average eigenvalue GAMMA=   1.1724
  2.0788  1.4877  1.0017  0.7870  0.5067

 Free energy of the ion-electron system (eV)
  ---------------------------------------------------
  alpha Z        PSCENC =         0.23661740
  Ewald energy   TEWEN  =       127.04945676
  -Hartree energ DENC   =      -280.73967420
  -exchange      EXHF   =         0.00000000
  -V(xc)+E(xc)   XCENC  =        24.54198391
  PAW double counting   =       466.77528913     -467.55740246
  entropy T*S    EENTRO =         0.03672151
  eigenvalues    EBANDS =       -91.39585273
  atomic energy  EATOM  =       197.04175453
  Solvation  Ediel_sol  =         0.00000000
  ---------------------------------------------------
  free energy    TOTEN  =       -24.01110616 eV

  energy without entropy =      -24.04782767  energy(sigma->0) =      -24.02334666


--------------------------------------------------------------------------------------------------------




--------------------------------------- Iteration      1(  11)  ---------------------------------------


    POTLOK:  cpu time    1.7790: real time    1.7833
    SETDIJ:  cpu time    0.0066: real time    0.0066
    EDDIAG:  cpu time    0.4882: real time    0.4893
  RMM-DIIS:  cpu time    1.5650: real time    1.5687
    ORTHCH:  cpu time    0.0127: real time    0.0127
       DOS:  cpu time    0.0002: real time    0.0002
    CHARGE:  cpu time    0.2134: real time    0.2139
    MIXING:  cpu time    0.0435: real time    0.0436
    --------------------------------------------
      LOOP:  cpu time    4.1085: real time    4.1183

 eigenvalue-minimisations  :    64
 total energy-change (2. order) : 0.5068270E-03  (-0.2577981E-03)
 number of electron       8.0000001 magnetization 
 augmentation part        0.1832948 magnetization 

 Broyden mixing:
  rms(total) = 0.11572E-01    rms(broyden)= 0.11568E-01
  rms(prec ) = 0.27965E-01
  weight for this iteration     100.00

 eigenvalues of (default mixing * dielectric matrix)
  average eigenvalue GAMMA=   1.4578
  2.7074  2.7074  1.2876  0.7715  0.7715  0.5014

 Free energy of the ion-electron system (eV)
  ---------------------------------------------------
  alpha Z        PSCENC =         0.23661740
  Ewald energy   TEWEN  =       127.04945676
  -Hartree energ DENC   =      -281.45841476
  -exchange      EXHF   =         0.00000000
  -V(xc)+E(xc)   XCENC  =        24.56793826
  PAW double counting   =       463.23690379     -464.01981011
  entropy T*S    EENTRO =         0.03685080
  eigenvalues    EBANDS =       -90.70189600
  atomic energy  EATOM  =       197.04175453
  Solvation  Ediel_sol  =         0.00000000
  ---------------------------------------------------
  free energy    TOTEN  =       -24.01059933 eV

  energy without entropy =      -24.04745013  energy(sigma->0) =      -24.02288293


--------------------------------------------------------------------------------------------------------




--------------------------------------- Iteration      1(  12)  ---------------------------------------


    POTLOK:  cpu time    1.6927: real time    1.6968
    SETDIJ:  cpu time    0.0066: real time    0.0066
    EDDIAG:  cpu time    0.4932: real time    0.4944
  RMM-DIIS:  cpu time    1.5669: real time    1.5706
    ORTHCH:  cpu time    0.0120: real time    0.0120
       DOS:  cpu time    0.0002: real time    0.0002
    CHARGE:  cpu time    0.2083: real time    0.2088
    MIXING:  cpu time    0.0436: real time    0.0437
    --------------------------------------------
      LOOP:  cpu time    4.0234: real time    4.0330

 eigenvalue-minimisations  :    64
 total energy-change (2. order) : 0.5469122E-02  (-0.4280269E-03)
 number of electron       8.0000001 magnetization 
 augmentation part        0.1830672 magnetization 

 Broyden mixing:
  rms(total) = 0.11638E-01    rms(broyden)= 0.11631E-01
  rms(prec ) = 0.18055E-01
  weight for this iteration     100.00

 eigenvalues of (default mixing * dielectric matrix)
  average eigenvalue GAMMA=   1.3672
  2.9983  2.4675  1.1628  1.1628  0.7284  0.5068  0.5439

 Free energy of the ion-electron system (eV)
  ---------------------------------------------------
  alpha Z        PSCENC =         0.23661740
  Ewald energy   TEWEN  =       127.04945676
  -Hartree energ DENC   =      -282.76808352
  -exchange      EXHF   =         0.00000000
  -V(xc)+E(xc)   XCENC  =        24.62017398
  PAW double counting   =       457.60406195     -458.38490484
  entropy T*S    EENTRO =         0.03669787
  eigenvalues    EBANDS =       -89.44090434
  atomic energy  EATOM  =       197.04175453
  Solvation  Ediel_sol  =         0.00000000
  ---------------------------------------------------
  free energy    TOTEN  =       -24.00513021 eV

  energy without entropy =      -24.04182808  energy(sigma->0) =      -24.01736284


--------------------------------------------------------------------------------------------------------




--------------------------------------- Iteration      1(  13)  ---------------------------------------


    POTLOK:  cpu time    1.7048: real time    1.7088
    SETDIJ:  cpu time    0.0065: real time    0.0066
    EDDIAG:  cpu time    0.5005: real time    0.5017
  RMM-DIIS:  cpu time    1.5462: real time    1.5499
    ORTHCH:  cpu time    0.0121: real time    0.0121
       DOS:  cpu time    0.0002: real time    0.0002
    CHARGE:  cpu time    0.2148: real time    0.2153
    MIXING:  cpu time    0.0454: real time    0.0455
    --------------------------------------------
      LOOP:  cpu time    4.0306: real time    4.0401

 eigenvalue-minimisations  :    64
 total energy-change (2. order) :-0.1688193E-02  (-0.4474629E-04)
 number of electron       8.0000001 magnetization 
 augmentation part        0.1830856 magnetization 

 Broyden mixing:
  rms(total) = 0.49098E-02    rms(broyden)= 0.48973E-02
  rms(prec ) = 0.11090E-01
  weight for this iteration     100.00

 eigenvalues of (default mixing * dielectric matrix)
  average eigenvalue GAMMA=   1.6040
  3.9262  2.4491  2.4491  1.2420  0.9876  0.7766  0.5009  0.5009

 Free energy of the ion-electron system (eV)
  ---------------------------------------------------
  alpha Z        PSCENC =         0.23661740
  Ewald energy   TEWEN  =       127.04945676
  -Hartree energ DENC   =      -282.82439893
  -exchange      EXHF   =         0.00000000
  -V(xc)+E(xc)   XCENC  =        24.62440238
  PAW double counting   =       459.23500777     -460.01440622
  entropy T*S    EENTRO =         0.03685748
  eigenvalues    EBANDS =       -89.39210958
  atomic energy  EATOM  =       197.04175453
  Solvation  Ediel_sol  =         0.00000000
  ---------------------------------------------------
  free energy    TOTEN  =       -24.00681841 eV

  energy without entropy =      -24.04367589  energy(sigma->0) =      -24.01910423


--------------------------------------------------------------------------------------------------------




--------------------------------------- Iteration      1(  14)  ---------------------------------------


    POTLOK:  cpu time    1.6118: real time    1.6156
    SETDIJ:  cpu time    0.0065: real time    0.0065
    EDDIAG:  cpu time    0.5004: real time    0.5016
  RMM-DIIS:  cpu time    1.5793: real time    1.5831
    ORTHCH:  cpu time    0.0120: real time    0.0121
       DOS:  cpu time    0.0002: real time    0.0002
    CHARGE:  cpu time    0.2137: real time    0.2142
    MIXING:  cpu time    0.0471: real time    0.0472
    --------------------------------------------
      LOOP:  cpu time    3.9711: real time    3.9805

 eigenvalue-minimisations  :    64
 total energy-change (2. order) :-0.6766709E-02  (-0.1423666E-03)
 number of electron       8.0000001 magnetization 
 augmentation part        0.1830354 magnetization 

 Broyden mixing:
  rms(total) = 0.49023E-02    rms(broyden)= 0.49008E-02
  rms(prec ) = 0.71615E-02
  weight for this iteration     100.00

 eigenvalues of (default mixing * dielectric matrix)
  average eigenvalue GAMMA=   1.6499
  4.6306  2.7959  2.1914  1.2666  1.2666  0.8464  0.8464  0.5025  0.5025

 Free energy of the ion-electron system (eV)
  ---------------------------------------------------
  alpha Z        PSCENC =         0.23661740
  Ewald energy   TEWEN  =       127.04945676
  -Hartree energ DENC   =      -283.24215578
  -exchange      EXHF   =         0.00000000
  -V(xc)+E(xc)   XCENC  =        24.63555601
  PAW double counting   =       459.48481116     -460.26407014
  entropy T*S    EENTRO =         0.03677662
  eigenvalues    EBANDS =       -88.99233168
  atomic energy  EATOM  =       197.04175453
  Solvation  Ediel_sol  =         0.00000000
  ---------------------------------------------------
  free energy    TOTEN  =       -24.01358511 eV

  energy without entropy =      -24.05036174  energy(sigma->0) =      -24.02584399


--------------------------------------------------------------------------------------------------------




--------------------------------------- Iteration      1(  15)  ---------------------------------------


    POTLOK:  cpu time    1.5995: real time    1.6033
    SETDIJ:  cpu time    0.0064: real time    0.0064
    EDDIAG:  cpu time    0.5034: real time    0.5047
  RMM-DIIS:  cpu time    1.5969: real time    1.6007
    ORTHCH:  cpu time    0.0123: real time    0.0123
       DOS:  cpu time    0.0002: real time    0.0002
    CHARGE:  cpu time    0.2128: real time    0.2133
    MIXING:  cpu time    0.0475: real time    0.0476
    --------------------------------------------
      LOOP:  cpu time    3.9791: real time    3.9885

 eigenvalue-minimisations  :    64
 total energy-change (2. order) :-0.2066338E-02  (-0.4066184E-04)
 number of electron       8.0000001 magnetization 
 augmentation part        0.1829802 magnetization 

 Broyden mixing:
  rms(total) = 0.19335E-02    rms(broyden)= 0.19316E-02
  rms(prec ) = 0.35845E-02
  weight for this iteration     100.00

 eigenvalues of (default mixing * dielectric matrix)
  average eigenvalue GAMMA=   1.7849
  5.2656  3.2175  2.1678  2.1678  1.1803  1.1803  0.8318  0.8318  0.5032  0.5032

 Free energy of the ion-electron system (eV)
  ---------------------------------------------------
  alpha Z        PSCENC =         0.23661740
  Ewald energy   TEWEN  =       127.04945676
  -Hartree energ DENC   =      -283.17346033
  -exchange      EXHF   =         0.00000000
  -V(xc)+E(xc)   XCENC  =        24.62345733
  PAW double counting   =       457.63872888     -458.41893876
  entropy T*S    EENTRO =         0.03678571
  eigenvalues    EBANDS =       -89.05005297
  atomic energy  EATOM  =       197.04175453
  Solvation  Ediel_sol  =         0.00000000
  ---------------------------------------------------
  free energy    TOTEN  =       -24.01565145 eV

  energy without entropy =      -24.05243716  energy(sigma->0) =      -24.02791335


--------------------------------------------------------------------------------------------------------




--------------------------------------- Iteration      1(  16)  ---------------------------------------


    POTLOK:  cpu time    1.5599: real time    1.5636
    SETDIJ:  cpu time    0.0064: real time    0.0064
    EDDIAG:  cpu time    0.4905: real time    0.4916
  RMM-DIIS:  cpu time    1.6232: real time    1.6270
    ORTHCH:  cpu time    0.0123: real time    0.0124
       DOS:  cpu time    0.0002: real time    0.0002
    CHARGE:  cpu time    0.2077: real time    0.2082
    MIXING:  cpu time    0.0467: real time    0.0468
    --------------------------------------------
      LOOP:  cpu time    3.9469: real time    3.9562

 eigenvalue-minimisations  :    64
 total energy-change (2. order) :-0.1931620E-02  (-0.3188723E-04)
 number of electron       8.0000001 magnetization 
 augmentation part        0.1829746 magnetization 

 Broyden mixing:
  rms(total) = 0.17182E-02    rms(broyden)= 0.17177E-02
  rms(prec ) = 0.24122E-02
  weight for this iteration     100.00

 eigenvalues of (default mixing * dielectric matrix)
  average eigenvalue GAMMA=   1.8867
  6.2583  3.7096  2.5655  1.8286  1.4020  1.4020  0.5033  0.5033  0.9754  0.8029
  0.8029

 Free energy of the ion-electron system (eV)
  ---------------------------------------------------
  alpha Z        PSCENC =         0.23661740
  Ewald energy   TEWEN  =       127.04945676
  -Hartree energ DENC   =      -283.13025509
  -exchange      EXHF   =         0.00000000
  -V(xc)+E(xc)   XCENC  =        24.61676840
  PAW double counting   =       457.80368078     -458.58356400
  entropy T*S    EENTRO =         0.03680744
  eigenvalues    EBANDS =       -89.08884930
  atomic energy  EATOM  =       197.04175453
  Solvation  Ediel_sol  =         0.00000000
  ---------------------------------------------------
  free energy    TOTEN  =       -24.01758307 eV

  energy without entropy =      -24.05439051  energy(sigma->0) =      -24.02985222


--------------------------------------------------------------------------------------------------------




--------------------------------------- Iteration      1(  17)  ---------------------------------------


    POTLOK:  cpu time    1.5339: real time    1.5377
    SETDIJ:  cpu time    0.0065: real time    0.0065
    EDDIAG:  cpu time    0.5091: real time    0.5103
  RMM-DIIS:  cpu time    1.5678: real time    1.5715
    ORTHCH:  cpu time    0.0118: real time    0.0118
       DOS:  cpu time    0.0002: real time    0.0002
    CHARGE:  cpu time    0.2106: real time    0.2111
    MIXING:  cpu time    0.0488: real time    0.0489
    --------------------------------------------
      LOOP:  cpu time    3.8886: real time    3.8979

 eigenvalue-minimisations  :    64
 total energy-change (2. order) :-0.3445932E-03  (-0.6056344E-05)
 number of electron       8.0000001 magnetization 
 augmentation part        0.1829616 magnetization 

 Broyden mixing:
  rms(total) = 0.12039E-02    rms(broyden)= 0.12035E-02
  rms(prec ) = 0.16094E-02
  weight for this iteration     100.00

 eigenvalues of (default mixing * dielectric matrix)
  average eigenvalue GAMMA=   2.0346
  7.1499  4.3238  2.5096  2.5096  1.8091  0.5032  0.5032  1.2008  1.2008  0.8270
  0.8270  1.0514

 Free energy of the ion-electron system (eV)
  ---------------------------------------------------
  alpha Z        PSCENC =         0.23661740
  Ewald energy   TEWEN  =       127.04945676
  -Hartree energ DENC   =      -283.18029897
  -exchange      EXHF   =         0.00000000
  -V(xc)+E(xc)   XCENC  =        24.62107355
  PAW double counting   =       458.87125622     -459.65081031
  entropy T*S    EENTRO =         0.03678955
  eigenvalues    EBANDS =       -89.04376640
  atomic energy  EATOM  =       197.04175453
  Solvation  Ediel_sol  =         0.00000000
  ---------------------------------------------------
  free energy    TOTEN  =       -24.01792767 eV

  energy without entropy =      -24.05471721  energy(sigma->0) =      -24.03019085


--------------------------------------------------------------------------------------------------------




--------------------------------------- Iteration      1(  18)  ---------------------------------------


    POTLOK:  cpu time    1.5639: real time    1.5676
    SETDIJ:  cpu time    0.0065: real time    0.0065
    EDDIAG:  cpu time    0.5078: real time    0.5090
  RMM-DIIS:  cpu time    1.5789: real time    1.5826
    ORTHCH:  cpu time    0.0120: real time    0.0121
       DOS:  cpu time    0.0002: real time    0.0002
    CHARGE:  cpu time    0.2044: real time    0.2049
    MIXING:  cpu time    0.0498: real time    0.0500
    --------------------------------------------
      LOOP:  cpu time    3.9236: real time    3.9328

 eigenvalue-minimisations  :    64
 total energy-change (2. order) :-0.3351912E-03  (-0.3868624E-05)
 number of electron       8.0000001 magnetization 
 augmentation part        0.1829508 magnetization 

 Broyden mixing:
  rms(total) = 0.60305E-03    rms(broyden)= 0.60289E-03
  rms(prec ) = 0.77728E-03
  weight for this iteration     100.00

 eigenvalues of (default mixing * dielectric matrix)
  average eigenvalue GAMMA=   2.1214
  7.7333  4.9188  2.9738  2.5234  1.7201  1.7201  0.5032  0.5032  1.2069  0.8405
  0.8405  1.0469  1.0469

 Free energy of the ion-electron system (eV)
  ---------------------------------------------------
  alpha Z        PSCENC =         0.23661740
  Ewald energy   TEWEN  =       127.04945676
  -Hartree energ DENC   =      -283.15880042
  -exchange      EXHF   =         0.00000000
  -V(xc)+E(xc)   XCENC  =        24.61818817
  PAW double counting   =       458.19892600     -458.97874199
  entropy T*S    EENTRO =         0.03679266
  eigenvalues    EBANDS =       -89.06245597
  atomic energy  EATOM  =       197.04175453
  Solvation  Ediel_sol  =         0.00000000
  ---------------------------------------------------
  free energy    TOTEN  =       -24.01826286 eV

  energy without entropy =      -24.05505552  energy(sigma->0) =      -24.03052708


--------------------------------------------------------------------------------------------------------




--------------------------------------- Iteration      1(  19)  ---------------------------------------


    POTLOK:  cpu time    1.5653: real time    1.5690
    SETDIJ:  cpu time    0.0065: real time    0.0065
    EDDIAG:  cpu time    0.4851: real time    0.4862
  RMM-DIIS:  cpu time    1.3796: real time    1.3828
    ORTHCH:  cpu time    0.0117: real time    0.0118
       DOS:  cpu time    0.0002: real time    0.0002
    CHARGE:  cpu time    0.2037: real time    0.2041
    MIXING:  cpu time    0.0519: real time    0.0520
    --------------------------------------------
      LOOP:  cpu time    3.7040: real time    3.7127

 eigenvalue-minimisations  :    54
 total energy-change (2. order) :-0.5046764E-04  (-0.2190375E-06)
 number of electron       8.0000001 magnetization 
 augmentation part        0.1829445 magnetization 

 Broyden mixing:
  rms(total) = 0.40396E-03    rms(broyden)= 0.40373E-03
  rms(prec ) = 0.51718E-03
  weight for this iteration     100.00

 eigenvalues of (default mixing * dielectric matrix)
  average eigenvalue GAMMA=   2.2223
  8.4487  5.2017  3.6148  2.6178  2.3540  1.7448  0.5032  0.5032  1.2190  1.2190
  0.8357  0.8357  1.0073  1.0073

 Free energy of the ion-electron system (eV)
  ---------------------------------------------------
  alpha Z        PSCENC =         0.23661740
  Ewald energy   TEWEN  =       127.04945676
  -Hartree energ DENC   =      -283.17215119
  -exchange      EXHF   =         0.00000000
  -V(xc)+E(xc)   XCENC  =        24.61915366
  PAW double counting   =       458.27216667     -459.05195048
  entropy T*S    EENTRO =         0.03678465
  eigenvalues    EBANDS =       -89.05014534
  atomic energy  EATOM  =       197.04175453
  Solvation  Ediel_sol  =         0.00000000
  ---------------------------------------------------
  free energy    TOTEN  =       -24.01831333 eV

  energy without entropy =      -24.05509798  energy(sigma->0) =      -24.03057488


--------------------------------------------------------------------------------------------------------




--------------------------------------- Iteration      1(  20)  ---------------------------------------


    POTLOK:  cpu time    1.6112: real time    1.6150
    SETDIJ:  cpu time    0.0066: real time    0.0066
    EDDIAG:  cpu time    0.4966: real time    0.4977
  RMM-DIIS:  cpu time    1.5396: real time    1.5433
    ORTHCH:  cpu time    0.0119: real time    0.0119
       DOS:  cpu time    0.0002: real time    0.0002
    CHARGE:  cpu time    0.1956: real time    0.1961
    MIXING:  cpu time    0.0514: real time    0.0515
    --------------------------------------------
      LOOP:  cpu time    3.9131: real time    3.9223

 eigenvalue-minimisations  :    60
 total energy-change (2. order) :-0.2490859E-04  (-0.3049256E-06)
 number of electron       8.0000001 magnetization 
 augmentation part        0.1829507 magnetization 

 Broyden mixing:
  rms(total) = 0.12472E-03    rms(broyden)= 0.12445E-03
  rms(prec ) = 0.16471E-03
  weight for this iteration     100.00

 eigenvalues of (default mixing * dielectric matrix)
  average eigenvalue GAMMA=   2.1751
  8.4561  5.3069  3.6785  2.4714  2.4714  1.6757  1.6757  0.5032  0.5032  1.1760
  1.1760  0.9802  0.8323  0.8323  0.8870

 Free energy of the ion-electron system (eV)
  ---------------------------------------------------
  alpha Z        PSCENC =         0.23661740
  Ewald energy   TEWEN  =       127.04945676
  -Hartree energ DENC   =      -283.17196425
  -exchange      EXHF   =         0.00000000
  -V(xc)+E(xc)   XCENC  =        24.61939038
  PAW double counting   =       458.33607129     -459.11577036
  entropy T*S    EENTRO =         0.03678787
  eigenvalues    EBANDS =       -89.05068186
  atomic energy  EATOM  =       197.04175453
  Solvation  Ediel_sol  =         0.00000000
  ---------------------------------------------------
  free energy    TOTEN  =       -24.01833823 eV

  energy without entropy =      -24.05512610  energy(sigma->0) =      -24.03060086


--------------------------------------------------------------------------------------------------------




--------------------------------------- Iteration      1(  21)  ---------------------------------------


    POTLOK:  cpu time    1.6376: real time    1.6414
    SETDIJ:  cpu time    0.0065: real time    0.0065
    EDDIAG:  cpu time    0.5113: real time    0.5125
  RMM-DIIS:  cpu time    1.2518: real time    1.2548
    ORTHCH:  cpu time    0.0120: real time    0.0120
       DOS:  cpu time    0.0002: real time    0.0002
    CHARGE:  cpu time    0.1986: real time    0.1991
    MIXING:  cpu time    0.0538: real time    0.0539
    --------------------------------------------
      LOOP:  cpu time    3.6718: real time    3.6805

 eigenvalue-minimisations  :    48
 total energy-change (2. order) :-0.3297395E-05  (-0.1472640E-07)
 number of electron       8.0000001 magnetization 
 augmentation part        0.1829508 magnetization 

 Broyden mixing:
  rms(total) = 0.56128E-04    rms(broyden)= 0.56115E-04
  rms(prec ) = 0.75557E-04
  weight for this iteration     100.00

 eigenvalues of (default mixing * dielectric matrix)
  average eigenvalue GAMMA=   2.2191
  8.6079  5.4785  4.0640  2.8151  2.5457  2.1720  1.7432  0.5032  0.5032  1.1846
  1.1846  1.0980  0.8336  0.8336  0.9810  0.9583

 Free energy of the ion-electron system (eV)
  ---------------------------------------------------
  alpha Z        PSCENC =         0.23661740
  Ewald energy   TEWEN  =       127.04945676
  -Hartree energ DENC   =      -283.17372021
  -exchange      EXHF   =         0.00000000
  -V(xc)+E(xc)   XCENC  =        24.61941399
  PAW double counting   =       458.35750127     -459.13722140
  entropy T*S    EENTRO =         0.03678796
  eigenvalues    EBANDS =       -89.04893183
  atomic energy  EATOM  =       197.04175453
  Solvation  Ediel_sol  =         0.00000000
  ---------------------------------------------------
  free energy    TOTEN  =       -24.01834153 eV

  energy without entropy =      -24.05512949  energy(sigma->0) =      -24.03060418


--------------------------------------------------------------------------------------------------------




--------------------------------------- Iteration      1(  22)  ---------------------------------------


    POTLOK:  cpu time    1.6497: real time    1.6536
    SETDIJ:  cpu time    0.0065: real time    0.0065
    EDDIAG:  cpu time    0.4953: real time    0.4965
  RMM-DIIS:  cpu time    1.1456: real time    1.1483
    ORTHCH:  cpu time    0.0115: real time    0.0115
       DOS:  cpu time    0.0002: real time    0.0002
    CHARGE:  cpu time    0.1832: real time    0.1836
    MIXING:  cpu time    0.0579: real time    0.0580
    --------------------------------------------
      LOOP:  cpu time    3.5498: real time    3.5582

 eigenvalue-minimisations  :    44
 total energy-change (2. order) :-0.1581633E-05  (-0.1279536E-07)
 number of electron       8.0000001 magnetization 
 augmentation part        0.1829492 magnetization 

 Broyden mixing:
  rms(total) = 0.19817E-04    rms(broyden)= 0.19804E-04
  rms(prec ) = 0.31843E-04
  weight for this iteration     100.00

 eigenvalues of (default mixing * dielectric matrix)
  average eigenvalue GAMMA=   2.2833
  8.6283  5.5141  4.1825  2.9335  2.9335  2.6565  2.1541  1.7320  0.5032  0.5032
  1.1955  1.1955  0.8334  0.8334  1.0338  0.9917  0.9917

 Free energy of the ion-electron system (eV)
  ---------------------------------------------------
  alpha Z        PSCENC =         0.23661740
  Ewald energy   TEWEN  =       127.04945676
  -Hartree energ DENC   =      -283.17371096
  -exchange      EXHF   =         0.00000000
  -V(xc)+E(xc)   XCENC  =        24.61934544
  PAW double counting   =       458.35107724     -459.13081088
  entropy T*S    EENTRO =         0.03678821
  eigenvalues    EBANDS =       -89.04886084
  atomic energy  EATOM  =       197.04175453
  Solvation  Ediel_sol  =         0.00000000
  ---------------------------------------------------
  free energy    TOTEN  =       -24.01834311 eV

  energy without entropy =      -24.05513132  energy(sigma->0) =      -24.03060585


--------------------------------------------------------------------------------------------------------




--------------------------------------- Iteration      1(  23)  ---------------------------------------


    POTLOK:  cpu time    1.6447: real time    1.6485
    SETDIJ:  cpu time    0.0065: real time    0.0065
    EDDIAG:  cpu time    0.4951: real time    0.4963
  RMM-DIIS:  cpu time    1.0190: real time    1.0214
    ORTHCH:  cpu time    0.0119: real time    0.0119
       DOS:  cpu time    0.0002: real time    0.0002
    --------------------------------------------
      LOOP:  cpu time    3.1774: real time    3.1849

 eigenvalue-minimisations  :    32
 total energy-change (2. order) :-0.9800699E-06  ( 0.0000000E+00)
 number of electron       8.0000001 magnetization 
 augmentation part        0.1829492 magnetization 

 Free energy of the ion-electron system (eV)
  ---------------------------------------------------
  alpha Z        PSCENC =         0.23661740
  Ewald energy   TEWEN  =       127.04945676
  -Hartree energ DENC   =      -283.17215606
  -exchange      EXHF   =         0.00000000
  -V(xc)+E(xc)   XCENC  =        24.61926714
  PAW double counting   =       458.32768330     -459.10740416
  entropy T*S    EENTRO =         0.03678795
  eigenvalues    EBANDS =       -89.05035095
  atomic energy  EATOM  =       197.04175453
  Solvation  Ediel_sol  =         0.00000000
  ---------------------------------------------------
  free energy    TOTEN  =       -24.01834409 eV

  energy without entropy =      -24.05513204  energy(sigma->0) =      -24.03060674


--------------------------------------------------------------------------------------------------------




 average (electrostatic) potential at core
  the test charge radii are     0.5201  0.6991
  (the norm of the test charge is              1.0000)
       1 -41.4349       2 -41.5072       3 -41.3733       4 -41.3639       5 -58.0264



 E-fermi :  -9.0677     XC(G=0):  -0.6862     alpha+bet : -0.2058


 k-point     1 :       0.2500    0.2500    0.2500
  band No.  band energies     occupation 
      1     -16.7974      2.00000
      2      -9.2636      2.04571
      3      -9.2537      2.03244
      4      -9.2083      1.92162
      5      -0.3299      0.00000
      6       0.5412      0.00000
      7       0.6519      0.00000
      8       0.6848      0.00000

 k-point     2 :      -0.2500    0.2500    0.2500
  band No.  band energies     occupation 
      1     -16.7975      2.00000
      2      -9.2637      2.04579
      3      -9.2537      2.03242
      4      -9.2084      1.92186
      5      -0.3321      0.00000
      6       0.5402      0.00000
      7       0.6508      0.00000
      8       0.6973      0.00000

 k-point     3 :       0.2500   -0.2500    0.2500
  band No.  band energies     occupation 
      1     -16.7975      2.00000
      2      -9.2637      2.04578
      3      -9.2538      2.03256
      4      -9.2084      1.92187
      5      -0.3324      0.00000
      6       0.5450      0.00000
      7       0.6573      0.00000
      8       0.6907      0.00000

 k-point     4 :      -0.2500   -0.2500    0.2500
  band No.  band energies     occupation 
      1     -16.7975      2.00000
      2      -9.2636      2.04570
      3      -9.2537      2.03242
      4      -9.2083      1.92183
      5      -0.3353      0.00000
      6       0.5534      0.00000
      7       0.6689      0.00000
      8       0.6944      0.00000


--------------------------------------------------------------------------------------------------------


 soft charge-density along one line, spin component           1
         0         1         2         3         4         5         6         7         8         9
 total charge-density along one line

 pseudopotential strength for first ion, spin component:           1
 -2.341  -4.033  -0.001  -0.002   0.001
 -4.033  -6.863  -0.003  -0.004   0.002
 -0.001  -0.003  -0.338   0.002  -0.001
 -0.002  -0.004   0.002  -0.337  -0.001
  0.001   0.002  -0.001  -0.001  -0.339
 total augmentation occupancy for first ion, spin component:           1
  3.066  -0.477   0.223   0.368  -0.119
 -0.477   0.088  -0.036  -0.058   0.020
  0.223  -0.036   0.022   0.023  -0.007
  0.368  -0.058   0.023   0.048  -0.012
 -0.119   0.020  -0.007  -0.012   0.013


------------------------ aborting loop because EDIFF is reached ----------------------------------------


    CHARGE:  cpu time    0.1814: real time    0.1819
    FORLOC:  cpu time    0.1109: real time    0.1111
    FORNL :  cpu time    0.6450: real time    0.6465
    STRESS:  cpu time    2.1373: real time    2.1424
    FORCOR:  cpu time    1.6871: real time    1.6911
    FORHAR:  cpu time    0.5696: real time    0.5710
    MIXING:  cpu time    0.0578: real time    0.0580
    OFIELD:  cpu time    0.0000: real time    0.0000

  FORCE on cell =-STRESS in cart. coord.  units (eV):
  Direction    XX          YY          ZZ          XY          YZ          ZX
  --------------------------------------------------------------------------------------
  Alpha Z     0.23662     0.23662     0.23662
  Ewald      45.27766    41.06576    40.70602    -0.10017    -1.11549    -0.92085
  Hartree    96.91178    93.14008    93.12112    -0.03764    -0.74695    -0.63692
  E(xc)     -27.08729   -27.07237   -27.07591     0.00028    -0.00663    -0.00518
  Local    -200.96588  -193.29066  -192.68593     0.21487     2.07533     1.79985
  n-local   -16.43969   -15.05053   -15.74138    -0.37410     0.17398     0.68106
  augment     0.12332     0.12833     0.12581    -0.00092    -0.00298    -0.00289
  Kinetic   101.18060   100.25719    99.51953    -0.33637    -0.35190    -0.56770
  Fock        0.00000     0.00000     0.00000     0.00000     0.00000     0.00000
  -------------------------------------------------------------------------------------
  Total      -0.76287    -0.58557    -1.79413    -0.63404     0.02535     0.34736
  in kB      -1.19384    -0.91637    -2.80767    -0.99223     0.03967     0.54360
  external pressure =       -1.64 kB  Pullay stress =        0.00 kB

  kinetic pressure (ideal gas correction) =      0.03 kB
  total pressure  =     -1.61 kB
  Total+kin.    -1.182      -0.884      -2.771      -0.994       0.051       0.541

 VOLUME and BASIS-vectors are now :
 -----------------------------------------------------------------------------
  energy-cutoff  :      400.00
  volume of cell :     1023.81
      direct lattice vectors                 reciprocal lattice vectors
     9.845175412  0.000000000  0.000000000     0.101572593 -0.000274464  0.001428961
     0.027603677 10.215452760  0.000000000    -0.000000000  0.097890913  0.001662255
    -0.143679755 -0.172859277 10.179757918     0.000000000  0.000000000  0.098234163

  length of vectors
     9.845175412 10.215490055 10.182239217     0.101583015  0.097905025  0.098234163


 FORCES acting on ions
    electron-ion (+dipol)            ewald-force                    non-local-force                 convergence-correction
 -----------------------------------------------------------------------------------------------
   -.162E+02 0.282E+02 0.404E+02   0.179E+02 -.307E+02 -.439E+02   -.181E+01 0.261E+01 0.420E+01   0.153E-04 -.427E-04 -.756E-04
   0.527E+02 -.641E+01 0.348E+01   -.587E+02 0.719E+01 -.373E+01   0.643E+01 -.724E+00 0.378E+00   -.718E-04 0.128E-04 -.344E-05
   -.228E+02 -.467E+02 0.111E+01   0.249E+02 0.510E+02 -.138E+01   -.198E+01 -.460E+01 0.304E+00   0.290E-04 0.931E-04 -.429E-05
   -.111E+02 0.245E+02 -.441E+02   0.121E+02 -.267E+02 0.477E+02   -.152E+01 0.263E+01 -.446E+01   0.539E-05 -.411E-04 0.862E-04
   -.346E+01 0.710E+00 -.113E+01   0.382E+01 -.756E+00 0.129E+01   0.453E+00 0.814E+00 -.167E+00   -.105E-03 0.119E-03 0.323E-04
 -----------------------------------------------------------------------------------------------
   -.859E+00 0.269E+00 -.180E+00   0.178E-14 0.000E+00 0.000E+00   0.157E+01 0.732E+00 0.250E+00   -.127E-03 0.141E-03 0.351E-04


 POSITION                                       TOTAL-FORCE (eV/Angst)
 -----------------------------------------------------------------------------------
      5.25648      4.09031      3.66416        -0.103341      0.088531      0.688313
      3.82977      4.82760      4.46432         0.464028      0.062924      0.133515
      5.39030      5.69671      4.50338         0.134500     -0.332104      0.039908
      5.14284      4.15998      5.48848        -0.601502      0.413374     -0.785099
      4.90452      4.69592      4.53302         0.814106      0.768114     -0.006671
 -----------------------------------------------------------------------------------
    total drift:                                0.707791      1.000838      0.069966


--------------------------------------------------------------------------------------------------------



  FREE ENERGIE OF THE ION-ELECTRON SYSTEM (eV)
  ---------------------------------------------------
  free  energy   TOTEN  =       -24.01834409 eV

  energy  without entropy=      -24.05513204  energy(sigma->0) =      -24.03060674



--------------------------------------------------------------------------------------------------------


    POTLOK:  cpu time    1.6811: real time    1.6851


--------------------------------------------------------------------------------------------------------


           RANDOM_SEED =         578495965                0                0
           RANDOM_SEED =         578495965               30                0
   IONSTEP:  cpu time    0.0017: real time    0.0019

  ENERGY OF THE ELECTRON-ION-THERMOSTAT SYSTEM (eV)
  ---------------------------------------------------
% ion-electron   TOTEN  =       -24.018344  see above
  kinetic energy EKIN   =         0.033646
  kin. lattice  EKIN_LAT=         0.000000  (temperature   65.07 K)
  nose potential ES     =         0.000000
  nose kinetic   EPS    =         0.000007
  ---------------------------------------------------
  total energy   ETOTAL =       -23.984690 eV

  maximum distance moved by ions :      0.48E-02


 mean value of Nose-termostat <S>:     1.004 mean value of <T> :    65.075
 mean temperature <T/S>/<1/S>  :    65.075

    WAVPRE:  cpu time    0.4514: real time    0.4577
    FEWALD:  cpu time    0.0004: real time    0.0004
    ORTHCH:  cpu time    0.2405: real time    0.2411
     LOOP+:  cpu time   94.3855: real time   94.6170


--------------------------------------- Iteration      2(   1)  ---------------------------------------


    POTLOK:  cpu time    1.6575: real time    1.6617
    SETDIJ:  cpu time    0.0065: real time    0.0065
     EDDAV:  cpu time    2.1999: real time    2.2051
       DOS:  cpu time    0.0002: real time    0.0002
    CHARGE:  cpu time    0.2046: real time    0.2051
    MIXING:  cpu time    0.0433: real time    0.0434
    --------------------------------------------
      LOOP:  cpu time    4.1120: real time    4.1220

 eigenvalue-minimisations  :    64
 total energy-change (2. order) :-0.1257845E-01  (-0.2084800E+00)
 number of electron       7.9999999 magnetization 
 augmentation part        0.1906432 magnetization 

 Broyden mixing:
  rms(total) = 0.75260E-01    rms(broyden)= 0.75203E-01
  rms(prec ) = 0.94533E-01
  weight for this iteration     100.00

 Free energy of the ion-electron system (eV)
  ---------------------------------------------------
  alpha Z        PSCENC =         0.23661740
  Ewald energy   TEWEN  =       132.30974421
  -Hartree energ DENC   =      -286.20786710
  -exchange      EXHF   =         0.00000000
  -V(xc)+E(xc)   XCENC  =        24.77230923
  PAW double counting   =       458.33477900     -459.11450400
  entropy T*S    EENTRO =         0.02627629
  eigenvalues    EBANDS =       -91.43003113
  atomic energy  EATOM  =       197.04175453
  Solvation  Ediel_sol  =         0.00000000
  ---------------------------------------------------
  free energy    TOTEN  =       -24.03092157 eV

  energy without entropy =      -24.05719786  energy(sigma->0) =      -24.03968033


--------------------------------------------------------------------------------------------------------




--------------------------------------- Iteration      2(   2)  ---------------------------------------


    POTLOK:  cpu time    1.4655: real time    1.4690
    SETDIJ:  cpu time    0.0064: real time    0.0064
    EDDIAG:  cpu time    0.4916: real time    0.4928
  RMM-DIIS:  cpu time    1.6877: real time    1.6917
    ORTHCH:  cpu time    0.0131: real time    0.0131
       DOS:  cpu time    0.0002: real time    0.0002
    CHARGE:  cpu time    0.2172: real time    0.2177
    MIXING:  cpu time    0.0625: real time    0.0626
    --------------------------------------------
      LOOP:  cpu time    3.9443: real time    3.9536

 eigenvalue-minimisations  :    64
 total energy-change (2. order) : 0.8143651E-02  (-0.1768449E-01)
 number of electron       7.9999999 magnetization 
 augmentation part        0.1879344 magnetization 

 Broyden mixing:
  rms(total) = 0.50828E-01    rms(broyden)= 0.50802E-01
  rms(prec ) = 0.65933E-01
  weight for this iteration     100.00

 eigenvalues of (default mixing * dielectric matrix)
  average eigenvalue GAMMA=   2.2437
  8.6676  5.6728  4.5407  3.6871  2.6763  2.4743  2.1192  1.9911  1.7441  0.5032
  0.5032  1.1912  1.1912  1.1123  0.8335  0.8335  0.9854  0.9854  0.9191

 Free energy of the ion-electron system (eV)
  ---------------------------------------------------
  alpha Z        PSCENC =         0.23661740
  Ewald energy   TEWEN  =       132.30974421
  -Hartree energ DENC   =      -288.92420585
  -exchange      EXHF   =         0.00000000
  -V(xc)+E(xc)   XCENC  =        24.90956845
  PAW double counting   =       493.52790757     -494.33254026
  entropy T*S    EENTRO =         0.02546142
  eigenvalues    EBANDS =       -88.81708539
  atomic energy  EATOM  =       197.04175453
  Solvation  Ediel_sol  =         0.00000000
  ---------------------------------------------------
  free energy    TOTEN  =       -24.02277791 eV

  energy without entropy =      -24.04823933  energy(sigma->0) =      -24.03126505


--------------------------------------------------------------------------------------------------------




--------------------------------------- Iteration      2(   3)  ---------------------------------------


    POTLOK:  cpu time    1.4993: real time    1.5029
    SETDIJ:  cpu time    0.0064: real time    0.0065
    EDDIAG:  cpu time    0.4971: real time    0.4983
  RMM-DIIS:  cpu time    1.6741: real time    1.6780
    ORTHCH:  cpu time    0.0122: real time    0.0122
       DOS:  cpu time    0.0002: real time    0.0002
    CHARGE:  cpu time    0.1995: real time    0.2000
    MIXING:  cpu time    0.0626: real time    0.0627
    --------------------------------------------
      LOOP:  cpu time    3.9515: real time    3.9609

 eigenvalue-minimisations  :    64
 total energy-change (2. order) : 0.3920676E-02  (-0.3986280E-02)
 number of electron       7.9999999 magnetization 
 augmentation part        0.1893044 magnetization 

 Broyden mixing:
  rms(total) = 0.15902E-01    rms(broyden)= 0.15895E-01
  rms(prec ) = 0.20243E-01
  weight for this iteration     100.00

 eigenvalues of (default mixing * dielectric matrix)
  average eigenvalue GAMMA=   2.2089
  8.6675  5.6713  4.5478  3.6800  2.6437  2.5204  2.4636  2.1654  1.7447  0.5032
  0.5032  1.1911  1.1911  0.8335  0.8335  1.1135  0.9193  0.9852  0.9852  1.0157

 Free energy of the ion-electron system (eV)
  ---------------------------------------------------
  alpha Z        PSCENC =         0.23661740
[...]
  rms(total) = 0.60072E-03    rms(broyden)= 0.60050E-03
  rms(prec ) = 0.78471E-03
  weight for this iteration     100.00

 eigenvalues of (default mixing * dielectric matrix)
  average eigenvalue GAMMA=   2.6159
  5.6971  5.6971  5.1908  4.6425  1.0379  1.0379  1.0341  1.1652  1.1652  1.1896
  3.7148  1.7099  1.7099  3.4090  3.3644  3.1038  3.1038  1.8142  2.0611  2.0611
  2.1814  2.1814  2.4947  2.4947  3.0258  2.3033  2.3033  2.3355  2.3355  2.7606
  2.7606  2.8379  2.8211  2.3906  2.5368  2.5368  2.6100  2.6100  2.7398  2.6554
  2.6554  2.6637  2.4733  2.5494  2.5494

 Free energy of the ion-electron system (eV)
  ---------------------------------------------------
  alpha Z        PSCENC =         0.23661740
  Ewald energy   TEWEN  =       128.44759663
  -Hartree energ DENC   =      -284.33542884
  -exchange      EXHF   =         0.00000000
  -V(xc)+E(xc)   XCENC  =        24.67904009
  PAW double counting   =       453.20684783     -453.99061693
  entropy T*S    EENTRO =         0.01190457
  eigenvalues    EBANDS =       -89.31547305
  atomic energy  EATOM  =       197.04175453
  Solvation  Ediel_sol  =         0.00000000
  ---------------------------------------------------
  free energy    TOTEN  =       -24.01775777 eV

  energy without entropy =      -24.02966234  energy(sigma->0) =      -24.02172596


--------------------------------------------------------------------------------------------------------




--------------------------------------- Iteration     10(  10)  ---------------------------------------


    POTLOK:  cpu time    1.9605: real time    1.9653
    SETDIJ:  cpu time    0.0120: real time    0.0120
    EDDIAG:  cpu time    0.6612: real time    0.7289
  RMM-DIIS:  cpu time    1.6401: real time    1.6440
    ORTHCH:  cpu time    0.0116: real time    0.0116
       DOS:  cpu time    0.0002: real time    0.0002
    CHARGE:  cpu time    0.1761: real time    0.1765
    MIXING:  cpu time    0.1407: real time    0.1411
    --------------------------------------------
      LOOP:  cpu time    4.6023: real time    4.6795

 eigenvalue-minimisations  :    64
 total energy-change (2. order) :-0.1034762E-04  (-0.9751816E-06)
 number of electron       7.9999997 magnetization 
 augmentation part        0.1842565 magnetization 

 Broyden mixing:
  rms(total) = 0.24171E-03    rms(broyden)= 0.24167E-03
  rms(prec ) = 0.30323E-03
  weight for this iteration     100.00

 eigenvalues of (default mixing * dielectric matrix)
  average eigenvalue GAMMA=   2.6125
  5.7378  5.7378  5.2882  4.6562  1.0151  1.0151  4.1981  0.9506  1.1209  1.1209
  1.3119  1.4060  3.1245  3.1245  3.3433  3.3433  1.7491  1.8222  1.9285  2.0421
  2.0421  2.1322  2.4719  2.4719  2.9976  2.9976  2.2986  2.2986  2.4455  2.4455
  2.8321  2.7571  2.7571  2.3414  2.3621  2.5322  2.5322  2.6726  2.6726  2.6779
  2.6473  2.6473  2.5807  2.5631  2.4809  2.4809

 Free energy of the ion-electron system (eV)
  ---------------------------------------------------
  alpha Z        PSCENC =         0.23661740
  Ewald energy   TEWEN  =       128.44759663
  -Hartree energ DENC   =      -284.35597273
  -exchange      EXHF   =         0.00000000
  -V(xc)+E(xc)   XCENC  =        24.67980599
  PAW double counting   =       453.07540427     -453.85944841
  entropy T*S    EENTRO =         0.01190432
  eigenvalues    EBANDS =       -89.29543012
  atomic energy  EATOM  =       197.04175453
  Solvation  Ediel_sol  =         0.00000000
  ---------------------------------------------------
  free energy    TOTEN  =       -24.01776812 eV

  energy without entropy =      -24.02967244  energy(sigma->0) =      -24.02173623


--------------------------------------------------------------------------------------------------------




--------------------------------------- Iteration     10(  11)  ---------------------------------------


    POTLOK:  cpu time    1.8847: real time    1.8916
    SETDIJ:  cpu time    0.0121: real time    0.0121
    EDDIAG:  cpu time    0.5354: real time    0.5366
  RMM-DIIS:  cpu time    1.2996: real time    1.3027
    ORTHCH:  cpu time    0.0118: real time    0.0118
       DOS:  cpu time    0.0002: real time    0.0002
    CHARGE:  cpu time    0.2386: real time    0.2391
    MIXING:  cpu time    0.1895: real time    0.1900
    --------------------------------------------
      LOOP:  cpu time    4.1719: real time    4.1842

 eigenvalue-minimisations  :    48
 total energy-change (2. order) :-0.4074997E-05  (-0.4158445E-07)
 number of electron       7.9999997 magnetization 
 augmentation part        0.1842564 magnetization 

 Broyden mixing:
  rms(total) = 0.79798E-04    rms(broyden)= 0.79792E-04
  rms(prec ) = 0.10951E-03
  weight for this iteration     100.00

 eigenvalues of (default mixing * dielectric matrix)
  average eigenvalue GAMMA=   2.6136
  5.8309  5.8309  5.4148  4.7733  4.2012  0.9682  0.9682  0.9051  0.9488  1.1184
  1.2178  3.6684  1.2891  1.6137  3.1462  3.1462  3.2944  1.7711  3.1226  1.9598
  2.0373  2.0373  2.9988  2.4462  2.4462  2.1976  2.1976  2.3799  2.3799  2.7863
  2.7863  2.8052  2.4201  2.4201  2.3540  2.3540  2.5575  2.5575  2.6847  2.6847
  2.7074  2.6206  2.6206  2.6271  2.4739  2.5509  2.5193

 Free energy of the ion-electron system (eV)
  ---------------------------------------------------
  alpha Z        PSCENC =         0.23661740
  Ewald energy   TEWEN  =       128.44759663
  -Hartree energ DENC   =      -284.35155277
  -exchange      EXHF   =         0.00000000
  -V(xc)+E(xc)   XCENC  =        24.67962434
  PAW double counting   =       453.15086138     -453.93485613
  entropy T*S    EENTRO =         0.01190445
  eigenvalues    EBANDS =       -89.29972202
  atomic energy  EATOM  =       197.04175453
  Solvation  Ediel_sol  =         0.00000000
  ---------------------------------------------------
  free energy    TOTEN  =       -24.01777220 eV

  energy without entropy =      -24.02967664  energy(sigma->0) =      -24.02174035


--------------------------------------------------------------------------------------------------------




--------------------------------------- Iteration     10(  12)  ---------------------------------------


    POTLOK:  cpu time    1.8725: real time    1.8770
    SETDIJ:  cpu time    0.0121: real time    0.0121
    EDDIAG:  cpu time    0.5017: real time    0.5029
  RMM-DIIS:  cpu time    1.5007: real time    1.5043
    ORTHCH:  cpu time    0.0227: real time    0.0227
       DOS:  cpu time    0.0003: real time    0.0003
    CHARGE:  cpu time    0.2492: real time    0.2498
    MIXING:  cpu time    0.1495: real time    0.1499
    --------------------------------------------
      LOOP:  cpu time    4.3087: real time    4.3190

 eigenvalue-minimisations  :    48
 total energy-change (2. order) :-0.1383866E-05  (-0.7717539E-07)
 number of electron       7.9999997 magnetization 
 augmentation part        0.1842606 magnetization 

 Broyden mixing:
  rms(total) = 0.76515E-04    rms(broyden)= 0.76506E-04
  rms(prec ) = 0.10426E-03
  weight for this iteration     100.00

 eigenvalues of (default mixing * dielectric matrix)
  average eigenvalue GAMMA=   2.6045
  6.0194  5.8445  5.3986  4.7473  4.3937  0.8286  0.8286  0.9112  0.9355  3.7305
  1.1290  1.3356  1.3807  1.3807  3.3775  3.1675  3.1675  1.6385  3.2266  1.8786
  1.8786  2.0617  2.0617  3.0028  2.4801  2.4801  2.1313  2.2939  2.2939  2.4198
  2.4198  2.8156  2.7650  2.7650  2.3375  2.3832  2.3832  2.5594  2.5594  2.7539
  2.6823  2.6823  2.6480  2.6480  2.4832  2.6070  2.5503  2.5503

 Free energy of the ion-electron system (eV)
  ---------------------------------------------------
  alpha Z        PSCENC =         0.23661740
  Ewald energy   TEWEN  =       128.44759663
  -Hartree energ DENC   =      -284.34763446
  -exchange      EXHF   =         0.00000000
  -V(xc)+E(xc)   XCENC  =        24.67945688
  PAW double counting   =       453.14969818     -453.93364673
  entropy T*S    EENTRO =         0.01190420
  eigenvalues    EBANDS =       -89.30352021
  atomic energy  EATOM  =       197.04175453
  Solvation  Ediel_sol  =         0.00000000
  ---------------------------------------------------
  free energy    TOTEN  =       -24.01777358 eV

  energy without entropy =      -24.02967778  energy(sigma->0) =      -24.02174165


--------------------------------------------------------------------------------------------------------




--------------------------------------- Iteration     10(  13)  ---------------------------------------


    POTLOK:  cpu time    1.8873: real time    1.8918
    SETDIJ:  cpu time    0.0064: real time    0.0065
    EDDIAG:  cpu time    0.6368: real time    0.6392
  RMM-DIIS:  cpu time    1.3520: real time    1.3586
    ORTHCH:  cpu time    0.0114: real time    0.0115
       DOS:  cpu time    0.0002: real time    0.0002
    --------------------------------------------
      LOOP:  cpu time    3.8942: real time    3.9078

 eigenvalue-minimisations  :    48
 total energy-change (2. order) :-0.4568692E-06  (-0.8193777E-08)
 number of electron       7.9999997 magnetization 
 augmentation part        0.1842606 magnetization 

 Free energy of the ion-electron system (eV)
  ---------------------------------------------------
  alpha Z        PSCENC =         0.23661740
  Ewald energy   TEWEN  =       128.44759663
  -Hartree energ DENC   =      -284.34992379
  -exchange      EXHF   =         0.00000000
  -V(xc)+E(xc)   XCENC  =        24.67956357
  PAW double counting   =       453.15180737     -453.93577678
  entropy T*S    EENTRO =         0.01190428
  eigenvalues    EBANDS =       -89.30131724
  atomic energy  EATOM  =       197.04175453
  Solvation  Ediel_sol  =         0.00000000
  ---------------------------------------------------
  free energy    TOTEN  =       -24.01777404 eV

  energy without entropy =      -24.02967832  energy(sigma->0) =      -24.02174213


--------------------------------------------------------------------------------------------------------




 average (electrostatic) potential at core
  the test charge radii are     0.5201  0.6991
  (the norm of the test charge is              1.0000)
       1 -41.4204       2 -41.6479       3 -41.4946       4 -41.2906       5 -57.9989



 E-fermi :  -8.7828     XC(G=0):  -0.6835     alpha+bet : -0.2058


 k-point     1 :       0.2500    0.2500    0.2500
  band No.  band energies     occupation 
      1     -16.8520      2.00000
      2      -9.5164      2.00000
      3      -9.3311      2.00074
      4      -8.9509      1.99922
      5      -0.3221      0.00000
      6       0.5401      0.00000
      7       0.6630      0.00000
      8       0.6863      0.00000

 k-point     2 :      -0.2500    0.2500    0.2500
  band No.  band energies     occupation 
      1     -16.8520      2.00000
      2      -9.5165      2.00000
      3      -9.3312      2.00073
      4      -8.9509      1.99928
      5      -0.3243      0.00000
      6       0.5423      0.00000
      7       0.6592      0.00000
      8       0.6969      0.00000

 k-point     3 :       0.2500   -0.2500    0.2500
  band No.  band energies     occupation 
      1     -16.8520      2.00000
      2      -9.5165      2.00000
      3      -9.3313      2.00073
      4      -8.9509      1.99930
      5      -0.3247      0.00000
      6       0.5502      0.00000
      7       0.6557      0.00000
      8       0.6977      0.00000

 k-point     4 :      -0.2500   -0.2500    0.2500
  band No.  band energies     occupation 
      1     -16.8519      2.00000
      2      -9.5165      2.00000
      3      -9.3312      2.00074
      4      -8.9509      1.99924
      5      -0.3280      0.00000
      6       0.5619      0.00000
      7       0.6682      0.00000
      8       0.6945      0.00000


--------------------------------------------------------------------------------------------------------


 soft charge-density along one line, spin component           1
         0         1         2         3         4         5         6         7         8         9
 total charge-density along one line

 pseudopotential strength for first ion, spin component:           1
 -2.340  -4.033  -0.001  -0.001   0.000
 -4.033  -6.863  -0.004  -0.003   0.001
 -0.001  -0.004  -0.337   0.002  -0.001
 -0.001  -0.003   0.002  -0.337  -0.001
  0.000   0.001  -0.001  -0.001  -0.339
 total augmentation occupancy for first ion, spin component:           1
  3.530  -0.644   0.318   0.268  -0.119
 -0.644   0.130  -0.059  -0.051   0.022
  0.318  -0.059   0.033   0.020  -0.009
  0.268  -0.051   0.020   0.026  -0.008
 -0.119   0.022  -0.009  -0.008   0.011


------------------------ aborting loop because EDIFF is reached ----------------------------------------


    CHARGE:  cpu time    0.1980: real time    0.1985
    FORLOC:  cpu time    0.1402: real time    0.1405
    FORNL :  cpu time    0.7616: real time    0.7634
    STRESS:  cpu time    2.3703: real time    2.4201
    FORCOR:  cpu time    1.8635: real time    1.8679
    FORHAR:  cpu time    0.7207: real time    0.7232
    MIXING:  cpu time    0.1734: real time    0.1738
    OFIELD:  cpu time    0.0000: real time    0.0000

  FORCE on cell =-STRESS in cart. coord.  units (eV):
  Direction    XX          YY          ZZ          XY          YZ          ZX
  --------------------------------------------------------------------------------------
  Alpha Z     0.23662     0.23662     0.23662
  Ewald      49.45978    41.48735    37.50045     0.16464     2.88867     2.94994
  Hartree    98.15137    93.27957    92.92048     0.11895     0.57742     0.69158
  E(xc)     -27.13405   -27.14030   -27.15505     0.00194     0.01614     0.01695
  Local    -205.44250  -193.59520  -190.26022    -0.30091    -2.90864    -3.07894
  n-local   -15.88318   -15.43741   -15.70463    -0.70203     0.14844     0.32970
  augment     0.11439     0.12329     0.13260     0.00001    -0.00323    -0.00395
  Kinetic   100.17479   100.59304   101.40952    -0.05818    -0.87247    -0.81193
  Fock        0.00000     0.00000     0.00000     0.00000     0.00000     0.00000
  -------------------------------------------------------------------------------------
  Total      -0.32279    -0.45303    -0.92023    -0.77558    -0.15366     0.09335
  in kB      -0.50514    -0.70896    -1.44008    -1.21372    -0.24046     0.14608
  external pressure =       -0.88 kB  Pullay stress =        0.00 kB

  kinetic pressure (ideal gas correction) =      0.06 kB
  total pressure  =     -0.82 kB
  Total+kin.    -0.470      -0.568      -1.430      -1.215      -0.226       0.146

 VOLUME and BASIS-vectors are now :
 -----------------------------------------------------------------------------
  energy-cutoff  :      400.00
  volume of cell :     1023.81
      direct lattice vectors                 reciprocal lattice vectors
     9.845175412  0.000000000  0.000000000     0.101572593 -0.000274464  0.001428961
     0.027603677 10.215452760  0.000000000    -0.000000000  0.097890913  0.001662255
    -0.143679755 -0.172859277 10.179757918     0.000000000  0.000000000  0.098234163

  length of vectors
     9.845175412 10.215490055 10.182239217     0.101583015  0.097905025  0.098234163


 FORCES acting on ions
    electron-ion (+dipol)            ewald-force                    non-local-force                 convergence-correction
 -----------------------------------------------------------------------------------------------
   -.125E+02 0.389E+02 0.325E+02   0.137E+02 -.425E+02 -.356E+02   -.148E+01 0.426E+01 0.326E+01   0.275E-04 -.132E-03 -.932E-04
   0.511E+02 -.137E+02 0.657E+01   -.569E+02 0.154E+02 -.725E+01   0.535E+01 -.129E+01 0.702E+00   -.172E-03 0.489E-04 -.154E-04
   -.323E+02 -.413E+02 0.540E+01   0.355E+02 0.455E+02 -.617E+01   -.377E+01 -.367E+01 0.449E+00   0.963E-04 0.144E-03 -.490E-06
   -.811E+01 0.168E+02 -.483E+02   0.866E+01 -.184E+02 0.527E+02   -.609E+00 0.143E+01 -.479E+01   0.242E-04 -.526E-04 0.163E-03
   0.122E+01 -.142E+00 0.357E+01   -.102E+01 -.295E-01 -.369E+01   0.502E+00 0.826E+00 0.675E+00   -.108E-03 0.689E-04 0.611E-04
 -----------------------------------------------------------------------------------------------
   -.630E+00 0.551E+00 -.333E+00   0.000E+00 -.354E-14 0.000E+00   -.104E-01 0.156E+01 0.287E+00   -.132E-03 0.771E-04 0.115E-03


 POSITION                                       TOTAL-FORCE (eV/Angst)
 -----------------------------------------------------------------------------------
      5.16957      3.86824      3.83950        -0.266839      0.715311      0.148186
      3.86003      4.97672      4.39709        -0.475474      0.316948      0.014224
      5.57660      5.55788      4.41952        -0.550555      0.541383     -0.320030
      5.07777      4.33705      5.56821        -0.058937     -0.121670     -0.442743
      4.89915      4.69881      4.52437         0.710840      0.655257      0.554147
 -----------------------------------------------------------------------------------
    total drift:                               -0.640965      2.107229     -0.046216


--------------------------------------------------------------------------------------------------------



  FREE ENERGIE OF THE ION-ELECTRON SYSTEM (eV)
  ---------------------------------------------------
  free  energy   TOTEN  =       -24.01777404 eV

  energy  without entropy=      -24.02967832  energy(sigma->0) =      -24.02174213

 d Force = 0.1414484E-01[-0.309E-01, 0.592E-01]  d Energy = 0.1897357E-01-0.483E-02
 d Force =-0.3626876E+01[-0.362E+01,-0.364E+01]  d Ewald  =-0.3628090E+01 0.121E-02


--------------------------------------------------------------------------------------------------------


    POTLOK:  cpu time    1.8441: real time    1.8484


--------------------------------------------------------------------------------------------------------


           RANDOM_SEED =         578495965               30                0
   IONSTEP:  cpu time    0.0001: real time    0.0001

  ENERGY OF THE ELECTRON-ION-THERMOSTAT SYSTEM (eV)
  ---------------------------------------------------
% ion-electron   TOTEN  =       -24.017774  see above
  kinetic energy EKIN   =         0.042785
  kin. lattice  EKIN_LAT=         0.000000  (temperature   82.75 K)
  nose potential ES     =         0.047136
  nose kinetic   EPS    =         0.091490
  ---------------------------------------------------
  total energy   ETOTAL =       -23.836362 eV

  maximum distance moved by ions :      0.33E-02


 mean value of Nose-termostat <S>:     3.073 mean value of <T> :    82.750
 mean temperature <T/S>/<1/S>  :    82.750

    WAVPRE:  cpu time    0.4994: real time    0.5074
    FEWALD:  cpu time    0.0004: real time    0.0004
    ORTHCH:  cpu time    0.3485: real time    0.3494
 Prediction of Wavefunctions ALPHA= 0.871 BETA=-0.438
    POTLOK:  cpu time    2.0754: real time    2.1069
    EDDIAG:  cpu time    0.5748: real time    0.5762
     LOOP+:  cpu time   71.9262: real time   72.3622
    4ORBIT:  cpu time    0.0000: real time    0.0000

 total amount of memory used by VASP MPI-rank0   299937. kBytes
=======================================================================

   base      :      30000. kBytes
   nonlr-proj:        149. kBytes
   fftplans  :      86584. kBytes
   grid      :     154542. kBytes
   one-center:         15. kBytes
   wavefun   :      28647. kBytes

  
  
 General timing and accounting informations for this job:
 ========================================================
  
                  Total CPU time used (sec):      713.296
                            User time (sec):      700.140
                          System time (sec):       13.156
                         Elapsed time (sec):      717.518
  
                   Maximum memory used (kb):      472172.
                   Average memory used (kb):           0.
  
                          Minor page faults:      2017284
                          Major page faults:            0
                 Voluntary context switches:          386
