<?xml version="1.0" encoding="ISO-8859-1"?>
<modeling>
 <generator>
  <i name="program" type="string">vasp </i>
  <i name="version" type="string">5.4.4.18Apr17-6-g9f103f2a35  </i>
  <i name="subversion" type="string">(build Jul 12 2018 13:43:46) complex            parallel </i>
  <i name="platform" type="string">LinuxGNU </i>
  <i name="date" type="string">2019 06 22 </i>
  <i name="time" type="string">02:17:35 </i>
 </generator>
 <incar>
  <i type="int" name="ISTART">     0</i>
  <i type="string" name="PREC">a</i>
  <i type="string" name="ALGO">fast</i>
  <i type="int" name="MAXMIX">    50</i>
  <i type="int" name="ICHARG">     2</i>
  <i type="int" name="IBRION">     0</i>
  <i name="EDIFF">      0.00000100</i>
  <i type="int" name="NSW">    10</i>
  <i type="int" name="ISIF">     2</i>
  <i type="int" name="ISYM">     0</i>
  <i type="int" name="NBLOCK">     1</i>
  <i type="int" name="KBLOCK">   100</i>
  <i name="ENCUT">    400.00000000</i>
  <i name="POTIM">      2.00000000</i>
  <i name="TEBEG">     50.00000000</i>
  <i name="TEEND">     50.00000000</i>
  <i name="SMASS">      0.00000000</i>
  <i type="logical" name="LREAL"> T  </i>
  <i type="int" name="ISMEAR">     1</i>
  <i name="SIGMA">      0.20000000</i>
  <i name="KSPACING">      0.50000000</i>
  <i type="logical" name="KGAMMA"> F  </i>
  <i name="PSTRESS">      0.00000000</i>
  <i type="logical" name="LWAVE"> F  </i>
  <i type="logical" name="LCHARG"> F  </i>
  <v type="int" name="KPOINT_BSE">    -1     0     0     0</v>
 </incar>
 <structure name="primitive_cell" >
  <crystal>
   <varray name="basis" >
    <v>       9.84517541       0.00000000       0.00000000 </v>
    <v>       0.02760368      10.21545276       0.00000000 </v>
    <v>      -0.14367976      -0.17285928      10.17975792 </v>
   </varray>
   <i name="volume">   1023.80802285 </i>
   <varray name="rec_basis" >
    <v>       0.10157259      -0.00027446       0.00142896 </v>
    <v>      -0.00000000       0.09789091       0.00166225 </v>
    <v>       0.00000000       0.00000000       0.09823416 </v>
   </varray>
  </crystal>
  <varray name="positions" >
   <v>      -0.46197215       0.40649518       0.35994617 </v>
   <v>      -0.49664624       0.46722321       0.44529762 </v>
   <v>       0.39405425       0.47999859       0.43854876 </v>
   <v>      -0.44762112      -0.43485828       0.44238610 </v>
   <v>      -0.47092769       0.41634793      -0.46084339 </v>
  </varray>
 </structure>
 <varray name="primitive_index" >
  <v type="int" >        1 </v>
  <v type="int" >        5 </v>
  <v type="int" >        2 </v>
  <v type="int" >        3 </v>
  <v type="int" >        4 </v>
 </varray>
 <kpoints>
  <generation param="Monkhorst-Pack">
   <v type="int" name="divisions">       2        2        2 </v>
   <v name="usershift">      0.00000000       0.00000000       0.00000000 </v>
   <v name="genvec1">      0.50000000       0.00000000      -0.00000000 </v>
   <v name="genvec2">      0.00000000       0.50000000       0.00000000 </v>
   <v name="genvec3">      0.00000000       0.00000000       0.50000000 </v>
   <v name="shift">      0.50000000       0.50000000       0.50000000 </v>
  </generation>
  <varray name="kpointlist" >
   <v>       0.25000000       0.25000000       0.25000000 </v>
   <v>      -0.25000000       0.25000000       0.25000000 </v>
   <v>       0.25000000      -0.25000000       0.25000000 </v>
   <v>      -0.25000000      -0.25000000       0.25000000 </v>
  </varray>
  <varray name="weights" >
   <v>       0.25000000 </v>
   <v>       0.25000000 </v>
   <v>       0.25000000 </v>
   <v>       0.25000000 </v>
  </varray>
 </kpoints>
 <parameters>
  <separator name="general" >
   <i type="string" name="SYSTEM">unknown system</i>
   <i type="logical" name="LCOMPAT"> F  </i>
  </separator>
  <separator name="electronic" >
   <i type="string" name="PREC">a</i>
   <i name="ENMAX">    400.00000000</i>
   <i name="ENAUG">    644.87300000</i>
   <i name="EDIFF">      0.00000100</i>
   <i type="int" name="IALGO">    68</i>
   <i type="int" name="IWAVPR">    12</i>
   <i type="int" name="NBANDS">     8</i>
   <i name="NELECT">      8.00000000</i>
   <i type="int" name="TURBO">     0</i>
   <i type="int" name="IRESTART">     0</i>
   <i type="int" name="NREBOOT">     0</i>
   <i type="int" name="NMIN">     0</i>
   <i name="EREF">      0.00000000</i>
   <separator name="electronic smearing" >
    <i type="int" name="ISMEAR">     1</i>
    <i name="SIGMA">      0.20000000</i>
    <i name="KSPACING">      0.50000000</i>
    <i type="logical" name="KGAMMA"> F  </i>
   </separator>
   <separator name="electronic projectors" >
    <i type="logical" name="LREAL"> T  </i>
    <v name="ROPT">      0.00000000      0.00000000</v>
    <i type="int" name="LMAXPAW">  -100</i>
    <i type="int" name="LMAXMIX">     2</i>
    <i type="logical" name="NLSPLINE"> F  </i>
   </separator>
   <separator name="electronic startup" >
    <i type="int" name="ISTART">     0</i>
    <i type="int" name="ICHARG">     2</i>
    <i type="int" name="INIWAV">     1</i>
   </separator>
   <separator name="electronic spin" >
    <i type="int" name="ISPIN">     1</i>
    <i type="logical" name="LNONCOLLINEAR"> F  </i>
    <v name="MAGMOM">      1.00000000      1.00000000      1.00000000      1.00000000      1.00000000</v>
    <i name="NUPDOWN">     -1.00000000</i>
    <i type="logical" name="LSORBIT"> F  </i>
    <v name="SAXIS">      0.00000000      0.00000000      1.00000000</v>
    <i type="logical" name="LSPIRAL"> F  </i>
    <v name="QSPIRAL">      0.00000000      0.00000000      0.00000000</v>
    <i type="logical" name="LZEROZ"> F  </i>
   </separator>
   <separator name="electronic exchange-correlation" >
    <i type="logical" name="LASPH"> F  </i>
    <i type="logical" name="LMETAGGA"> F  </i>
   </separator>
   <separator name="electronic convergence" >
    <i type="int" name="NELM">    60</i>
    <i type="int" name="NELMDL">    -5</i>
    <i type="int" name="NELMIN">     2</i>
    <i name="ENINI">    400.00000000</i>
    <separator name="electronic convergence detail" >
     <i type="logical" name="LDIAG"> T  </i>
     <i type="logical" name="LSUBROT"> F  </i>
     <i name="WEIMIN">      0.00100000</i>
     <i name="EBREAK">      0.00000003</i>
     <i name="DEPER">      0.30000000</i>
     <i type="int" name="NRMM">     4</i>
     <i name="TIME">      0.40000000</i>
    </separator>
   </separator>
   <separator name="electronic mixer" >
    <i name="AMIX">      0.40000000</i>
    <i name="BMIX">      1.00000000</i>
    <i name="AMIN">      0.10000000</i>
    <i name="AMIX_MAG">      1.60000000</i>
    <i name="BMIX_MAG">      1.00000000</i>
    <separator name="electronic mixer details" >
     <i type="int" name="IMIX">     4</i>
     <i type="logical" name="MIXFIRST"> F  </i>
     <i type="int" name="MAXMIX">    50</i>
     <i name="WC">    100.00000000</i>
     <i type="int" name="INIMIX">     1</i>
     <i type="int" name="MIXPRE">     1</i>
     <i type="int" name="MREMOVE">     5</i>
    </separator>
   </separator>
   <separator name="electronic dipolcorrection" >
    <i type="logical" name="LDIPOL"> F  </i>
    <i type="logical" name="LMONO"> F  </i>
    <i type="int" name="IDIPOL">     0</i>
    <i name="EPSILON">      1.00000000</i>
    <v name="DIPOL">   -100.00000000   -100.00000000   -100.00000000</v>
    <i name="EFIELD">      0.00000000</i>
   </separator>
  </separator>
  <separator name="grids" >
   <i type="int" name="NGX">    64</i>
   <i type="int" name="NGY">    70</i>
   <i type="int" name="NGZ">    70</i>
   <i type="int" name="NGXF">   128</i>
   <i type="int" name="NGYF">   140</i>
   <i type="int" name="NGZF">   140</i>
   <i type="logical" name="ADDGRID"> F  </i>
  </separator>
  <separator name="ionic" >
   <i type="int" name="NSW">    10</i>
   <i type="int" name="IBRION">     0</i>
   <i type="int" name="MDALGO">     0</i>
   <i type="int" name="ISIF">     2</i>
   <i name="PSTRESS">      0.00000000</i>
   <i name="EDIFFG">      0.00001000</i>
   <i type="int" name="NFREE">     0</i>
   <i name="POTIM">      2.00000000</i>
   <i name="SMASS">      0.00166875</i>
   <i name="SCALEE">      1.00000000</i>
  </separator>
  <separator name="ionic md" >
   <i name="TEBEG">     50.00000000</i>
   <i name="TEEND">     50.00000000</i>
   <i type="int" name="NBLOCK">     1</i>
   <i type="int" name="KBLOCK">     1</i>
   <i type="int" name="NPACO">   256</i>
   <i name="APACO">     16.00000000</i>
  </separator>
  <separator name="symmetry" >
   <i type="int" name="ISYM">     0</i>
   <i name="SYMPREC">      0.00001000</i>
  </separator>
  <separator name="dos" >
   <i type="int" name="LORBIT">     0</i>
   <v name="RWIGS">     -1.00000000     -1.00000000</v>
   <i type="int" name="NEDOS">   301</i>
   <i name="EMIN">     10.00000000</i>
   <i name="EMAX">    -10.00000000</i>
   <i name="EFERMI">      0.00000000</i>
  </separator>
  <separator name="writing" >
   <i type="int" name="NWRITE">     2</i>
   <i type="logical" name="LWAVE"> F  </i>
   <i type="logical" name="LDOWNSAMPLE"> F  </i>
   <i type="logical" name="LCHARG"> F  </i>
   <i type="logical" name="LPARD"> F  </i>
   <i type="logical" name="LVTOT"> F  </i>
   <i type="logical" name="LVHAR"> F  </i>
   <i type="logical" name="LELF"> F  </i>
   <i type="logical" name="LOPTICS"> F  </i>
   <v name="STM">      0.00000000      0.00000000      0.00000000      0.00000000      0.00000000      0.00000000      0.00000000</v>
  </separator>
  <separator name="performance" >
   <i type="int" name="NPAR">     1</i>
   <i type="int" name="NSIM">     4</i>
   <i type="int" name="NBLK">    -1</i>
   <i type="logical" name="LPLANE"> T  </i>
   <i type="logical" name="LSCALAPACK"> T  </i>
   <i type="logical" name="LSCAAWARE"> F  </i>
   <i type="logical" name="LSCALU"> F  </i>
   <i type="logical" name="LASYNC"> F  </i>
   <i type="logical" name="LORBITALREAL"> F  </i>
  </separator>
  <separator name="miscellaneous" >
   <i type="int" name="IDIOT">     3</i>
   <i type="int" name="ISPECIAL">     0</i>
   <i type="logical" name="LMUSIC"> F  </i>
   <v name="POMASS">      1.00000000     12.01100000</v>
   <v name="DARWINR">      0.00000000      0.00000000</v>
   <v name="DARWINV">      1.00000000      1.00000000</v>
   <i type="logical" name="LCORR"> T  </i>
  </separator>
  <i type="logical" name="GGA_COMPAT"> T  </i>
  <i type="logical" name="LBERRY"> F  </i>
  <i type="int" name="ICORELEVEL">     0</i>
  <i type="logical" name="LDAU"> F  </i>
  <i type="int" name="I_CONSTRAINED_M">     0</i>
  <separator name="electronic exchange-correlation" >
   <i type="string" name="GGA">--</i>
   <i type="int" name="VOSKOWN">     0</i>
   <i type="logical" name="LHFCALC"> F  </i>
   <i type="string" name="PRECFOCK"></i>
   <i type="logical" name="LSYMGRAD"> F  </i>
   <i type="logical" name="LHFONE"> F  </i>
   <i type="logical" name="LRHFCALC"> F  </i>
   <i type="logical" name="LTHOMAS"> F  </i>
   <i type="logical" name="LMODELHF"> F  </i>
   <i name="ENCUT4O">     -1.00000000</i>
   <i type="int" name="EXXOEP">     0</i>
   <i type="int" name="FOURORBIT">     0</i>
   <i name="AEXX">      0.00000000</i>
   <i name="HFALPHA">      0.00000000</i>
   <i name="MCALPHA">      0.00000000</i>
   <i name="ALDAX">      1.00000000</i>
   <i name="AGGAX">      1.00000000</i>
   <i name="ALDAC">      1.00000000</i>
   <i name="AGGAC">      1.00000000</i>
   <i type="int" name="NKREDX">     1</i>
   <i type="int" name="NKREDY">     1</i>
   <i type="int" name="NKREDZ">     1</i>
   <i type="logical" name="SHIFTRED"> F  </i>
   <i type="logical" name="ODDONLY"> F  </i>
   <i type="logical" name="EVENONLY"> F  </i>
   <i type="int" name="LMAXFOCK">     0</i>
   <i type="int" name="NMAXFOCKAE">     0</i>
   <i type="logical" name="LFOCKAEDFT"> F  </i>
   <i name="HFSCREEN">      0.00000000</i>
   <i name="HFSCREENC">      0.00000000</i>
   <i type="int" name="NBANDSGWLOW">     0</i>
  </separator>
  <separator name="vdW DFT" >
   <i type="logical" name="LUSE_VDW"> F  </i>
   <i name="Zab_VDW">     -0.84910000</i>
   <i name="PARAM1">      0.12340000</i>
   <i name="PARAM2">      1.00000000</i>
   <i name="PARAM3">      0.00000000</i>
  </separator>
  <separator name="model GW" >
   <i type="int" name="MODEL_GW">     0</i>
   <i name="MODEL_EPS0">    122.85696274</i>
   <i name="MODEL_ALPHA">      1.00000000</i>
  </separator>
  <separator name="linear response parameters" >
   <i type="logical" name="LEPSILON"> F  </i>
   <i type="logical" name="LRPA"> F  </i>
   <i type="logical" name="LNABLA"> F  </i>
   <i type="logical" name="LVEL"> F  </i>
   <i type="int" name="KINTER">     0</i>
   <i name="CSHIFT">      0.10000000</i>
   <i name="OMEGAMAX">     -1.00000000</i>
   <i name="DEG_THRESHOLD">      0.00200000</i>
   <i name="RTIME">     -0.10000000</i>
   <i name="WPLASMAI">      0.00000000</i>
   <v name="DFIELD">      0.00000000      0.00000000      0.00000000</v>
   <v name="WPLASMA">      0.00000000      0.00000000      0.00000000      0.00000000      0.00000000      0.00000000      0.00000000      0.00000000      0.00000000</v>
  </separator>
  <separator name="orbital magnetization" >
   <i type="logical" name="NUCIND"> F  </i>
   <v name="MAGPOS">      0.00000000      0.00000000      0.00000000</v>
   <i type="logical" name="LNICSALL"> T  </i>
   <i type="logical" name="ORBITALMAG"> F  </i>
   <i type="logical" name="LMAGBLOCH"> F  </i>
   <i type="logical" name="LCHIMAG"> F  </i>
   <i type="logical" name="LGAUGE"> T  </i>
   <i type="int" name="MAGATOM">     0</i>
   <v name="MAGDIPOL">      0.00000000      0.00000000      0.00000000</v>
   <v name="AVECCONST">      0.00000000      0.00000000      0.00000000</v>
  </separator>
  <separator name="response functions" >
   <i type="logical" name="LADDER"> F  </i>
   <i type="logical" name="LRPAFORCE"> F  </i>
   <i type="logical" name="LFXC"> F  </i>
   <i type="logical" name="LHARTREE"> T  </i>
   <i type="int" name="IBSE">     0</i>
   <v type="int" name="KPOINT">    -1     0     0     0</v>
   <i type="logical" name="LTCTE"> F  </i>
   <i type="logical" name="LTETE"> F  </i>
   <i type="logical" name="LTRIPLET"> F  </i>
   <i type="logical" name="LFXCEPS"> F  </i>
   <i type="logical" name="LFXHEG"> F  </i>
   <i type="int" name="NATURALO">     2</i>
   <i type="logical" name="L2ORDER"> F  </i>
   <i type="logical" name="LMP2LT"> F  </i>
   <i type="logical" name="LUSEW"> F  </i>
   <i name="ENCUTGW">     -2.00000000</i>
   <i name="ENCUTGWSOFT">     -2.00000000</i>
   <i name="ENCUTLF">     -1.00000000</i>
   <i type="int" name="LMAXMP2">    -1</i>
   <i name="SCISSOR">      0.00000000</i>
   <i type="int" name="NOMEGA">     0</i>
   <i type="int" name="NOMEGAR">     0</i>
   <i type="int" name="NBANDSGW">    -1</i>
   <i type="int" name="NBANDSO">    -1</i>
   <i type="int" name="NBANDSV">    -1</i>
   <i type="int" name="NELM">     1</i>
   <i type="int" name="NELMHF">     1</i>
   <i type="int" name="DIM">     3</i>
   <i type="int" name="ANTIRES">     0</i>
   <i name="OMEGAMAX">    -30.00000000</i>
   <i name="OMEGAMIN">    -30.00000000</i>
   <i name="OMEGATL">   -200.00000000</i>
   <i type="int" name="OMEGAGRID">   140</i>
   <i name="CSHIFT">     -0.10000000</i>
   <i type="logical" name="SELFENERGY"> F  </i>
   <i type="logical" name="LSPECTRAL"> F  </i>
   <i type="logical" name="LSPECTRALGW"> F  </i>
   <i type="logical" name="LSINGLES"> F  </i>
   <i type="logical" name="LFERMIGW"> F  </i>
   <i type="logical" name="ODDONLYGW"> F  </i>
   <i type="logical" name="EVENONLYGW"> F  </i>
   <i type="int" name="NKREDLFX">     1</i>
   <i type="int" name="NKREDLFY">     1</i>
   <i type="int" name="NKREDLFZ">     1</i>
   <i type="int" name="MAXMEM">  2800</i>
   <i type="int" name="TELESCOPE">     0</i>
   <i type="int" name="TAUPAR">     1</i>
   <i type="int" name="OMEGAPAR">    -1</i>
   <i name="LAMBDA">      1.00000000</i>
  </separator>
  <separator name="External order field" >
   <i name="OFIELD_KAPPA">      0.00000000</i>
   <v name="OFIELD_K">      0.00000000      0.00000000      0.00000000</v>
   <i name="OFIELD_Q6_NEAR">      0.00000000</i>
   <i name="OFIELD_Q6_FAR">      0.00000000</i>
   <i name="OFIELD_A">      0.00000000</i>
  </separator>
 </parameters>
 <atominfo>
  <atoms>       5 </atoms>
  <types>       2 </types>
  <array name="atoms" >
   <dimension dim="1">ion</dimension>
   <field type="string">element</field>
   <field type="int">atomtype</field>
   <set>
    <rc><c>H </c><c>   1</c></rc>
    <rc><c>H </c><c>   1</c></rc>
    <rc><c>H </c><c>   1</c></rc>
    <rc><c>H </c><c>   1</c></rc>
    <rc><c>C </c><c>   2</c></rc>
   </set>
  </array>
  <array name="atomtypes" >
   <dimension dim="1">type</dimension>
   <field type="int">atomspertype</field>
   <field type="string">element</field>
   <field>mass</field>
   <field>valence</field>
   <field type="string">pseudopotential</field>
   <set>
    <rc><c>   4</c><c>H </c><c>      1.00000000</c><c>      1.00000000</c><c>  PAW_PBE H 15Jun2001                   </c></rc>
    <rc><c>   1</c><c>C </c><c>     12.01100000</c><c>      4.00000000</c><c>  PAW_PBE C 08Apr2002                   </c></rc>
   </set>
  </array>
 </atominfo>
 <structure name="initialpos" >
  <crystal>
   <varray name="basis" >
    <v>       9.84517541       0.00000000       0.00000000 </v>
    <v>       0.02760368      10.21545276       0.00000000 </v>
    <v>      -0.14367976      -0.17285928      10.17975792 </v>
   </varray>
   <i name="volume">   1023.80802285 </i>
   <varray name="rec_basis" >
    <v>       0.10157259      -0.00027446       0.00142896 </v>
    <v>      -0.00000000       0.09789091       0.00166225 </v>
    <v>       0.00000000       0.00000000       0.09823416 </v>
   </varray>
  </crystal>
  <varray name="positions" >
   <v>       0.53802785       0.40649518       0.35994617 </v>
   <v>       0.39405425       0.47999859       0.43854876 </v>
   <v>       0.55237888       0.56514172       0.44238610 </v>
   <v>       0.52907231       0.41634793       0.53915661 </v>
   <v>       0.50335376       0.46722321       0.44529762 </v>
  </varray>
  <varray name="velocities" >
   <v>       0.00126915       0.00018300      -0.00156422 </v>
   <v>      -0.00114651       0.00116463      -0.00086340 </v>
   <v>      -0.00022294      -0.00236634      -0.00185233 </v>
   <v>       0.00004075       0.00092772      -0.00042209 </v>
   <v>       0.00000496       0.00000757       0.00039148 </v>
  </varray>
 </structure>
 <calculation>
  <scstep>
   <time name="dav">    2.85    2.86</time>
   <time name="total">    4.61    4.62</time>
   <energy>
    <i name="alphaZ">      0.23661740 </i>
    <i name="ewald">    127.04945676 </i>
    <i name="hartreedc">   -243.57048190 </i>
    <i name="XCdc">     21.94435322 </i>
    <i name="pawpsdc">    117.05815612 </i>
    <i name="pawaedc">   -117.66307307 </i>
    <i name="eentropy">      0.00542330 </i>
    <i name="bandstr">    -78.03554855 </i>
    <i name="atom">    197.04175453 </i>
    <i name="e_fr_energy">     24.06665782 </i>
    <i name="e_wo_entrp">     24.06123452 </i>
    <i name="e_0_energy">     24.06485005 </i>
   </energy>
  </scstep>
  <scstep>
   <time name="dav">    2.40    2.40</time>
   <time name="total">    2.40    2.40</time>
   <energy>
    <i name="e_fr_energy">    -19.85270578 </i>
    <i name="e_wo_entrp">    -19.85560644 </i>
    <i name="e_0_energy">    -19.85367266 </i>
   </energy>
  </scstep>
  <scstep>
   <time name="dav">    2.19    2.20</time>
   <time name="total">    2.19    2.20</time>
   <energy>
    <i name="e_fr_energy">    -27.02787678 </i>
    <i name="e_wo_entrp">    -27.06283083 </i>
    <i name="e_0_energy">    -27.03952813 </i>
   </energy>
  </scstep>
  <scstep>
   <time name="dav">    3.92    3.93</time>
   <time name="total">    3.92    3.93</time>
   <energy>
    <i name="e_fr_energy">    -27.40557688 </i>
    <i name="e_wo_entrp">    -27.44051371 </i>
    <i name="e_0_energy">    -27.41722249 </i>
   </energy>
  </scstep>
  <scstep>
   <time name="dav">    3.01    3.02</time>
   <time name="total">    3.26    3.27</time>
   <energy>
    <i name="e_fr_energy">    -27.40576098 </i>
    <i name="e_wo_entrp">    -27.44069588 </i>
    <i name="e_0_energy">    -27.41740595 </i>
   </energy>
  </scstep>
  <scstep>
   <time name="diag">    0.46    0.46</time>
   <time name="diis">    1.64    1.64</time>
   <time name="orth">    0.01    0.01</time>
   <time name="total">    4.11    4.12</time>
   <energy>
    <i name="e_fr_energy">    -24.63175242 </i>
    <i name="e_wo_entrp">    -24.66995053 </i>
    <i name="e_0_energy">    -24.64448512 </i>
   </energy>
  </scstep>
  <scstep>
   <time name="diag">    0.47    0.47</time>
   <time name="diis">    1.58    1.59</time>
   <time name="orth">    0.01    0.01</time>
   <time name="total">    4.04    4.05</time>
   <energy>
    <i name="e_fr_energy">    -24.16234432 </i>
    <i name="e_wo_entrp">    -24.19978895 </i>
    <i name="e_0_energy">    -24.17482586 </i>
   </energy>
  </scstep>
  <scstep>
   <time name="diag">    0.47    0.47</time>
   <time name="diis">    1.55    1.55</time>
   <time name="orth">    0.01    0.01</time>
   <time name="total">    4.03    4.04</time>
   <energy>
    <i name="e_fr_energy">    -24.02861070 </i>
    <i name="e_wo_entrp">    -24.06882541 </i>
    <i name="e_0_energy">    -24.04201560 </i>
   </energy>
  </scstep>
  <scstep>
   <time name="diag">    0.48    0.48</time>
   <time name="diis">    1.53    1.53</time>
   <time name="orth">    0.01    0.01</time>
   <time name="total">    4.07    4.08</time>
   <energy>
    <i name="e_fr_energy">    -24.01316048 </i>
    <i name="e_wo_entrp">    -24.05044866 </i>
    <i name="e_0_energy">    -24.02558988 </i>
   </energy>
  </scstep>
  <scstep>
   <time name="diag">    0.45    0.45</time>
   <time name="diis">    1.56    1.56</time>
   <time name="orth">    0.01    0.01</time>
   <time name="total">    4.08    4.09</time>
   <energy>
    <i name="e_fr_energy">    -24.01110616 </i>
    <i name="e_wo_entrp">    -24.04782767 </i>
    <i name="e_0_energy">    -24.02334666 </i>
   </energy>
  </scstep>
  <scstep>
   <time name="diag">    0.49    0.49</time>
   <time name="diis">    1.57    1.57</time>
   <time name="orth">    0.01    0.01</time>
   <time name="total">    4.11    4.12</time>
   <energy>
    <i name="e_fr_energy">    -24.01059933 </i>
    <i name="e_wo_entrp">    -24.04745013 </i>
    <i name="e_0_energy">    -24.02288293 </i>
   </energy>
  </scstep>
  <scstep>
   <time name="diag">    0.49    0.49</time>
   <time name="diis">    1.57    1.57</time>
   <time name="orth">    0.01    0.01</time>
   <time name="total">    4.02    4.03</time>
   <energy>
    <i name="e_fr_energy">    -24.00513021 </i>
    <i name="e_wo_entrp">    -24.04182808 </i>
    <i name="e_0_energy">    -24.01736284 </i>
   </energy>
  </scstep>
  <scstep>
   <time name="diag">    0.50    0.50</time>
   <time name="diis">    1.55    1.55</time>
   <time name="orth">    0.01    0.01</time>
   <time name="total">    4.03    4.04</time>
   <energy>
    <i name="e_fr_energy">    -24.00681841 </i>
    <i name="e_wo_entrp">    -24.04367589 </i>
    <i name="e_0_energy">    -24.01910423 </i>
   </energy>
  </scstep>
  <scstep>
   <time name="diag">    0.50    0.50</time>
   <time name="diis">    1.58    1.58</time>
   <time name="orth">    0.01    0.01</time>
   <time name="total">    3.97    3.98</time>
   <energy>
    <i name="e_fr_energy">    -24.01358511 </i>
    <i name="e_wo_entrp">    -24.05036174 </i>
    <i name="e_0_energy">    -24.02584399 </i>
   </energy>
  </scstep>
  <scstep>
   <time name="diag">    0.50    0.50</time>
   <time name="diis">    1.60    1.60</time>
   <time name="orth">    0.01    0.01</time>
   <time name="total">    3.98    3.99</time>
   <energy>
    <i name="e_fr_energy">    -24.01565145 </i>
    <i name="e_wo_entrp">    -24.05243716 </i>
    <i name="e_0_energy">    -24.02791335 </i>
   </energy>
  </scstep>
  <scstep>
   <time name="diag">    0.49    0.49</time>
   <time name="diis">    1.62    1.63</time>
   <time name="orth">    0.01    0.01</time>
   <time name="total">    3.95    3.96</time>
   <energy>
    <i name="e_fr_energy">    -24.01758307 </i>
    <i name="e_wo_entrp">    -24.05439051 </i>
    <i name="e_0_energy">    -24.02985222 </i>
   </energy>
  </scstep>
  <scstep>
   <time name="diag">    0.51    0.51</time>
   <time name="diis">    1.57    1.57</time>
   <time name="orth">    0.01    0.01</time>
   <time name="total">    3.89    3.90</time>
   <energy>
    <i name="e_fr_energy">    -24.01792767 </i>
    <i name="e_wo_entrp">    -24.05471721 </i>
    <i name="e_0_energy">    -24.03019085 </i>
   </energy>
  </scstep>
  <scstep>
   <time name="diag">    0.51    0.51</time>
   <time name="diis">    1.58    1.58</time>
   <time name="orth">    0.01    0.01</time>
   <time name="total">    3.92    3.93</time>
   <energy>
    <i name="e_fr_energy">    -24.01826286 </i>
    <i name="e_wo_entrp">    -24.05505552 </i>
    <i name="e_0_energy">    -24.03052708 </i>
   </energy>
  </scstep>
  <scstep>
   <time name="diag">    0.49    0.49</time>
   <time name="diis">    1.38    1.38</time>
   <time name="orth">    0.01    0.01</time>
   <time name="total">    3.70    3.71</time>
   <energy>
    <i name="e_fr_energy">    -24.01831333 </i>
    <i name="e_wo_entrp">    -24.05509798 </i>
    <i name="e_0_energy">    -24.03057488 </i>
   </energy>
  </scstep>
  <scstep>
   <time name="diag">    0.50    0.50</time>
   <time name="diis">    1.54    1.54</time>
   <time name="orth">    0.01    0.01</time>
   <time name="total">    3.91    3.92</time>
   <energy>
    <i name="e_fr_energy">    -24.01833823 </i>
    <i name="e_wo_entrp">    -24.05512610 </i>
    <i name="e_0_energy">    -24.03060086 </i>
   </energy>
  </scstep>
  <scstep>
   <time name="diag">    0.51    0.51</time>
   <time name="diis">    1.25    1.25</time>
   <time name="orth">    0.01    0.01</time>
   <time name="total">    3.67    3.68</time>
   <energy>
    <i name="e_fr_energy">    -24.01834153 </i>
    <i name="e_wo_entrp">    -24.05512949 </i>
    <i name="e_0_energy">    -24.03060418 </i>
   </energy>
  </scstep>
  <scstep>
   <time name="diag">    0.50    0.50</time>
   <time name="diis">    1.15    1.15</time>
   <time name="orth">    0.01    0.01</time>
   <time name="total">    3.55    3.56</time>
   <energy>
    <i name="e_fr_energy">    -24.01834311 </i>
    <i name="e_wo_entrp">    -24.05513132 </i>
    <i name="e_0_energy">    -24.03060585 </i>
   </energy>
  </scstep>
  <scstep>
   <time name="diag">    0.50    0.50</time>
   <time name="diis">    1.02    1.02</time>
   <time name="orth">    0.01    0.01</time>
   <time name="total">    3.18    3.18</time>
   <energy>
    <i name="alphaZ">      0.23661740 </i>
    <i name="ewald">    127.04945676 </i>
    <i name="hartreedc">   -283.17215606 </i>
    <i name="XCdc">     24.61926714 </i>
    <i name="pawpsdc">    458.32768330 </i>
    <i name="pawaedc">   -459.10740416 </i>
    <i name="eentropy">      0.03678795 </i>
    <i name="bandstr">    -89.05035095 </i>
    <i name="atom">    197.04175453 </i>
    <i name="e_fr_energy">    -24.01834409 </i>
    <i name="e_wo_entrp">    -24.05513204 </i>
    <i name="e_0_energy">    -24.03060674 </i>
   </energy>
  </scstep>
  <structure>
   <crystal>
    <varray name="basis" >
     <v>       9.84517541       0.00000000       0.00000000 </v>
     <v>       0.02760368      10.21545276       0.00000000 </v>
     <v>      -0.14367976      -0.17285928      10.17975792 </v>
    </varray>
    <i name="volume">   1023.80802285 </i>
    <varray name="rec_basis" >
     <v>       0.10157259      -0.00027446       0.00142896 </v>
     <v>      -0.00000000       0.09789091       0.00166225 </v>
     <v>       0.00000000       0.00000000       0.09823416 </v>
    </varray>
   </crystal>
   <varray name="positions" >
    <v>       0.53802785       0.40649518       0.35994617 </v>
    <v>       0.39405425       0.47999859       0.43854876 </v>
    <v>       0.55237888       0.56514172       0.44238610 </v>
    <v>       0.52907231       0.41634793       0.53915661 </v>
    <v>       0.50335376       0.46722321       0.44529762 </v>
   </varray>
  </structure>
  <varray name="forces" >
   <v>      -0.10334059       0.08853097       0.68831301 </v>
   <v>       0.46402767       0.06292442       0.13351514 </v>
   <v>       0.13449997      -0.33210445       0.03990763 </v>
   <v>      -0.60150162       0.41337360      -0.78509901 </v>
   <v>       0.81410571       0.76811383      -0.00667114 </v>
  </varray>
  <varray name="stress" >
   <v>      -1.19383731      -0.99222772       0.54359730 </v>
   <v>      -0.99222772      -0.91637178       0.03967422 </v>
   <v>       0.54359729       0.03967422      -2.80766881 </v>
  </varray>
  <energy>
   <i name="e_fr_energy">    -24.01834409 </i>
   <i name="e_wo_entrp">    -24.03060674 </i>
   <i name="e_0_energy">      0.03678795 </i>
   <i name="kinetic">      0.03364640 </i>
   <i name="lattice kinetic">      0.00000000 </i>
   <i name="nosepot">      0.00000000 </i>
   <i name="nosekinetic">      0.00000726 </i>
   <i name="total">    -23.98469043 </i>
  </energy>
  <dos>
   <i name="efermi">     -9.06774411 </i>
   <total>
    <array>
     <dimension dim="1">gridpoints</dimension>
     <dimension dim="2">spin</dimension>
     <field>energy</field>
     <field>total</field>
     <field>integrated</field>
     <set>
      <set comment="spin 1">
       <r>   -18.7975     0.0000     0.0000 </r>
       <r>   -18.7258     0.0000     0.0000 </r>
       <r>   -18.6542     0.0000     0.0000 </r>
       <r>   -18.5826     0.0000     0.0000 </r>
       <r>   -18.5109     0.0000     0.0000 </r>
       <r>   -18.4393    -0.0000    -0.0000 </r>
       <r>   -18.3676    -0.0000    -0.0000 </r>
       <r>   -18.2960    -0.0000    -0.0000 </r>
       <r>   -18.2243    -0.0000    -0.0000 </r>
       <r>   -18.1527    -0.0000    -0.0000 </r>
       <r>   -18.0810    -0.0000    -0.0000 </r>
       <r>   -18.0094    -0.0000    -0.0000 </r>
       <r>   -17.9377    -0.0000    -0.0000 </r>
       <r>   -17.8661    -0.0000    -0.0000 </r>
       <r>   -17.7944    -0.0000    -0.0000 </r>
       <r>   -17.7228    -0.0000    -0.0000 </r>
       <r>   -17.6511    -0.0000    -0.0000 </r>
       <r>   -17.5795    -0.0000    -0.0000 </r>
       <r>   -17.5078    -0.0001    -0.0000 </r>
       <r>   -17.4362    -0.0008    -0.0001 </r>
       <r>   -17.3645    -0.0055    -0.0005 </r>
       <r>   -17.2929    -0.0295    -0.0026 </r>
       <r>   -17.2212    -0.1135    -0.0107 </r>
       <r>   -17.1496    -0.2973    -0.0320 </r>
       <r>   -17.0779    -0.4381    -0.0634 </r>
       <r>   -17.0063     0.0722    -0.0582 </r>
       <r>   -16.9346     2.0748     0.0904 </r>
       <r>   -16.8630     5.4000     0.4774 </r>
       <r>   -16.7913     8.0218     1.0521 </r>
       <r>   -16.7197     7.7373     1.6065 </r>
       <r>   -16.6480     4.8030     1.9506 </r>
       <r>   -16.5764     1.6075     2.0658 </r>
       <r>   -16.5047    -0.1023     2.0585 </r>
       <r>   -16.4331    -0.4364     2.0272 </r>
       <r>   -16.3614    -0.2602     2.0086 </r>
       <r>   -16.2898    -0.0923     2.0019 </r>
       <r>   -16.2181    -0.0226     2.0003 </r>
       <r>   -16.1465    -0.0040     2.0000 </r>
       <r>   -16.0748    -0.0005     2.0000 </r>
       <r>   -16.0032    -0.0001     2.0000 </r>
       <r>   -15.9315    -0.0000     2.0000 </r>
       <r>   -15.8599    -0.0000     2.0000 </r>
       <r>   -15.7882    -0.0000     2.0000 </r>
       <r>   -15.7166    -0.0000     2.0000 </r>
       <r>   -15.6449    -0.0000     2.0000 </r>
       <r>   -15.5733    -0.0000     2.0000 </r>
       <r>   -15.5016     0.0000     2.0000 </r>
       <r>   -15.4300     0.0000     2.0000 </r>
       <r>   -15.3583     0.0000     2.0000 </r>
       <r>   -15.2867     0.0000     2.0000 </r>
       <r>   -15.2150     0.0000     2.0000 </r>
       <r>   -15.1434     0.0000     2.0000 </r>
       <r>   -15.0717     0.0000     2.0000 </r>
       <r>   -15.0001     0.0000     2.0000 </r>
       <r>   -14.9284     0.0000     2.0000 </r>
       <r>   -14.8568     0.0000     2.0000 </r>
       <r>   -14.7851     0.0000     2.0000 </r>
       <r>   -14.7135     0.0000     2.0000 </r>
       <r>   -14.6418     0.0000     2.0000 </r>
       <r>   -14.5702     0.0000     2.0000 </r>
       <r>   -14.4985     0.0000     2.0000 </r>
       <r>   -14.4269     0.0000     2.0000 </r>
       <r>   -14.3552     0.0000     2.0000 </r>
       <r>   -14.2836     0.0000     2.0000 </r>
       <r>   -14.2119     0.0000     2.0000 </r>
       <r>   -14.1403     0.0000     2.0000 </r>
       <r>   -14.0686     0.0000     2.0000 </r>
       <r>   -13.9970     0.0000     2.0000 </r>
       <r>   -13.9253     0.0000     2.0000 </r>
       <r>   -13.8537     0.0000     2.0000 </r>
       <r>   -13.7820     0.0000     2.0000 </r>
       <r>   -13.7104     0.0000     2.0000 </r>
       <r>   -13.6387     0.0000     2.0000 </r>
       <r>   -13.5671     0.0000     2.0000 </r>
       <r>   -13.4954     0.0000     2.0000 </r>
       <r>   -13.4238     0.0000     2.0000 </r>
       <r>   -13.3521     0.0000     2.0000 </r>
       <r>   -13.2805     0.0000     2.0000 </r>
       <r>   -13.2088     0.0000     2.0000 </r>
       <r>   -13.1372     0.0000     2.0000 </r>
       <r>   -13.0655     0.0000     2.0000 </r>
       <r>   -12.9939     0.0000     2.0000 </r>
       <r>   -12.9222     0.0000     2.0000 </r>
       <r>   -12.8506     0.0000     2.0000 </r>
       <r>   -12.7789     0.0000     2.0000 </r>
       <r>   -12.7073     0.0000     2.0000 </r>
       <r>   -12.6356     0.0000     2.0000 </r>
       <r>   -12.5640     0.0000     2.0000 </r>
       <r>   -12.4924     0.0000     2.0000 </r>
       <r>   -12.4207     0.0000     2.0000 </r>
       <r>   -12.3491     0.0000     2.0000 </r>
       <r>   -12.2774     0.0000     2.0000 </r>
       <r>   -12.2058     0.0000     2.0000 </r>
       <r>   -12.1341     0.0000     2.0000 </r>
       <r>   -12.0625     0.0000     2.0000 </r>
       <r>   -11.9908     0.0000     2.0000 </r>
       <r>   -11.9192     0.0000     2.0000 </r>
       <r>   -11.8475     0.0000     2.0000 </r>
       <r>   -11.7759     0.0000     2.0000 </r>
       <r>   -11.7042     0.0000     2.0000 </r>
       <r>   -11.6326     0.0000     2.0000 </r>
       <r>   -11.5609     0.0000     2.0000 </r>
       <r>   -11.4893     0.0000     2.0000 </r>
       <r>   -11.4176     0.0000     2.0000 </r>
       <r>   -11.3460     0.0000     2.0000 </r>
       <r>   -11.2743     0.0000     2.0000 </r>
       <r>   -11.2027     0.0000     2.0000 </r>
       <r>   -11.1310     0.0000     2.0000 </r>
       <r>   -11.0594     0.0000     2.0000 </r>
       <r>   -10.9877     0.0000     2.0000 </r>
       <r>   -10.9161    -0.0000     2.0000 </r>
       <r>   -10.8444    -0.0000     2.0000 </r>
       <r>   -10.7728    -0.0000     2.0000 </r>
       <r>   -10.7011    -0.0000     2.0000 </r>
       <r>   -10.6295    -0.0000     2.0000 </r>
       <r>   -10.5578    -0.0000     2.0000 </r>
       <r>   -10.4862    -0.0000     2.0000 </r>
       <r>   -10.4145    -0.0000     2.0000 </r>
       <r>   -10.3429    -0.0000     2.0000 </r>
       <r>   -10.2712    -0.0000     2.0000 </r>
       <r>   -10.1996    -0.0000     2.0000 </r>
       <r>   -10.1279    -0.0000     2.0000 </r>
       <r>   -10.0563    -0.0000     2.0000 </r>
       <r>    -9.9846    -0.0001     2.0000 </r>
       <r>    -9.9130    -0.0011     1.9999 </r>
       <r>    -9.8413    -0.0083     1.9993 </r>
       <r>    -9.7697    -0.0486     1.9958 </r>
       <r>    -9.6980    -0.2080     1.9809 </r>
       <r>    -9.6264    -0.6256     1.9361 </r>
       <r>    -9.5547    -1.1793     1.8516 </r>
       <r>    -9.4831    -0.7093     1.8008 </r>
       <r>    -9.4114     3.1588     2.0271 </r>
       <r>    -9.3398    11.5908     2.8576 </r>
       <r>    -9.2681    20.9506     4.3587 </r>
       <r>    -9.1965    24.2711     6.0977 </r>
       <r>    -9.1248    18.6856     7.4365 </r>
       <r>    -9.0532     8.9456     8.0775 </r>
       <r>    -8.9815     1.6685     8.1970 </r>
       <r>    -8.9099    -1.0365     8.1227 </r>
       <r>    -8.8382    -1.0451     8.0479 </r>
       <r>    -8.7666    -0.4833     8.0132 </r>
       <r>    -8.6949    -0.1470     8.0027 </r>
       <r>    -8.6233    -0.0320     8.0004 </r>
       <r>    -8.5516    -0.0051     8.0000 </r>
       <r>    -8.4800    -0.0006     8.0000 </r>
       <r>    -8.4083    -0.0001     8.0000 </r>
       <r>    -8.3367    -0.0000     8.0000 </r>
       <r>    -8.2650    -0.0000     8.0000 </r>
       <r>    -8.1934    -0.0000     8.0000 </r>
       <r>    -8.1217    -0.0000     8.0000 </r>
       <r>    -8.0501    -0.0000     8.0000 </r>
       <r>    -7.9784    -0.0000     8.0000 </r>
       <r>    -7.9068     0.0000     8.0000 </r>
       <r>    -7.8351     0.0000     8.0000 </r>
       <r>    -7.7635     0.0000     8.0000 </r>
       <r>    -7.6918     0.0000     8.0000 </r>
       <r>    -7.6202     0.0000     8.0000 </r>
       <r>    -7.5485     0.0000     8.0000 </r>
       <r>    -7.4769     0.0000     8.0000 </r>
       <r>    -7.4052     0.0000     8.0000 </r>
       <r>    -7.3336     0.0000     8.0000 </r>
       <r>    -7.2619     0.0000     8.0000 </r>
       <r>    -7.1903     0.0000     8.0000 </r>
       <r>    -7.1186     0.0000     8.0000 </r>
       <r>    -7.0470     0.0000     8.0000 </r>
       <r>    -6.9753     0.0000     8.0000 </r>
       <r>    -6.9037     0.0000     8.0000 </r>
       <r>    -6.8320     0.0000     8.0000 </r>
       <r>    -6.7604     0.0000     8.0000 </r>
       <r>    -6.6887     0.0000     8.0000 </r>
       <r>    -6.6171     0.0000     8.0000 </r>
       <r>    -6.5454     0.0000     8.0000 </r>
       <r>    -6.4738     0.0000     8.0000 </r>
       <r>    -6.4022     0.0000     8.0000 </r>
       <r>    -6.3305     0.0000     8.0000 </r>
       <r>    -6.2589     0.0000     8.0000 </r>
       <r>    -6.1872     0.0000     8.0000 </r>
       <r>    -6.1156     0.0000     8.0000 </r>
       <r>    -6.0439     0.0000     8.0000 </r>
       <r>    -5.9723     0.0000     8.0000 </r>
       <r>    -5.9006     0.0000     8.0000 </r>
       <r>    -5.8290     0.0000     8.0000 </r>
       <r>    -5.7573     0.0000     8.0000 </r>
       <r>    -5.6857     0.0000     8.0000 </r>
       <r>    -5.6140     0.0000     8.0000 </r>
       <r>    -5.5424     0.0000     8.0000 </r>
       <r>    -5.4707     0.0000     8.0000 </r>
       <r>    -5.3991     0.0000     8.0000 </r>
       <r>    -5.3274     0.0000     8.0000 </r>
       <r>    -5.2558     0.0000     8.0000 </r>
       <r>    -5.1841     0.0000     8.0000 </r>
       <r>    -5.1125     0.0000     8.0000 </r>
       <r>    -5.0408     0.0000     8.0000 </r>
       <r>    -4.9692     0.0000     8.0000 </r>
       <r>    -4.8975     0.0000     8.0000 </r>
       <r>    -4.8259     0.0000     8.0000 </r>
       <r>    -4.7542     0.0000     8.0000 </r>
       <r>    -4.6826     0.0000     8.0000 </r>
       <r>    -4.6109     0.0000     8.0000 </r>
       <r>    -4.5393     0.0000     8.0000 </r>
       <r>    -4.4676     0.0000     8.0000 </r>
       <r>    -4.3960     0.0000     8.0000 </r>
       <r>    -4.3243     0.0000     8.0000 </r>
       <r>    -4.2527     0.0000     8.0000 </r>
       <r>    -4.1810     0.0000     8.0000 </r>
       <r>    -4.1094     0.0000     8.0000 </r>
       <r>    -4.0377     0.0000     8.0000 </r>
       <r>    -3.9661     0.0000     8.0000 </r>
       <r>    -3.8944     0.0000     8.0000 </r>
       <r>    -3.8228     0.0000     8.0000 </r>
       <r>    -3.7511     0.0000     8.0000 </r>
       <r>    -3.6795     0.0000     8.0000 </r>
       <r>    -3.6078     0.0000     8.0000 </r>
       <r>    -3.5362     0.0000     8.0000 </r>
       <r>    -3.4645     0.0000     8.0000 </r>
       <r>    -3.3929     0.0000     8.0000 </r>
       <r>    -3.3212     0.0000     8.0000 </r>
       <r>    -3.2496     0.0000     8.0000 </r>
       <r>    -3.1779     0.0000     8.0000 </r>
       <r>    -3.1063     0.0000     8.0000 </r>
       <r>    -3.0346     0.0000     8.0000 </r>
       <r>    -2.9630     0.0000     8.0000 </r>
       <r>    -2.8913     0.0000     8.0000 </r>
       <r>    -2.8197     0.0000     8.0000 </r>
       <r>    -2.7480     0.0000     8.0000 </r>
       <r>    -2.6764     0.0000     8.0000 </r>
       <r>    -2.6047     0.0000     8.0000 </r>
       <r>    -2.5331     0.0000     8.0000 </r>
       <r>    -2.4614     0.0000     8.0000 </r>
       <r>    -2.3898     0.0000     8.0000 </r>
       <r>    -2.3181     0.0000     8.0000 </r>
       <r>    -2.2465     0.0000     8.0000 </r>
       <r>    -2.1748     0.0000     8.0000 </r>
       <r>    -2.1032     0.0000     8.0000 </r>
       <r>    -2.0315     0.0000     8.0000 </r>
       <r>    -1.9599    -0.0000     8.0000 </r>
       <r>    -1.8882    -0.0000     8.0000 </r>
       <r>    -1.8166    -0.0000     8.0000 </r>
       <r>    -1.7449    -0.0000     8.0000 </r>
       <r>    -1.6733    -0.0000     8.0000 </r>
       <r>    -1.6016    -0.0000     8.0000 </r>
       <r>    -1.5300    -0.0000     8.0000 </r>
       <r>    -1.4583    -0.0000     8.0000 </r>
       <r>    -1.3867    -0.0000     8.0000 </r>
       <r>    -1.3150    -0.0000     8.0000 </r>
       <r>    -1.2434    -0.0000     8.0000 </r>
       <r>    -1.1717    -0.0000     8.0000 </r>
       <r>    -1.1001    -0.0000     8.0000 </r>
       <r>    -1.0284    -0.0001     8.0000 </r>
       <r>    -0.9568    -0.0012     7.9999 </r>
       <r>    -0.8851    -0.0079     7.9993 </r>
       <r>    -0.8135    -0.0396     7.9965 </r>
       <r>    -0.7418    -0.1423     7.9863 </r>
       <r>    -0.6702    -0.3402     7.9619 </r>
       <r>    -0.5985    -0.4166     7.9321 </r>
       <r>    -0.5269     0.3338     7.9560 </r>
       <r>    -0.4552     2.6728     8.1475 </r>
       <r>    -0.3836     6.0663     8.5822 </r>
       <r>    -0.3120     8.2335     9.1721 </r>
       <r>    -0.2403     7.3013     9.6952 </r>
       <r>    -0.1687     4.1046     9.9893 </r>
       <r>    -0.0970     1.1273    10.0701 </r>
       <r>    -0.0254    -0.2569    10.0517 </r>
       <r>     0.0463    -0.4472    10.0196 </r>
       <r>     0.1179    -0.3424     9.9951 </r>
       <r>     0.1896    -0.4368     9.9638 </r>
       <r>     0.2612    -0.7296     9.9115 </r>
       <r>     0.3329    -0.6311     9.8663 </r>
       <r>     0.4045     1.1492     9.9486 </r>
       <r>     0.4762     5.8644    10.3688 </r>
       <r>     0.5478    13.0451    11.3035 </r>
       <r>     0.6195    19.5238    12.7024 </r>
       <r>     0.6911    21.1256    14.2160 </r>
       <r>     0.7628    16.4248    15.3928 </r>
       <r>     0.8344     8.5410    16.0048 </r>
       <r>     0.9061     2.1757    16.1607 </r>
       <r>     0.9777    -0.6201    16.1163 </r>
       <r>     1.0494    -0.9228    16.0501 </r>
       <r>     1.1210    -0.4886    16.0151 </r>
       <r>     1.1927    -0.1644    16.0034 </r>
       <r>     1.2643    -0.0390    16.0006 </r>
       <r>     1.3360    -0.0068    16.0001 </r>
       <r>     1.4076    -0.0009    16.0000 </r>
       <r>     1.4793    -0.0001    16.0000 </r>
       <r>     1.5509    -0.0000    16.0000 </r>
       <r>     1.6226    -0.0000    16.0000 </r>
       <r>     1.6942    -0.0000    16.0000 </r>
       <r>     1.7659    -0.0000    16.0000 </r>
       <r>     1.8375    -0.0000    16.0000 </r>
       <r>     1.9092    -0.0000    16.0000 </r>
       <r>     1.9808    -0.0000    16.0000 </r>
       <r>     2.0525     0.0000    16.0000 </r>
       <r>     2.1241     0.0000    16.0000 </r>
       <r>     2.1958     0.0000    16.0000 </r>
       <r>     2.2674     0.0000    16.0000 </r>
       <r>     2.3391     0.0000    16.0000 </r>
       <r>     2.4107     0.0000    16.0000 </r>
       <r>     2.4824     0.0000    16.0000 </r>
       <r>     2.5540     0.0000    16.0000 </r>
       <r>     2.6257     0.0000    16.0000 </r>
       <r>     2.6973     0.0000    16.0000 </r>
      </set>
     </set>
    </array>
   </total>
  </dos>
  <time name="totalsc">   94.39   94.62</time>
 </calculation>
 <calculation>
  <scstep>
   <time name="dav">    2.20    2.21</time>
   <time name="total">    4.11    4.12</time>
   <energy>
    <i name="alphaZ">      0.23661740 </i>
    <i name="ewald">    132.30974421 </i>
    <i name="hartreedc">   -286.20786710 </i>
    <i name="XCdc">     24.77230923 </i>
    <i name="pawpsdc">    458.33477900 </i>
    <i name="pawaedc">   -459.11450400 </i>
    <i name="eentropy">      0.02627629 </i>
    <i name="bandstr">    -91.43003113 </i>
    <i name="atom">    197.04175453 </i>
    <i name="e_fr_energy">    -24.03092157 </i>
    <i name="e_wo_entrp">    -24.05719786 </i>
    <i name="e_0_energy">    -24.03968033 </i>
   </energy>
  </scstep>
  <scstep>
   <time name="diag">    0.49    0.49</time>
   <time name="diis">    1.69    1.69</time>
   <time name="orth">    0.01    0.01</time>
   <time name="total">    3.94    3.95</time>
   <energy>
    <i name="e_fr_energy">    -24.02277791 </i>
    <i name="e_wo_entrp">    -24.04823933 </i>
    <i name="e_0_energy">    -24.03126505 </i>
   </energy>
  </scstep>
  <scstep>
   <time name="diag">    0.50    0.50</time>
   <time name="diis">    1.67    1.68</time>
   <time name="orth">    0.01    0.01</time>
   <time name="total">    3.95    3.96</time>
   <energy>
    <i name="e_fr_energy">    -24.01885724 </i>
    <i name="e_wo_entrp">    -24.04533531 </i>
    <i name="e_0_energy">    -24.02768326 </i>
   </energy>
  </scstep>
  <scstep>
   <time name="diag">    0.49    0.49</time>
   <time name="diis">    1.65    1.66</time>
   <time name="orth">    0.01    0.01</time>
   <time name="total">    3.99    4.00</time>
   <energy>
    <i name="e_fr_energy">    -24.01993036 </i>
    <i name="e_wo_entrp">    -24.04629119 </i>
    <i name="e_0_energy">    -24.02871730 </i>
   </energy>
  </scstep>
  <scstep>
   <time name="diag">    0.49    0.49</time>
   <time name="diis">    1.63    1.63</time>
   <time name="orth">    0.01    0.01</time>
   <time name="total">    4.00    4.01</time>
   <energy>
    <i name="e_fr_energy">    -24.01943024 </i>
    <i name="e_wo_entrp">    -24.04555494 </i>
    <i name="e_0_energy">    -24.02813847 </i>
   </energy>
  </scstep>
  <scstep>
   <time name="diag">    0.47    0.47</time>
   <time name="diis">    1.65    1.66</time>
   <time name="orth">    0.01    0.01</time>
   <time name="total">    4.03    4.04</time>
   <energy>
    <i name="e_fr_energy">    -24.01956868 </i>
    <i name="e_wo_entrp">    -24.04564342 </i>
    <i name="e_0_energy">    -24.02826026 </i>
   </energy>
  </scstep>
  <scstep>
   <time name="diag">    0.48    0.48</time>
   <time name="diis">    1.67    1.68</time>
   <time name="orth">    0.01    0.01</time>
   <time name="total">    4.05    4.06</time>
   <energy>
    <i name="e_fr_energy">    -24.01969782 </i>
    <i name="e_wo_entrp">    -24.04587903 </i>
    <i name="e_0_energy">    -24.02842489 </i>
   </energy>
  </scstep>
  <scstep>
   <time name="diag">    0.48    0.48</time>
   <time name="diis">    1.68    1.69</time>
   <time name="orth">    0.01    0.01</time>
   <time name="total">    4.04    4.05</time>
   <energy>
    <i name="e_fr_energy">    -24.01976586 </i>
    <i name="e_wo_entrp">    -24.04603200 </i>
    <i name="e_0_energy">    -24.02852124 </i>
   </energy>
  </scstep>
  <scstep>
   <time name="diag">    0.48    0.49</time>
   <time name="diis">    1.62    1.63</time>
   <time name="orth">    0.01    0.01</time>
   <time name="total">    4.02    4.03</time>
   <energy>
    <i name="e_fr_energy">    -24.01979845 </i>
    <i name="e_wo_entrp">    -24.04605074 </i>
    <i name="e_0_energy">    -24.02854922 </i>
   </energy>
  </scstep>
  <scstep>
   <time name="diag">    0.48    0.48</time>
   <time name="diis">    1.63    1.64</time>
   <time name="orth">    0.01    0.01</time>
   <time name="total">    4.04    4.05</time>
   <energy>
    <i name="e_fr_energy">    -24.01980955 </i>
    <i name="e_wo_entrp">    -24.04604184 </i>
    <i name="e_0_energy">    -24.02855365 </i>
   </energy>
  </scstep>
  <scstep>
   <time name="diag">    0.49    0.49</time>
   <time name="diis">    1.52    1.53</time>
   <time name="orth">    0.01    0.01</time>
   <time name="total">    3.93    3.94</time>
   <energy>
    <i name="e_fr_energy">    -24.01981560 </i>
    <i name="e_wo_entrp">    -24.04604287 </i>
    <i name="e_0_energy">    -24.02855803 </i>
   </energy>
  </scstep>
  <scstep>
   <time name="diag">    0.50    0.50</time>
   <time name="diis">    1.61    1.62</time>
   <time name="orth">    0.01    0.01</time>
   <time name="total">    4.06    4.07</time>
   <energy>
    <i name="e_fr_energy">    -24.01981793 </i>
    <i name="e_wo_entrp">    -24.04604315 </i>
    <i name="e_0_energy">    -24.02855967 </i>
   </energy>
  </scstep>
  <scstep>
   <time name="diag">    0.50    0.50</time>
   <time name="diis">    1.24    1.24</time>
   <time name="orth">    0.01    0.01</time>
   <time name="total">    3.74    3.75</time>
   <energy>
    <i name="e_fr_energy">    -24.01982011 </i>
    <i name="e_wo_entrp">    -24.04604306 </i>
    <i name="e_0_energy">    -24.02856109 </i>
   </energy>
  </scstep>
  <scstep>
   <time name="diag">    0.50    0.50</time>
   <time name="diis">    1.24    1.24</time>
   <time name="orth">    0.01    0.01</time>
   <time name="total">    3.43    3.44</time>
   <energy>
    <i name="alphaZ">      0.23661740 </i>
    <i name="ewald">    132.30974421 </i>
    <i name="hartreedc">   -287.77262745 </i>
    <i name="XCdc">     24.86227830 </i>
    <i name="pawpsdc">    491.12924697 </i>
    <i name="pawaedc">   -491.92712747 </i>
    <i name="eentropy">      0.02622498 </i>
    <i name="bandstr">    -89.92593207 </i>
    <i name="atom">    197.04175453 </i>
    <i name="e_fr_energy">    -24.01982059 </i>
    <i name="e_wo_entrp">    -24.04604557 </i>
    <i name="e_0_energy">    -24.02856225 </i>
   </energy>
  </scstep>
  <structure>
   <crystal>
    <varray name="basis" >
     <v>       9.84517541       0.00000000       0.00000000 </v>
     <v>       0.02760368      10.21545276       0.00000000 </v>
     <v>      -0.14367976      -0.17285928      10.17975792 </v>
    </varray>
    <i name="volume">   1023.80802285 </i>
    <varray name="rec_basis" >
     <v>       0.10157259      -0.00027446       0.00142896 </v>
     <v>      -0.00000000       0.09789091       0.00166225 </v>
     <v>       0.00000000       0.00000000       0.09823416 </v>
    </varray>
   </crystal>
   <varray name="positions" >
    <v>       0.53875419       0.40681990       0.36097546 </v>
    <v>       0.39456120       0.48117089       0.43817614 </v>
    <v>       0.55251612       0.56129259       0.44067183 </v>
    <v>       0.52653688       0.41854766       0.53574500 </v>
    <v>       0.50345075       0.46723590       0.44566972 </v>
   </varray>
  </structure>
  <varray name="forces" >
   <v>       0.01287352      -0.04476966       1.06164468 </v>
   <v>       0.32211629       0.15121373      -0.15409161 </v>
   <v>       0.73493620       0.58985013       0.09328271 </v>
   <v>       0.24151603      -1.12024735       1.66657258 </v>
   <v>      -0.16465726       0.44585656      -1.24245313 </v>
  </varray>
  <varray name="stress" >
   <v>       0.28739210      -0.31706017       1.75255508 </v>
   <v>      -0.31706017       1.22312347      -1.24763286 </v>
   <v>       1.75255507      -1.24763286       0.16504630 </v>
  </varray>
  <energy>
   <i name="e_fr_energy">    -24.01982059 </i>
   <i name="e_wo_entrp">    -24.02856225 </i>
   <i name="e_0_energy">      0.02622498 </i>
   <i name="kinetic">      0.03911570 </i>
   <i name="lattice kinetic">      0.00000000 </i>
   <i name="nosepot">      0.00019214 </i>
   <i name="nosekinetic">      0.00009970 </i>
   <i name="total">    -23.98041305 </i>
  </energy>
  <dos>
   <i name="efermi">     -9.06491317 </i>
   <total>
    <array>
     <dimension dim="1">gridpoints</dimension>
     <dimension dim="2">spin</dimension>
     <field>energy</field>
     <field>total</field>
     <field>integrated</field>
     <set>
      <set comment="spin 1">
       <r>   -18.9681     0.0000     0.0000 </r>
       <r>   -18.8958     0.0000     0.0000 </r>
       <r>   -18.8236     0.0000     0.0000 </r>
       <r>   -18.7514     0.0000     0.0000 </r>
       <r>   -18.6791     0.0000     0.0000 </r>
       <r>   -18.6069    -0.0000    -0.0000 </r>
       <r>   -18.5346    -0.0000    -0.0000 </r>
       <r>   -18.4624    -0.0000    -0.0000 </r>
       <r>   -18.3901    -0.0000    -0.0000 </r>
       <r>   -18.3179    -0.0000    -0.0000 </r>
       <r>   -18.2456    -0.0000    -0.0000 </r>
       <r>   -18.1734    -0.0000    -0.0000 </r>
       <r>   -18.1012    -0.0000    -0.0000 </r>
       <r>   -18.0289    -0.0000    -0.0000 </r>
       <r>   -17.9567    -0.0000    -0.0000 </r>
       <r>   -17.8844    -0.0000    -0.0000 </r>
       <r>   -17.8122    -0.0000    -0.0000 </r>
       <r>   -17.7399    -0.0000    -0.0000 </r>
       <r>   -17.6677    -0.0001    -0.0000 </r>
       <r>   -17.5954    -0.0011    -0.0001 </r>
       <r>   -17.5232    -0.0074    -0.0006 </r>
       <r>   -17.4510    -0.0380    -0.0034 </r>
       <r>   -17.3787    -0.1391    -0.0134 </r>
       <r>   -17.3065    -0.3375    -0.0378 </r>
       <r>   -17.2342    -0.4171    -0.0679 </r>
       <r>   -17.1620     0.3404    -0.0433 </r>
       <r>   -17.0897     2.7119     0.1526 </r>
       <r>   -17.0175     6.1324     0.5956 </r>
       <r>   -16.9452     8.2522     1.1918 </r>
       <r>   -16.8730     7.2080     1.7125 </r>
       <r>   -16.8008     3.9466     1.9976 </r>
       <r>   -16.7285     1.0110     2.0707 </r>
       <r>   -16.6563    -0.2873     2.0499 </r>
       <r>   -16.5840    -0.4071     2.0205 </r>
       <r>   -16.5118    -0.2035     2.0058 </r>
       <r>   -16.4395    -0.0639     2.0012 </r>
       <r>   -16.3673    -0.0140     2.0002 </r>
       <r>   -16.2950    -0.0022     2.0000 </r>
       <r>   -16.2228    -0.0003     2.0000 </r>
       <r>   -16.1506    -0.0000     2.0000 </r>
       <r>   -16.0783    -0.0000     2.0000 </r>
       <r>   -16.0061    -0.0000     2.0000 </r>
       <r>   -15.9338    -0.0000     2.0000 </r>
       <r>   -15.8616    -0.0000     2.0000 </r>
       <r>   -15.7893    -0.0000     2.0000 </r>
       <r>   -15.7171    -0.0000     2.0000 </r>
       <r>   -15.6448     0.0000     2.0000 </r>
       <r>   -15.5726     0.0000     2.0000 </r>
       <r>   -15.5004     0.0000     2.0000 </r>
       <r>   -15.4281     0.0000     2.0000 </r>
       <r>   -15.3559     0.0000     2.0000 </r>
       <r>   -15.2836     0.0000     2.0000 </r>
       <r>   -15.2114     0.0000     2.0000 </r>
       <r>   -15.1391     0.0000     2.0000 </r>
       <r>   -15.0669     0.0000     2.0000 </r>
       <r>   -14.9946     0.0000     2.0000 </r>
       <r>   -14.9224     0.0000     2.0000 </r>
       <r>   -14.8502     0.0000     2.0000 </r>
       <r>   -14.7779     0.0000     2.0000 </r>
       <r>   -14.7057     0.0000     2.0000 </r>
       <r>   -14.6334     0.0000     2.0000 </r>
       <r>   -14.5612     0.0000     2.0000 </r>
       <r>   -14.4889     0.0000     2.0000 </r>
       <r>   -14.4167     0.0000     2.0000 </r>
       <r>   -14.3444     0.0000     2.0000 </r>
       <r>   -14.2722     0.0000     2.0000 </r>
       <r>   -14.2000     0.0000     2.0000 </r>
       <r>   -14.1277     0.0000     2.0000 </r>
       <r>   -14.0555     0.0000     2.0000 </r>
       <r>   -13.9832     0.0000     2.0000 </r>
       <r>   -13.9110     0.0000     2.0000 </r>
       <r>   -13.8387     0.0000     2.0000 </r>
       <r>   -13.7665     0.0000     2.0000 </r>
       <r>   -13.6942     0.0000     2.0000 </r>
       <r>   -13.6220     0.0000     2.0000 </r>
       <r>   -13.5498     0.0000     2.0000 </r>
       <r>   -13.4775     0.0000     2.0000 </r>
       <r>   -13.4053     0.0000     2.0000 </r>
       <r>   -13.3330     0.0000     2.0000 </r>
       <r>   -13.2608     0.0000     2.0000 </r>
       <r>   -13.1885     0.0000     2.0000 </r>
       <r>   -13.1163     0.0000     2.0000 </r>
       <r>   -13.0440     0.0000     2.0000 </r>
       <r>   -12.9718     0.0000     2.0000 </r>
       <r>   -12.8996     0.0000     2.0000 </r>
       <r>   -12.8273     0.0000     2.0000 </r>
       <r>   -12.7551     0.0000     2.0000 </r>
       <r>   -12.6828     0.0000     2.0000 </r>
       <r>   -12.6106     0.0000     2.0000 </r>
       <r>   -12.5383     0.0000     2.0000 </r>
       <r>   -12.4661     0.0000     2.0000 </r>
       <r>   -12.3938     0.0000     2.0000 </r>
       <r>   -12.3216     0.0000     2.0000 </r>
       <r>   -12.2494     0.0000     2.0000 </r>
       <r>   -12.1771     0.0000     2.0000 </r>
       <r>   -12.1049     0.0000     2.0000 </r>
       <r>   -12.0326     0.0000     2.0000 </r>
       <r>   -11.9604     0.0000     2.0000 </r>
       <r>   -11.8881     0.0000     2.0000 </r>
       <r>   -11.8159     0.0000     2.0000 </r>
       <r>   -11.7436     0.0000     2.0000 </r>
       <r>   -11.6714     0.0000     2.0000 </r>
       <r>   -11.5991     0.0000     2.0000 </r>
       <r>   -11.5269     0.0000     2.0000 </r>
       <r>   -11.4547     0.0000     2.0000 </r>
       <r>   -11.3824     0.0000     2.0000 </r>
       <r>   -11.3102     0.0000     2.0000 </r>
       <r>   -11.2379     0.0000     2.0000 </r>
       <r>   -11.1657    -0.0000     2.0000 </r>
       <r>   -11.0934    -0.0000     2.0000 </r>
       <r>   -11.0212    -0.0000     2.0000 </r>
       <r>   -10.9489    -0.0000     2.0000 </r>
       <r>   -10.8767    -0.0000     2.0000 </r>
       <r>   -10.8045    -0.0000     2.0000 </r>
       <r>   -10.7322    -0.0000     2.0000 </r>
       <r>   -10.6600    -0.0000     2.0000 </r>
       <r>   -10.5877    -0.0000     2.0000 </r>
       <r>   -10.5155    -0.0000     2.0000 </r>
       <r>   -10.4432    -0.0000     2.0000 </r>
       <r>   -10.3710    -0.0000     2.0000 </r>
       <r>   -10.2987    -0.0000     2.0000 </r>
       <r>   -10.2265    -0.0001     2.0000 </r>
       <r>   -10.1543    -0.0008     1.9999 </r>
       <r>   -10.0820    -0.0061     1.9995 </r>
       <r>   -10.0098    -0.0325     1.9971 </r>
       <r>    -9.9375    -0.1238     1.9882 </r>
       <r>    -9.8653    -0.3174     1.9653 </r>
       <r>    -9.7930    -0.4481     1.9329 </r>
       <r>    -9.7208     0.1120     1.9410 </r>
       <r>    -9.6485     2.1021     2.0929 </r>
       <r>    -9.5763     5.1249     2.4631 </r>
       <r>    -9.5041     7.4063     2.9982 </r>
       <r>    -9.4318     8.2678     3.5955 </r>
       <r>    -9.3596     9.7671     4.3011 </r>
       <r>    -9.2873    13.2863     5.2610 </r>
       <r>    -9.2151    15.9228     6.4113 </r>
       <r>    -9.1428    13.8327     7.4106 </r>
       <r>    -9.0706     7.8147     7.9752 </r>
       <r>    -8.9983     2.1910     8.1335 </r>
       <r>    -8.9261    -0.4543     8.1007 </r>
       <r>    -8.8539    -0.7930     8.0434 </r>
       <r>    -8.7816    -0.4220     8.0129 </r>
       <r>    -8.7094    -0.1397     8.0028 </r>
       <r>    -8.6371    -0.0323     8.0004 </r>
       <r>    -8.5649    -0.0055     8.0001 </r>
       <r>    -8.4926    -0.0007     8.0000 </r>
       <r>    -8.4204    -0.0001     8.0000 </r>
       <r>    -8.3481    -0.0000     8.0000 </r>
       <r>    -8.2759    -0.0000     8.0000 </r>
       <r>    -8.2037    -0.0000     8.0000 </r>
       <r>    -8.1314    -0.0000     8.0000 </r>
       <r>    -8.0592    -0.0000     8.0000 </r>
       <r>    -7.9869    -0.0000     8.0000 </r>
       <r>    -7.9147     0.0000     8.0000 </r>
       <r>    -7.8424     0.0000     8.0000 </r>
       <r>    -7.7702     0.0000     8.0000 </r>
       <r>    -7.6979     0.0000     8.0000 </r>
       <r>    -7.6257     0.0000     8.0000 </r>
       <r>    -7.5535     0.0000     8.0000 </r>
       <r>    -7.4812     0.0000     8.0000 </r>
       <r>    -7.4090     0.0000     8.0000 </r>
       <r>    -7.3367     0.0000     8.0000 </r>
       <r>    -7.2645     0.0000     8.0000 </r>
       <r>    -7.1922     0.0000     8.0000 </r>
       <r>    -7.1200     0.0000     8.0000 </r>
       <r>    -7.0477     0.0000     8.0000 </r>
       <r>    -6.9755     0.0000     8.0000 </r>
       <r>    -6.9033     0.0000     8.0000 </r>
       <r>    -6.8310     0.0000     8.0000 </r>
       <r>    -6.7588     0.0000     8.0000 </r>
       <r>    -6.6865     0.0000     8.0000 </r>
       <r>    -6.6143     0.0000     8.0000 </r>
       <r>    -6.5420     0.0000     8.0000 </r>
       <r>    -6.4698     0.0000     8.0000 </r>
       <r>    -6.3975     0.0000     8.0000 </r>
       <r>    -6.3253     0.0000     8.0000 </r>
       <r>    -6.2531     0.0000     8.0000 </r>
       <r>    -6.1808     0.0000     8.0000 </r>
       <r>    -6.1086     0.0000     8.0000 </r>
       <r>    -6.0363     0.0000     8.0000 </r>
       <r>    -5.9641     0.0000     8.0000 </r>
       <r>    -5.8918     0.0000     8.0000 </r>
       <r>    -5.8196     0.0000     8.0000 </r>
       <r>    -5.7473     0.0000     8.0000 </r>
       <r>    -5.6751     0.0000     8.0000 </r>
       <r>    -5.6029     0.0000     8.0000 </r>
       <r>    -5.5306     0.0000     8.0000 </r>
       <r>    -5.4584     0.0000     8.0000 </r>
       <r>    -5.3861     0.0000     8.0000 </r>
       <r>    -5.3139     0.0000     8.0000 </r>
       <r>    -5.2416     0.0000     8.0000 </r>
       <r>    -5.1694     0.0000     8.0000 </r>
       <r>    -5.0971     0.0000     8.0000 </r>
       <r>    -5.0249     0.0000     8.0000 </r>
       <r>    -4.9527     0.0000     8.0000 </r>
       <r>    -4.8804     0.0000     8.0000 </r>
       <r>    -4.8082     0.0000     8.0000 </r>
       <r>    -4.7359     0.0000     8.0000 </r>
       <r>    -4.6637     0.0000     8.0000 </r>
       <r>    -4.5914     0.0000     8.0000 </r>
       <r>    -4.5192     0.0000     8.0000 </r>
       <r>    -4.4469     0.0000     8.0000 </r>
       <r>    -4.3747     0.0000     8.0000 </r>
       <r>    -4.3025     0.0000     8.0000 </r>
       <r>    -4.2302     0.0000     8.0000 </r>
       <r>    -4.1580     0.0000     8.0000 </r>
       <r>    -4.0857     0.0000     8.0000 </r>
       <r>    -4.0135     0.0000     8.0000 </r>
       <r>    -3.9412     0.0000     8.0000 </r>
       <r>    -3.8690     0.0000     8.0000 </r>
       <r>    -3.7967     0.0000     8.0000 </r>
       <r>    -3.7245     0.0000     8.0000 </r>
       <r>    -3.6523     0.0000     8.0000 </r>
       <r>    -3.5800     0.0000     8.0000 </r>
       <r>    -3.5078     0.0000     8.0000 </r>
       <r>    -3.4355     0.0000     8.0000 </r>
       <r>    -3.3633     0.0000     8.0000 </r>
       <r>    -3.2910     0.0000     8.0000 </r>
       <r>    -3.2188     0.0000     8.0000 </r>
       <r>    -3.1465     0.0000     8.0000 </r>
       <r>    -3.0743     0.0000     8.0000 </r>
       <r>    -3.0021     0.0000     8.0000 </r>
       <r>    -2.9298     0.0000     8.0000 </r>
       <r>    -2.8576     0.0000     8.0000 </r>
       <r>    -2.7853     0.0000     8.0000 </r>
       <r>    -2.7131     0.0000     8.0000 </r>
       <r>    -2.6408     0.0000     8.0000 </r>
       <r>    -2.5686     0.0000     8.0000 </r>
       <r>    -2.4963     0.0000     8.0000 </r>
       <r>    -2.4241     0.0000     8.0000 </r>
       <r>    -2.3519     0.0000     8.0000 </r>
       <r>    -2.2796     0.0000     8.0000 </r>
       <r>    -2.2074     0.0000     8.0000 </r>
       <r>    -2.1351     0.0000     8.0000 </r>
       <r>    -2.0629     0.0000     8.0000 </r>
       <r>    -1.9906     0.0000     8.0000 </r>
       <r>    -1.9184    -0.0000     8.0000 </r>
       <r>    -1.8461    -0.0000     8.0000 </r>
       <r>    -1.7739    -0.0000     8.0000 </r>
       <r>    -1.7017    -0.0000     8.0000 </r>
       <r>    -1.6294    -0.0000     8.0000 </r>
       <r>    -1.5572    -0.0000     8.0000 </r>
       <r>    -1.4849    -0.0000     8.0000 </r>
       <r>    -1.4127    -0.0000     8.0000 </r>
       <r>    -1.3404    -0.0000     8.0000 </r>
       <r>    -1.2682    -0.0000     8.0000 </r>
       <r>    -1.1959    -0.0000     8.0000 </r>
       <r>    -1.1237    -0.0000     8.0000 </r>
       <r>    -1.0515    -0.0000     8.0000 </r>
       <r>    -0.9792    -0.0002     8.0000 </r>
       <r>    -0.9070    -0.0020     7.9998 </r>
       <r>    -0.8347    -0.0126     7.9989 </r>
       <r>    -0.7625    -0.0588     7.9947 </r>
       <r>    -0.6902    -0.1917     7.9808 </r>
       <r>    -0.6180    -0.3971     7.9521 </r>
       <r>    -0.5457    -0.3185     7.9291 </r>
       <r>    -0.4735     0.8823     7.9929 </r>
       <r>    -0.4013     3.7323     8.2625 </r>
       <r>    -0.3290     7.0454     8.7715 </r>
       <r>    -0.2568     8.2837     9.3700 </r>
       <r>    -0.1845     6.3286     9.8272 </r>
       <r>    -0.1123     2.9100    10.0374 </r>
       <r>    -0.0400     0.4340    10.0687 </r>
       <r>     0.0322    -0.4211    10.0383 </r>
       <r>     0.1045    -0.4296    10.0073 </r>
       <r>     0.1767    -0.4150     9.9773 </r>
       <r>     0.2489    -0.6530     9.9301 </r>
       <r>     0.3212    -0.7864     9.8733 </r>
       <r>     0.3934     0.3189     9.8963 </r>
       <r>     0.4657     4.1526    10.1963 </r>
       <r>     0.5379    10.9678    10.9887 </r>
       <r>     0.6102    18.2231    12.3052 </r>
       <r>     0.6824    21.4699    13.8563 </r>
       <r>     0.7547    18.1270    15.1659 </r>
       <r>     0.8269    10.4079    15.9178 </r>
       <r>     0.8991     3.2770    16.1545 </r>
       <r>     0.9714    -0.3160    16.1317 </r>
       <r>     1.0436    -0.9760    16.0612 </r>
       <r>     1.1159    -0.5780    16.0195 </r>
       <r>     1.1881    -0.2071    16.0045 </r>
       <r>     1.2604    -0.0515    16.0008 </r>
       <r>     1.3326    -0.0093    16.0001 </r>
       <r>     1.4049    -0.0012    16.0000 </r>
       <r>     1.4771    -0.0001    16.0000 </r>
       <r>     1.5493    -0.0000    16.0000 </r>
       <r>     1.6216    -0.0000    16.0000 </r>
       <r>     1.6938    -0.0000    16.0000 </r>
       <r>     1.7661    -0.0000    16.0000 </r>
       <r>     1.8383    -0.0000    16.0000 </r>
       <r>     1.9106    -0.0000    16.0000 </r>
       <r>     1.9828    -0.0000    16.0000 </r>
       <r>     2.0551     0.0000    16.0000 </r>
       <r>     2.1273     0.0000    16.0000 </r>
       <r>     2.1995     0.0000    16.0000 </r>
       <r>     2.2718     0.0000    16.0000 </r>
       <r>     2.3440     0.0000    16.0000 </r>
       <r>     2.4163     0.0000    16.0000 </r>
       <r>     2.4885     0.0000    16.0000 </r>
       <r>     2.5608     0.0000    16.0000 </r>
       <r>     2.6330     0.0000    16.0000 </r>
       <r>     2.7053     0.0000    16.0000 </r>
      </set>
     </set>
    </array>
   </total>
  </dos>
  <time name="totalsc">   63.34   63.50</time>
 </calculation>
 <calculation>
  <scstep>
   <time name="dav">    2.18    2.19</time>
   <time name="total">    4.12    4.13</time>
   <energy>
    <i name="alphaZ">      0.23661740 </i>
    <i name="ewald">    133.44390028 </i>
    <i name="hartreedc">   -288.74542654 </i>
    <i name="XCdc">     24.91318532 </i>
    <i name="pawpsdc">    498.13099639 </i>
    <i name="pawaedc">   -498.93276144 </i>
    <i name="eentropy">      0.01461227 </i>
    <i name="bandstr">    -90.11040477 </i>
    <i name="atom">    197.04175453 </i>
    <i name="e_fr_energy">    -24.00752656 </i>
    <i name="e_wo_entrp">    -24.02213883 </i>
    <i name="e_0_energy">    -24.01239732 </i>
   </energy>
  </scstep>
  <scstep>
   <time name="diag">    0.50    0.50</time>
   <time name="diis">    1.62    1.62</time>
   <time name="orth">    0.01    0.01</time>
   <time name="total">    3.95    3.96</time>
   <energy>
    <i name="e_fr_energy">    -24.04549253 </i>
    <i name="e_wo_entrp">    -24.05868476 </i>
    <i name="e_0_energy">    -24.04988994 </i>
   </energy>
  </scstep>
  <scstep>
   <time name="diag">    0.48    0.49</time>
   <time name="diis">    1.59    1.59</time>
   <time name="orth">    0.01    0.01</time>
   <time name="total">    3.95    3.96</time>
   <energy>
    <i name="e_fr_energy">    -24.01262940 </i>
    <i name="e_wo_entrp">    -24.02722760 </i>
    <i name="e_0_energy">    -24.01749547 </i>
   </energy>
  </scstep>
  <scstep>
   <time name="diag">    0.49    0.49</time>
   <time name="diis">    1.59    1.59</time>
   <time name="orth">    0.01    0.01</time>
   <time name="total">    3.95    3.96</time>
   <energy>
    <i name="e_fr_energy">    -24.00874238 </i>
    <i name="e_wo_entrp">    -24.02417689 </i>
    <i name="e_0_energy">    -24.01388722 </i>
   </energy>
  </scstep>
  <scstep>
   <time name="diag">    0.49    0.49</time>
   <time name="diis">    1.62    1.62</time>
   <time name="orth">    0.01    0.01</time>
   <time name="total">    4.00    4.01</time>
   <energy>
    <i name="e_fr_energy">    -24.00756371 </i>
    <i name="e_wo_entrp">    -24.02308133 </i>
    <i name="e_0_energy">    -24.01273625 </i>
   </energy>
  </scstep>
  <scstep>
   <time name="diag">    0.50    0.50</time>
   <time name="diis">    1.67    1.67</time>
   <time name="orth">    0.01    0.01</time>
   <time name="total">    4.04    4.05</time>
   <energy>
    <i name="e_fr_energy">    -24.00578817 </i>
    <i name="e_wo_entrp">    -24.02131396 </i>
    <i name="e_0_energy">    -24.01096343 </i>
   </energy>
  </scstep>
  <scstep>
   <time name="diag">    0.50    0.50</time>
   <time name="diis">    1.65    1.66</time>
   <time name="orth">    0.01    0.01</time>
   <time name="total">    4.02    4.03</time>
   <energy>
    <i name="e_fr_energy">    -24.00589205 </i>
    <i name="e_wo_entrp">    -24.02146726 </i>
    <i name="e_0_energy">    -24.01108379 </i>
   </energy>
  </scstep>
  <scstep>
   <time name="diag">    0.49    0.49</time>
   <time name="diis">    1.61    1.62</time>
   <time name="orth">    0.01    0.01</time>
   <time name="total">    4.03    4.04</time>
   <energy>
    <i name="e_fr_energy">    -24.00576638 </i>
    <i name="e_wo_entrp">    -24.02127387 </i>
    <i name="e_0_energy">    -24.01093554 </i>
   </energy>
  </scstep>
  <scstep>
   <time name="diag">    0.48    0.48</time>
   <time name="diis">    1.58    1.59</time>
   <time name="orth">    0.01    0.01</time>
   <time name="total">    4.00    4.01</time>
   <energy>
    <i name="e_fr_energy">    -24.00577280 </i>
    <i name="e_wo_entrp">    -24.02119798 </i>
    <i name="e_0_energy">    -24.01091453 </i>
   </energy>
  </scstep>
  <scstep>
   <time name="diag">    0.48    0.48</time>
   <time name="diis">    1.61    1.62</time>
   <time name="orth">    0.01    0.01</time>
   <time name="total">    4.08    4.09</time>
   <energy>
    <i name="e_fr_energy">    -24.00579229 </i>
    <i name="e_wo_entrp">    -24.02110880 </i>
    <i name="e_0_energy">    -24.01089780 </i>
   </energy>
  </scstep>
  <scstep>
   <time name="diag">    0.49    0.49</time>
   <time name="diis">    1.65    1.66</time>
   <time name="orth">    0.01    0.01</time>
   <time name="total">    4.12    4.13</time>
   <energy>
    <i name="e_fr_energy">    -24.00579815 </i>
    <i name="e_wo_entrp">    -24.02109947 </i>
    <i name="e_0_energy">    -24.01089859 </i>
   </energy>
  </scstep>
  <scstep>
   <time name="diag">    0.49    0.49</time>
   <time name="diis">    1.31    1.32</time>
   <time name="orth">    0.01    0.01</time>
   <time name="total">    3.83    3.84</time>
   <energy>
    <i name="e_fr_energy">    -24.00580322 </i>
    <i name="e_wo_entrp">    -24.02111059 </i>
    <i name="e_0_energy">    -24.01090567 </i>
   </energy>
  </scstep>
  <scstep>
   <time name="diag">    0.51    0.51</time>
   <time name="diis">    1.29    1.30</time>
   <time name="orth">    0.01    0.01</time>
   <time name="total">    3.84    3.85</time>
   <energy>
    <i name="e_fr_energy">    -24.00580681 </i>
    <i name="e_wo_entrp">    -24.02111415 </i>
    <i name="e_0_energy">    -24.01090926 </i>
   </energy>
  </scstep>
  <scstep>
   <time name="diag">    0.50    0.50</time>
   <time name="diis">    1.25    1.26</time>
   <time name="orth">    0.01    0.01</time>
   <time name="total">    3.82    3.83</time>
   <energy>
    <i name="e_fr_energy">    -24.00580871 </i>
    <i name="e_wo_entrp">    -24.02111769 </i>
    <i name="e_0_energy">    -24.01091170 </i>
   </energy>
  </scstep>
  <scstep>
   <time name="diag">    0.47    0.47</time>
   <time name="diis">    1.23    1.24</time>
   <time name="orth">    0.01    0.01</time>
   <time name="total">    3.41    3.42</time>
   <energy>
    <i name="alphaZ">      0.23661740 </i>
    <i name="ewald">    133.44390028 </i>
    <i name="hartreedc">   -288.73375312 </i>
    <i name="XCdc">     24.91268080 </i>
    <i name="pawpsdc">    494.05490562 </i>
    <i name="pawaedc">   -494.85629267 </i>
    <i name="eentropy">      0.01531042 </i>
    <i name="bandstr">    -90.12093252 </i>
    <i name="atom">    197.04175453 </i>
    <i name="e_fr_energy">    -24.00580926 </i>
    <i name="e_wo_entrp">    -24.02111968 </i>
    <i name="e_0_energy">    -24.01091273 </i>
   </energy>
  </scstep>
  <structure>
   <crystal>
    <varray name="basis" >
     <v>       9.84517541       0.00000000       0.00000000 </v>
     <v>       0.02760368      10.21545276       0.00000000 </v>
     <v>      -0.14367976      -0.17285928      10.17975792 </v>
    </varray>
    <i name="volume">   1023.80802285 </i>
    <varray name="rec_basis" >
     <v>       0.10157259      -0.00027446       0.00142896 </v>
     <v>      -0.00000000       0.09789091       0.00166225 </v>
     <v>       0.00000000       0.00000000       0.09823416 </v>
    </varray>
   </crystal>
   <varray name="positions" >
    <v>       0.53929995       0.40703086       0.36567256 </v>
    <v>       0.39602830       0.48288377       0.43688763 </v>
    <v>       0.55523775       0.55968585       0.43898552 </v>
    <v>       0.52478113       0.41661022       0.53831729 </v>
    <v>       0.50320275       0.46737080       0.44531217 </v>
   </varray>
  </structure>
  <varray name="forces" >
   <v>      -0.03468732      -0.91596051      -0.37693940 </v>
   <v>      -1.17149401       0.41619819      -0.35393656 </v>
   <v>       0.69535272       0.44522542       0.29038283 </v>
   <v>       0.16539777      -0.14660858       0.37480928 </v>
   <v>       0.60582406       0.45946947       0.55155556 </v>
  </varray>
  <varray name="stress" >
   <v>       1.82317620      -0.96580529       0.83552930 </v>
   <v>      -0.96580529       0.97276785       0.73339131 </v>
   <v>       0.83552930       0.73339132       0.94500428 </v>
  </varray>
  <energy>
   <i name="e_fr_energy">    -24.00580926 </i>
   <i name="e_wo_entrp">    -24.01091273 </i>
   <i name="e_0_energy">      0.01531042 </i>
   <i name="kinetic">      0.08716633 </i>
   <i name="lattice kinetic">      0.00000000 </i>
   <i name="nosepot">      0.00071103 </i>
   <i name="nosekinetic">      0.00130197 </i>
   <i name="total">    -23.91662994 </i>
  </energy>
  <dos>
   <i name="efermi">     -8.96804987 </i>
   <total>
    <array>
     <dimension dim="1">gridpoints</dimension>
     <dimension dim="2">spin</dimension>
     <field>energy</field>
     <field>total</field>
     <field>integrated</field>
     <set>
      <set comment="spin 1">
       <r>   -19.0099     0.0000     0.0000 </r>
       <r>   -18.9375     0.0000     0.0000 </r>
       <r>   -18.8651     0.0000     0.0000 </r>
       <r>   -18.7927     0.0000     0.0000 </r>
       <r>   -18.7203     0.0000     0.0000 </r>
       <r>   -18.6479    -0.0000    -0.0000 </r>
       <r>   -18.5755    -0.0000    -0.0000 </r>
       <r>   -18.5031    -0.0000    -0.0000 </r>
       <r>   -18.4307    -0.0000    -0.0000 </r>
       <r>   -18.3584    -0.0000    -0.0000 </r>
       <r>   -18.2860    -0.0000    -0.0000 </r>
       <r>   -18.2136    -0.0000    -0.0000 </r>
       <r>   -18.1412    -0.0000    -0.0000 </r>
       <r>   -18.0688    -0.0000    -0.0000 </r>
       <r>   -17.9964    -0.0000    -0.0000 </r>
       <r>   -17.9240    -0.0000    -0.0000 </r>
       <r>   -17.8516    -0.0000    -0.0000 </r>
       <r>   -17.7792    -0.0000    -0.0000 </r>
       <r>   -17.7069    -0.0001    -0.0000 </r>
       <r>   -17.6345    -0.0011    -0.0001 </r>
       <r>   -17.5621    -0.0079    -0.0007 </r>
       <r>   -17.4897    -0.0404    -0.0036 </r>
       <r>   -17.4173    -0.1458    -0.0141 </r>
       <r>   -17.3449    -0.3470    -0.0393 </r>
       <r>   -17.2725    -0.4076    -0.0688 </r>
       <r>   -17.2001     0.4160    -0.0387 </r>
       <r>   -17.1277     2.8754     0.1695 </r>
       <r>   -17.0554     6.3016     0.6257 </r>
       <r>   -16.9830     8.2817     1.2252 </r>
       <r>   -16.9106     7.0587     1.7361 </r>
       <r>   -16.8382     3.7415     2.0070 </r>
       <r>   -16.7658     0.8833     2.0709 </r>
       <r>   -16.6934    -0.3194     2.0478 </r>
       <r>   -16.6210    -0.3966     2.0191 </r>
       <r>   -16.5486    -0.1907     2.0053 </r>
       <r>   -16.4762    -0.0582     2.0011 </r>
       <r>   -16.4039    -0.0124     2.0002 </r>
       <r>   -16.3315    -0.0019     2.0000 </r>
       <r>   -16.2591    -0.0002     2.0000 </r>
       <r>   -16.1867    -0.0000     2.0000 </r>
       <r>   -16.1143    -0.0000     2.0000 </r>
       <r>   -16.0419    -0.0000     2.0000 </r>
       <r>   -15.9695    -0.0000     2.0000 </r>
       <r>   -15.8971    -0.0000     2.0000 </r>
       <r>   -15.8247    -0.0000     2.0000 </r>
       <r>   -15.7524    -0.0000     2.0000 </r>
       <r>   -15.6800     0.0000     2.0000 </r>
       <r>   -15.6076     0.0000     2.0000 </r>
       <r>   -15.5352     0.0000     2.0000 </r>
       <r>   -15.4628     0.0000     2.0000 </r>
       <r>   -15.3904     0.0000     2.0000 </r>
       <r>   -15.3180     0.0000     2.0000 </r>
       <r>   -15.2456     0.0000     2.0000 </r>
       <r>   -15.1732     0.0000     2.0000 </r>
       <r>   -15.1009     0.0000     2.0000 </r>
       <r>   -15.0285     0.0000     2.0000 </r>
       <r>   -14.9561     0.0000     2.0000 </r>
       <r>   -14.8837     0.0000     2.0000 </r>
       <r>   -14.8113     0.0000     2.0000 </r>
       <r>   -14.7389     0.0000     2.0000 </r>
       <r>   -14.6665     0.0000     2.0000 </r>
       <r>   -14.5941     0.0000     2.0000 </r>
       <r>   -14.5218     0.0000     2.0000 </r>
       <r>   -14.4494     0.0000     2.0000 </r>
       <r>   -14.3770     0.0000     2.0000 </r>
       <r>   -14.3046     0.0000     2.0000 </r>
       <r>   -14.2322     0.0000     2.0000 </r>
       <r>   -14.1598     0.0000     2.0000 </r>
       <r>   -14.0874     0.0000     2.0000 </r>
       <r>   -14.0150     0.0000     2.0000 </r>
       <r>   -13.9426     0.0000     2.0000 </r>
       <r>   -13.8703     0.0000     2.0000 </r>
       <r>   -13.7979     0.0000     2.0000 </r>
       <r>   -13.7255     0.0000     2.0000 </r>
       <r>   -13.6531     0.0000     2.0000 </r>
       <r>   -13.5807     0.0000     2.0000 </r>
       <r>   -13.5083     0.0000     2.0000 </r>
       <r>   -13.4359     0.0000     2.0000 </r>
       <r>   -13.3635     0.0000     2.0000 </r>
       <r>   -13.2911     0.0000     2.0000 </r>
       <r>   -13.2188     0.0000     2.0000 </r>
       <r>   -13.1464     0.0000     2.0000 </r>
       <r>   -13.0740     0.0000     2.0000 </r>
[...]
       <r>     0.2554    -0.6932     9.9194 </r>
       <r>     0.3273    -0.7039     9.8689 </r>
       <r>     0.3991     0.7746     9.9245 </r>
       <r>     0.4709     5.0977    10.2907 </r>
       <r>     0.5428    12.1217    11.1614 </r>
       <r>     0.6146    18.9677    12.5239 </r>
       <r>     0.6864    21.3279    14.0560 </r>
       <r>     0.7583    17.2320    15.2938 </r>
       <r>     0.8301     9.3929    15.9685 </r>
       <r>     0.9019     2.6596    16.1595 </r>
       <r>     0.9738    -0.4978    16.1238 </r>
       <r>     1.0456    -0.9544    16.0552 </r>
       <r>     1.1174    -0.5311    16.0171 </r>
       <r>     1.1892    -0.1840    16.0039 </r>
       <r>     1.2611    -0.0447    16.0007 </r>
       <r>     1.3329    -0.0079    16.0001 </r>
       <r>     1.4047    -0.0010    16.0000 </r>
       <r>     1.4766    -0.0001    16.0000 </r>
       <r>     1.5484    -0.0000    16.0000 </r>
       <r>     1.6202    -0.0000    16.0000 </r>
       <r>     1.6921    -0.0000    16.0000 </r>
       <r>     1.7639    -0.0000    16.0000 </r>
       <r>     1.8357    -0.0000    16.0000 </r>
       <r>     1.9076    -0.0000    16.0000 </r>
       <r>     1.9794    -0.0000    16.0000 </r>
       <r>     2.0512     0.0000    16.0000 </r>
       <r>     2.1231     0.0000    16.0000 </r>
       <r>     2.1949     0.0000    16.0000 </r>
       <r>     2.2667     0.0000    16.0000 </r>
       <r>     2.3386     0.0000    16.0000 </r>
       <r>     2.4104     0.0000    16.0000 </r>
       <r>     2.4822     0.0000    16.0000 </r>
       <r>     2.5541     0.0000    16.0000 </r>
       <r>     2.6259     0.0000    16.0000 </r>
       <r>     2.6977     0.0000    16.0000 </r>
      </set>
     </set>
    </array>
   </total>
  </dos>
  <time name="totalsc">   71.93   72.36</time>
  <eigenvalues>
   <array>
    <dimension dim="1">band</dimension>
    <dimension dim="2">kpoint</dimension>
    <dimension dim="3">spin</dimension>
    <field>eigene</field>
    <field>occ</field>
    <set>
     <set comment="spin 1">
      <set comment="kpoint 1">
       <r>  -16.9470    1.0000 </r>
       <r>   -9.5256    1.0001 </r>
       <r>   -9.3039    1.0124 </r>
       <r>   -9.0907    0.9875 </r>
       <r>   -0.3002    0.0000 </r>
       <r>    0.5478    0.0000 </r>
       <r>    0.6667    0.0000 </r>
       <r>    0.6887    0.0000 </r>
      </set>
      <set comment="kpoint 2">
       <r>  -16.9470    1.0000 </r>
       <r>   -9.5256    1.0001 </r>
       <r>   -9.3040    1.0124 </r>
       <r>   -9.0908    0.9875 </r>
       <r>   -0.3025    0.0000 </r>
       <r>    0.5506    0.0000 </r>
       <r>    0.6636    0.0000 </r>
       <r>    0.6986    0.0000 </r>
      </set>
      <set comment="kpoint 3">
       <r>  -16.9470    1.0000 </r>
       <r>   -9.5256    1.0001 </r>
       <r>   -9.3040    1.0123 </r>
       <r>   -9.0908    0.9875 </r>
       <r>   -0.3027    0.0000 </r>
       <r>    0.5551    0.0000 </r>
       <r>    0.6628    0.0000 </r>
       <r>    0.7000    0.0000 </r>
      </set>
      <set comment="kpoint 4">
       <r>  -16.9469    1.0000 </r>
       <r>   -9.5256    1.0001 </r>
       <r>   -9.3040    1.0124 </r>
       <r>   -9.0908    0.9875 </r>
       <r>   -0.3063    0.0000 </r>
       <r>    0.5674    0.0000 </r>
       <r>    0.6746    0.0000 </r>
       <r>    0.6979    0.0000 </r>
      </set>
     </set>
    </set>
   </array>
  </eigenvalues>
  <separator name="orbital magnetization" >
   <v name="MAGDIPOLOUT">      0.00000000      0.00000000      0.00000000</v>
  </separator>
  <dos>
   <i name="efermi">     -8.93269965 </i>
   <total>
    <array>
     <dimension dim="1">gridpoints</dimension>
     <dimension dim="2">spin</dimension>
     <field>energy</field>
     <field>total</field>
     <field>integrated</field>
     <set>
      <set comment="spin 1">
       <r>   -18.9470     0.0000     0.0000 </r>
       <r>   -18.8749     0.0000     0.0000 </r>
       <r>   -18.8027     0.0000     0.0000 </r>
       <r>   -18.7305     0.0000     0.0000 </r>
       <r>   -18.6584     0.0000     0.0000 </r>
       <r>   -18.5862    -0.0000    -0.0000 </r>
       <r>   -18.5141    -0.0000    -0.0000 </r>
       <r>   -18.4419    -0.0000    -0.0000 </r>
       <r>   -18.3698    -0.0000    -0.0000 </r>
       <r>   -18.2976    -0.0000    -0.0000 </r>
       <r>   -18.2254    -0.0000    -0.0000 </r>
       <r>   -18.1533    -0.0000    -0.0000 </r>
       <r>   -18.0811    -0.0000    -0.0000 </r>
       <r>   -18.0090    -0.0000    -0.0000 </r>
       <r>   -17.9368    -0.0000    -0.0000 </r>
       <r>   -17.8647    -0.0000    -0.0000 </r>
       <r>   -17.7925    -0.0000    -0.0000 </r>
       <r>   -17.7203    -0.0000    -0.0000 </r>
       <r>   -17.6482    -0.0001    -0.0000 </r>
       <r>   -17.5760    -0.0010    -0.0001 </r>
       <r>   -17.5039    -0.0071    -0.0006 </r>
       <r>   -17.4317    -0.0366    -0.0032 </r>
       <r>   -17.3596    -0.1351    -0.0130 </r>
       <r>   -17.2874    -0.3316    -0.0369 </r>
       <r>   -17.2152    -0.4220    -0.0674 </r>
       <r>   -17.1431     0.2963    -0.0460 </r>
       <r>   -17.0709     2.6138     0.1426 </r>
       <r>   -16.9988     6.0273     0.5775 </r>
       <r>   -16.9266     8.2290     1.1713 </r>
       <r>   -16.8545     7.2953     1.6977 </r>
       <r>   -16.7823     4.0724     1.9916 </r>
       <r>   -16.7101     1.0922     2.0704 </r>
       <r>   -16.6380    -0.2655     2.0512 </r>
       <r>   -16.5658    -0.4130     2.0214 </r>
       <r>   -16.4937    -0.2115     2.0062 </r>
       <r>   -16.4215    -0.0676     2.0013 </r>
       <r>   -16.3494    -0.0151     2.0002 </r>
       <r>   -16.2772    -0.0024     2.0000 </r>
       <r>   -16.2051    -0.0003     2.0000 </r>
       <r>   -16.1329    -0.0000     2.0000 </r>
       <r>   -16.0607    -0.0000     2.0000 </r>
       <r>   -15.9886    -0.0000     2.0000 </r>
       <r>   -15.9164    -0.0000     2.0000 </r>
       <r>   -15.8443    -0.0000     2.0000 </r>
       <r>   -15.7721    -0.0000     2.0000 </r>
       <r>   -15.7000    -0.0000     2.0000 </r>
       <r>   -15.6278     0.0000     2.0000 </r>
       <r>   -15.5556     0.0000     2.0000 </r>
       <r>   -15.4835     0.0000     2.0000 </r>
       <r>   -15.4113     0.0000     2.0000 </r>
       <r>   -15.3392     0.0000     2.0000 </r>
       <r>   -15.2670     0.0000     2.0000 </r>
       <r>   -15.1949     0.0000     2.0000 </r>
       <r>   -15.1227     0.0000     2.0000 </r>
       <r>   -15.0505     0.0000     2.0000 </r>
       <r>   -14.9784     0.0000     2.0000 </r>
       <r>   -14.9062     0.0000     2.0000 </r>
       <r>   -14.8341     0.0000     2.0000 </r>
       <r>   -14.7619     0.0000     2.0000 </r>
       <r>   -14.6898     0.0000     2.0000 </r>
       <r>   -14.6176     0.0000     2.0000 </r>
       <r>   -14.5454     0.0000     2.0000 </r>
       <r>   -14.4733     0.0000     2.0000 </r>
       <r>   -14.4011     0.0000     2.0000 </r>
       <r>   -14.3290     0.0000     2.0000 </r>
       <r>   -14.2568     0.0000     2.0000 </r>
       <r>   -14.1847     0.0000     2.0000 </r>
       <r>   -14.1125     0.0000     2.0000 </r>
       <r>   -14.0403     0.0000     2.0000 </r>
       <r>   -13.9682     0.0000     2.0000 </r>
       <r>   -13.8960     0.0000     2.0000 </r>
       <r>   -13.8239     0.0000     2.0000 </r>
       <r>   -13.7517     0.0000     2.0000 </r>
       <r>   -13.6796     0.0000     2.0000 </r>
       <r>   -13.6074     0.0000     2.0000 </r>
       <r>   -13.5352     0.0000     2.0000 </r>
       <r>   -13.4631     0.0000     2.0000 </r>
       <r>   -13.3909     0.0000     2.0000 </r>
       <r>   -13.3188     0.0000     2.0000 </r>
       <r>   -13.2466     0.0000     2.0000 </r>
       <r>   -13.1745     0.0000     2.0000 </r>
       <r>   -13.1023     0.0000     2.0000 </r>
       <r>   -13.0302     0.0000     2.0000 </r>
       <r>   -12.9580     0.0000     2.0000 </r>
       <r>   -12.8858     0.0000     2.0000 </r>
       <r>   -12.8137     0.0000     2.0000 </r>
       <r>   -12.7415     0.0000     2.0000 </r>
       <r>   -12.6694     0.0000     2.0000 </r>
       <r>   -12.5972     0.0000     2.0000 </r>
       <r>   -12.5251     0.0000     2.0000 </r>
       <r>   -12.4529     0.0000     2.0000 </r>
       <r>   -12.3807     0.0000     2.0000 </r>
       <r>   -12.3086     0.0000     2.0000 </r>
       <r>   -12.2364     0.0000     2.0000 </r>
       <r>   -12.1643     0.0000     2.0000 </r>
       <r>   -12.0921     0.0000     2.0000 </r>
       <r>   -12.0200     0.0000     2.0000 </r>
       <r>   -11.9478     0.0000     2.0000 </r>
       <r>   -11.8756     0.0000     2.0000 </r>
       <r>   -11.8035     0.0000     2.0000 </r>
       <r>   -11.7313     0.0000     2.0000 </r>
       <r>   -11.6592     0.0000     2.0000 </r>
       <r>   -11.5870     0.0000     2.0000 </r>
       <r>   -11.5149     0.0000     2.0000 </r>
       <r>   -11.4427     0.0000     2.0000 </r>
       <r>   -11.3705     0.0000     2.0000 </r>
       <r>   -11.2984     0.0000     2.0000 </r>
       <r>   -11.2262     0.0000     2.0000 </r>
       <r>   -11.1541    -0.0000     2.0000 </r>
       <r>   -11.0819    -0.0000     2.0000 </r>
       <r>   -11.0098    -0.0000     2.0000 </r>
       <r>   -10.9376    -0.0000     2.0000 </r>
       <r>   -10.8654    -0.0000     2.0000 </r>
       <r>   -10.7933    -0.0000     2.0000 </r>
       <r>   -10.7211    -0.0000     2.0000 </r>
       <r>   -10.6490    -0.0000     2.0000 </r>
       <r>   -10.5768    -0.0000     2.0000 </r>
       <r>   -10.5047    -0.0000     2.0000 </r>
       <r>   -10.4325    -0.0000     2.0000 </r>
       <r>   -10.3603    -0.0000     2.0000 </r>
       <r>   -10.2882    -0.0000     2.0000 </r>
       <r>   -10.2160    -0.0002     2.0000 </r>
       <r>   -10.1439    -0.0014     1.9999 </r>
       <r>   -10.0717    -0.0092     1.9992 </r>
       <r>    -9.9996    -0.0456     1.9959 </r>
       <r>    -9.9274    -0.1601     1.9844 </r>
       <r>    -9.8552    -0.3709     1.9576 </r>
       <r>    -9.7831    -0.4306     1.9265 </r>
       <r>    -9.7109     0.3824     1.9541 </r>
       <r>    -9.6388     2.7370     2.1516 </r>
       <r>    -9.5666     6.0492     2.5881 </r>
       <r>    -9.4945     8.5628     3.2060 </r>
       <r>    -9.4223     9.4055     3.8847 </r>
       <r>    -9.3502     9.4363     4.5655 </r>
       <r>    -9.2780     9.5452     5.2543 </r>
       <r>    -9.2058     9.7630     5.9588 </r>
       <r>    -9.1337     9.8317     6.6682 </r>
       <r>    -9.0615     9.0381     7.3204 </r>
       <r>    -8.9894     6.6115     7.7974 </r>
       <r>    -8.9172     3.2322     8.0306 </r>
       <r>    -8.8451     0.6347     8.0764 </r>
       <r>    -8.7729    -0.3908     8.0482 </r>
       <r>    -8.7007    -0.4068     8.0189 </r>
       <r>    -8.6286    -0.1899     8.0052 </r>
       <r>    -8.5564    -0.0575     8.0010 </r>
       <r>    -8.4843    -0.0123     8.0002 </r>
       <r>    -8.4121    -0.0019     8.0000 </r>
       <r>    -8.3400    -0.0002     8.0000 </r>
       <r>    -8.2678    -0.0000     8.0000 </r>
       <r>    -8.1956    -0.0000     8.0000 </r>
       <r>    -8.1235    -0.0000     8.0000 </r>
       <r>    -8.0513    -0.0000     8.0000 </r>
       <r>    -7.9792    -0.0000     8.0000 </r>
       <r>    -7.9070    -0.0000     8.0000 </r>
       <r>    -7.8349    -0.0000     8.0000 </r>
       <r>    -7.7627     0.0000     8.0000 </r>
       <r>    -7.6905     0.0000     8.0000 </r>
       <r>    -7.6184     0.0000     8.0000 </r>
       <r>    -7.5462     0.0000     8.0000 </r>
       <r>    -7.4741     0.0000     8.0000 </r>
       <r>    -7.4019     0.0000     8.0000 </r>
       <r>    -7.3298     0.0000     8.0000 </r>
       <r>    -7.2576     0.0000     8.0000 </r>
       <r>    -7.1854     0.0000     8.0000 </r>
       <r>    -7.1133     0.0000     8.0000 </r>
       <r>    -7.0411     0.0000     8.0000 </r>
       <r>    -6.9690     0.0000     8.0000 </r>
       <r>    -6.8968     0.0000     8.0000 </r>
       <r>    -6.8247     0.0000     8.0000 </r>
       <r>    -6.7525     0.0000     8.0000 </r>
       <r>    -6.6803     0.0000     8.0000 </r>
       <r>    -6.6082     0.0000     8.0000 </r>
       <r>    -6.5360     0.0000     8.0000 </r>
       <r>    -6.4639     0.0000     8.0000 </r>
       <r>    -6.3917     0.0000     8.0000 </r>
       <r>    -6.3196     0.0000     8.0000 </r>
       <r>    -6.2474     0.0000     8.0000 </r>
       <r>    -6.1753     0.0000     8.0000 </r>
       <r>    -6.1031     0.0000     8.0000 </r>
       <r>    -6.0309     0.0000     8.0000 </r>
       <r>    -5.9588     0.0000     8.0000 </r>
       <r>    -5.8866     0.0000     8.0000 </r>
       <r>    -5.8145     0.0000     8.0000 </r>
       <r>    -5.7423     0.0000     8.0000 </r>
       <r>    -5.6702     0.0000     8.0000 </r>
       <r>    -5.5980     0.0000     8.0000 </r>
       <r>    -5.5258     0.0000     8.0000 </r>
       <r>    -5.4537     0.0000     8.0000 </r>
       <r>    -5.3815     0.0000     8.0000 </r>
       <r>    -5.3094     0.0000     8.0000 </r>
       <r>    -5.2372     0.0000     8.0000 </r>
       <r>    -5.1651     0.0000     8.0000 </r>
       <r>    -5.0929     0.0000     8.0000 </r>
       <r>    -5.0207     0.0000     8.0000 </r>
       <r>    -4.9486     0.0000     8.0000 </r>
       <r>    -4.8764     0.0000     8.0000 </r>
       <r>    -4.8043     0.0000     8.0000 </r>
       <r>    -4.7321     0.0000     8.0000 </r>
       <r>    -4.6600     0.0000     8.0000 </r>
       <r>    -4.5878     0.0000     8.0000 </r>
       <r>    -4.5156     0.0000     8.0000 </r>
       <r>    -4.4435     0.0000     8.0000 </r>
       <r>    -4.3713     0.0000     8.0000 </r>
       <r>    -4.2992     0.0000     8.0000 </r>
       <r>    -4.2270     0.0000     8.0000 </r>
       <r>    -4.1549     0.0000     8.0000 </r>
       <r>    -4.0827     0.0000     8.0000 </r>
       <r>    -4.0105     0.0000     8.0000 </r>
       <r>    -3.9384     0.0000     8.0000 </r>
       <r>    -3.8662     0.0000     8.0000 </r>
       <r>    -3.7941     0.0000     8.0000 </r>
       <r>    -3.7219     0.0000     8.0000 </r>
       <r>    -3.6498     0.0000     8.0000 </r>
       <r>    -3.5776     0.0000     8.0000 </r>
       <r>    -3.5054     0.0000     8.0000 </r>
       <r>    -3.4333     0.0000     8.0000 </r>
       <r>    -3.3611     0.0000     8.0000 </r>
       <r>    -3.2890     0.0000     8.0000 </r>
       <r>    -3.2168     0.0000     8.0000 </r>
       <r>    -3.1447     0.0000     8.0000 </r>
       <r>    -3.0725     0.0000     8.0000 </r>
       <r>    -3.0003     0.0000     8.0000 </r>
       <r>    -2.9282     0.0000     8.0000 </r>
       <r>    -2.8560     0.0000     8.0000 </r>
       <r>    -2.7839     0.0000     8.0000 </r>
       <r>    -2.7117     0.0000     8.0000 </r>
       <r>    -2.6396     0.0000     8.0000 </r>
       <r>    -2.5674     0.0000     8.0000 </r>
       <r>    -2.4953     0.0000     8.0000 </r>
       <r>    -2.4231     0.0000     8.0000 </r>
       <r>    -2.3509     0.0000     8.0000 </r>
       <r>    -2.2788     0.0000     8.0000 </r>
       <r>    -2.2066     0.0000     8.0000 </r>
       <r>    -2.1345     0.0000     8.0000 </r>
       <r>    -2.0623     0.0000     8.0000 </r>
       <r>    -1.9902     0.0000     8.0000 </r>
       <r>    -1.9180    -0.0000     8.0000 </r>
       <r>    -1.8458    -0.0000     8.0000 </r>
       <r>    -1.7737    -0.0000     8.0000 </r>
       <r>    -1.7015    -0.0000     8.0000 </r>
       <r>    -1.6294    -0.0000     8.0000 </r>
       <r>    -1.5572    -0.0000     8.0000 </r>
       <r>    -1.4851    -0.0000     8.0000 </r>
       <r>    -1.4129    -0.0000     8.0000 </r>
       <r>    -1.3407    -0.0000     8.0000 </r>
       <r>    -1.2686    -0.0000     8.0000 </r>
       <r>    -1.1964    -0.0000     8.0000 </r>
       <r>    -1.1243    -0.0000     8.0000 </r>
       <r>    -1.0521    -0.0000     8.0000 </r>
       <r>    -0.9800    -0.0002     8.0000 </r>
       <r>    -0.9078    -0.0020     7.9998 </r>
       <r>    -0.8356    -0.0127     7.9989 </r>
       <r>    -0.7635    -0.0591     7.9947 </r>
       <r>    -0.6913    -0.1921     7.9808 </r>
       <r>    -0.6192    -0.3973     7.9521 </r>
       <r>    -0.5470    -0.3188     7.9291 </r>
       <r>    -0.4749     0.8791     7.9926 </r>
       <r>    -0.4027     3.7228     8.2612 </r>
       <r>    -0.3305     7.0350     8.7688 </r>
       <r>    -0.2584     8.2862     9.3667 </r>
       <r>    -0.1862     6.3487     9.8248 </r>
       <r>    -0.1141     2.9345    10.0366 </r>
       <r>    -0.0419     0.4481    10.0689 </r>
       <r>     0.0302    -0.4183    10.0387 </r>
       <r>     0.1024    -0.4301    10.0077 </r>
       <r>     0.1746    -0.4119     9.9780 </r>
       <r>     0.2467    -0.6472     9.9313 </r>
       <r>     0.3189    -0.7940     9.8740 </r>
       <r>     0.3910     0.2627     9.8929 </r>
       <r>     0.4632     4.0223    10.1832 </r>
       <r>     0.5353    10.8017    10.9626 </r>
       <r>     0.6075    18.1294    12.2707 </r>
       <r>     0.6796    21.5345    13.8246 </r>
       <r>     0.7518    18.3164    15.1463 </r>
       <r>     0.8240    10.5992    15.9111 </r>
       <r>     0.8961     3.3815    16.1551 </r>
       <r>     0.9683    -0.2939    16.1338 </r>
       <r>     1.0404    -0.9876    16.0626 </r>
       <r>     1.1126    -0.5903    16.0200 </r>
       <r>     1.1847    -0.2127    16.0046 </r>
       <r>     1.2569    -0.0531    16.0008 </r>
       <r>     1.3291    -0.0096    16.0001 </r>
       <r>     1.4012    -0.0013    16.0000 </r>
       <r>     1.4734    -0.0001    16.0000 </r>
       <r>     1.5455    -0.0000    16.0000 </r>
       <r>     1.6177    -0.0000    16.0000 </r>
       <r>     1.6898    -0.0000    16.0000 </r>
       <r>     1.7620    -0.0000    16.0000 </r>
       <r>     1.8342    -0.0000    16.0000 </r>
       <r>     1.9063    -0.0000    16.0000 </r>
       <r>     1.9785    -0.0000    16.0000 </r>
       <r>     2.0506     0.0000    16.0000 </r>
       <r>     2.1228     0.0000    16.0000 </r>
       <r>     2.1949     0.0000    16.0000 </r>
       <r>     2.2671     0.0000    16.0000 </r>
       <r>     2.3393     0.0000    16.0000 </r>
       <r>     2.4114     0.0000    16.0000 </r>
       <r>     2.4836     0.0000    16.0000 </r>
       <r>     2.5557     0.0000    16.0000 </r>
       <r>     2.6279     0.0000    16.0000 </r>
       <r>     2.7000     0.0000    16.0000 </r>
      </set>
     </set>
    </array>
   </total>
  </dos>
 </calculation>
 <structure name="finalpos" >
  <crystal>
   <varray name="basis" >
    <v>       9.84517541       0.00000000       0.00000000 </v>
    <v>       0.02760368      10.21545276       0.00000000 </v>
    <v>      -0.14367976      -0.17285928      10.17975792 </v>
   </varray>
   <i name="volume">   1023.80802285 </i>
   <varray name="rec_basis" >
    <v>       0.10157259      -0.00027446       0.00142896 </v>
    <v>      -0.00000000       0.09789091       0.00166225 </v>
    <v>       0.00000000       0.00000000       0.09823416 </v>
   </varray>
  </crystal>
  <varray name="positions" >
   <v>       0.52701252       0.38672241       0.37752819 </v>
   <v>       0.39709717       0.49453431       0.43219288 </v>
   <v>       0.56977966       0.55000613       0.43191068 </v>
   <v>       0.52279865       0.43663679       0.54523899 </v>
   <v>       0.50309111       0.46723018       0.44472872 </v>
  </varray>
  <varray name="velocities" >
   <v>      -0.00249844       0.00167485       0.00035815 </v>
   <v>       0.00010630       0.00004941       0.00024798 </v>
   <v>      -0.00143999      -0.00140621      -0.00223714 </v>
   <v>       0.00026978       0.00282305      -0.00174953 </v>
   <v>       0.00029659      -0.00026152       0.00028145 </v>
  </varray>
 </structure>
</modeling>
