unknown system                          
           1
     9.845175    0.000000    0.000000
     0.027604   10.215453    0.000000
    -0.143680   -0.172859   10.179758
   H    C 
   4   1
Direct configuration=     1
   0.53802785  0.40649518  0.35994617
   0.39405425  0.47999859  0.43854876
   0.55237888  0.56514172  0.44238610
   0.52907231  0.41634793  0.53915661
   0.50335376  0.46722321  0.44529762
Direct configuration=     2
   0.53875419  0.40681990  0.36097546
   0.39456120  0.48117089  0.43817614
   0.55251612  0.56129259  0.44067183
   0.52653688  0.41854766  0.53574500
   0.50345075  0.46723590  0.44566972
Direct configuration=     3
   0.53929995  0.40703086  0.36567256
   0.39602830  0.48288377  0.43688763
   0.55523775  0.55968585  0.43898552
   0.52478113  0.41661022  0.53831729
   0.50320275  0.46737080  0.44531217
Direct configuration=     4
   0.53962257  0.40373270  0.36872890
   0.39283534  0.48602298  0.43419186
   0.56053138  0.55973630  0.43831446
   0.52366649  0.41413503  0.54211612
   0.50309379  0.46758591  0.44502174
Direct configuration=     5
   0.54125467  0.39688160  0.36892229
   0.39267977  0.48873151  0.43230616
   0.56274554  0.55872785  0.43773509
   0.52127689  0.41537037  0.54166750
   0.50298547  0.46791192  0.44524822
Direct configuration=     6
   0.53995131  0.39273063  0.37061768
   0.39695887  0.49103312  0.43230951
   0.56366248  0.55491010  0.43735880
   0.51910826  0.41974701  0.53777461
   0.50284193  0.46801936  0.44546223
Direct configuration=     7
   0.53634729  0.39065599  0.37498026
   0.39921465  0.49361436  0.43195646
   0.56485901  0.55367613  0.43694037
   0.51937079  0.42306481  0.53858316
   0.50283270  0.46780369  0.44509593
Direct configuration=     8
   0.53350675  0.38949018  0.37851031
   0.39452498  0.49524362  0.43138372
   0.56835425  0.55628800  0.43632146
   0.52109853  0.42556638  0.54445914
   0.50302480  0.46733937  0.44441202
Direct configuration=     9
   0.53160192  0.38545525  0.37736790
   0.39495252  0.49520708  0.43171150
   0.57073648  0.55485267  0.43556430
   0.52208931  0.42923195  0.54728412
   0.50286697  0.46749267  0.44430768
Direct configuration=    10
   0.52951096  0.38504756  0.37717004
   0.39699087  0.49448490  0.43194491
   0.57121965  0.55141234  0.43414782
   0.52252888  0.43381374  0.54698853
   0.50279452  0.46749170  0.44444727
