   5   5   0****
  0.1972522E+03  0.9779327E-09  0.9893088E-09  0.1019624E-08  0.2000000E-14
   50.000000000000000     
  CAR 
 unknown system                          
      2.71919340    -18.91059964  301     -9.12136481      1.00000000
    -18.911  0.0000E+00  0.0000E+00
    -18.839  0.0000E+00  0.0000E+00
    -18.766  0.0000E+00  0.0000E+00
    -18.694  0.0000E+00  0.0000E+00
    -18.622  0.0000E+00  0.0000E+00
    -18.550 -0.4189E-27 -0.3021E-28
    -18.478 -0.1293E-24 -0.9354E-26
    -18.406 -0.3078E-22 -0.2229E-23
    -18.334 -0.5636E-20 -0.4086E-21
    -18.262 -0.7934E-18 -0.5761E-19
    -18.190 -0.8583E-16 -0.6246E-17
    -18.118 -0.7132E-14 -0.5205E-15
    -18.045 -0.4412E-12 -0.3233E-13
    -17.973 -0.2149E-10 -0.1582E-11
    -17.901 -0.8018E-09 -0.5939E-10
    -17.829 -0.2287E-07 -0.1708E-08
    -17.757 -0.4976E-06 -0.3758E-07
    -17.685 -0.8236E-05 -0.6314E-06
    -17.613 -0.1033E-03 -0.8080E-05
    -17.541 -0.9764E-03 -0.7848E-04
    -17.469 -0.6889E-02 -0.5752E-03
    -17.397 -0.3575E-01 -0.3153E-02
    -17.324 -0.1325E+00 -0.1271E-01
    -17.252 -0.3278E+00 -0.3634E-01
    -17.180 -0.4248E+00 -0.6697E-01
    -17.108  0.2686E+00 -0.4760E-01
    -17.036  0.2551E+01  0.1363E+00
    -16.964  0.5958E+01  0.5659E+00
    -16.892  0.8212E+01  0.1158E+01
    -16.820  0.7350E+01  0.1688E+01
    -16.748  0.4154E+01  0.1987E+01
    -16.676  0.1146E+01  0.2070E+01
    -16.603 -0.2503E+00  0.2052E+01
    -16.531 -0.4166E+00  0.2022E+01
    -16.459 -0.2167E+00  0.2006E+01
    -16.387 -0.7007E-01  0.2001E+01
    -16.315 -0.1579E-01  0.2000E+01
    -16.243 -0.2587E-02  0.2000E+01
    -16.171 -0.3144E-03  0.2000E+01
    -16.099 -0.2869E-04  0.2000E+01
    -16.027 -0.1979E-05  0.2000E+01
    -15.955 -0.1036E-06  0.2000E+01
    -15.882 -0.4136E-08  0.2000E+01
    -15.810 -0.1261E-09  0.2000E+01
    -15.738 -0.2941E-11  0.2000E+01
    -15.666 -0.5543E-13  0.2000E+01
    -15.594  0.0000E+00  0.2000E+01
    -15.522  0.0000E+00  0.2000E+01
    -15.450  0.0000E+00  0.2000E+01
    -15.378  0.0000E+00  0.2000E+01
    -15.306  0.0000E+00  0.2000E+01
    -15.234  0.0000E+00  0.2000E+01
    -15.161  0.0000E+00  0.2000E+01
    -15.089  0.0000E+00  0.2000E+01
    -15.017  0.0000E+00  0.2000E+01
    -14.945  0.0000E+00  0.2000E+01
    -14.873  0.0000E+00  0.2000E+01
    -14.801  0.0000E+00  0.2000E+01
    -14.729  0.0000E+00  0.2000E+01
    -14.657  0.0000E+00  0.2000E+01
    -14.585  0.0000E+00  0.2000E+01
    -14.513  0.0000E+00  0.2000E+01
    -14.440  0.0000E+00  0.2000E+01
    -14.368  0.0000E+00  0.2000E+01
    -14.296  0.0000E+00  0.2000E+01
    -14.224  0.0000E+00  0.2000E+01
    -14.152  0.0000E+00  0.2000E+01
    -14.080  0.0000E+00  0.2000E+01
    -14.008  0.0000E+00  0.2000E+01
    -13.936  0.0000E+00  0.2000E+01
    -13.864  0.0000E+00  0.2000E+01
    -13.792  0.0000E+00  0.2000E+01
    -13.719  0.0000E+00  0.2000E+01
    -13.647  0.0000E+00  0.2000E+01
    -13.575  0.0000E+00  0.2000E+01
    -13.503  0.0000E+00  0.2000E+01
    -13.431  0.0000E+00  0.2000E+01
    -13.359  0.0000E+00  0.2000E+01
    -13.287  0.0000E+00  0.2000E+01
    -13.215  0.0000E+00  0.2000E+01
    -13.143  0.0000E+00  0.2000E+01
    -13.071  0.0000E+00  0.2000E+01
    -12.998  0.0000E+00  0.2000E+01
    -12.926  0.0000E+00  0.2000E+01
    -12.854  0.0000E+00  0.2000E+01
    -12.782  0.0000E+00  0.2000E+01
    -12.710  0.0000E+00  0.2000E+01
    -12.638  0.0000E+00  0.2000E+01
    -12.566  0.0000E+00  0.2000E+01
    -12.494  0.0000E+00  0.2000E+01
    -12.422  0.0000E+00  0.2000E+01
    -12.350  0.0000E+00  0.2000E+01
    -12.277  0.0000E+00  0.2000E+01
    -12.205  0.0000E+00  0.2000E+01
    -12.133  0.0000E+00  0.2000E+01
    -12.061  0.0000E+00  0.2000E+01
    -11.989  0.0000E+00  0.2000E+01
    -11.917  0.0000E+00  0.2000E+01
    -11.845  0.0000E+00  0.2000E+01
    -11.773  0.0000E+00  0.2000E+01
    -11.701  0.0000E+00  0.2000E+01
    -11.629  0.0000E+00  0.2000E+01
    -11.556  0.0000E+00  0.2000E+01
    -11.484  0.0000E+00  0.2000E+01
    -11.412  0.0000E+00  0.2000E+01
    -11.340  0.0000E+00  0.2000E+01
    -11.268  0.0000E+00  0.2000E+01
    -11.196  0.0000E+00  0.2000E+01
    -11.124  0.0000E+00  0.2000E+01
    -11.052  0.0000E+00  0.2000E+01
    -10.980 -0.1059E-27  0.2000E+01
    -10.908 -0.3680E-25  0.2000E+01
    -10.835 -0.9403E-23  0.2000E+01
    -10.763 -0.1851E-20  0.2000E+01
    -10.691 -0.2807E-18  0.2000E+01
    -10.619 -0.3278E-16  0.2000E+01
    -10.547 -0.2948E-14  0.2000E+01
    -10.475 -0.1995E-12  0.2000E+01
    -10.403 -0.1051E-10  0.2000E+01
    -10.331 -0.4291E-09  0.2000E+01
    -10.259 -0.1344E-07  0.2000E+01
    -10.187 -0.3230E-06  0.2000E+01
    -10.114 -0.5941E-05  0.2000E+01
    -10.042 -0.8339E-04  0.2000E+01
     -9.970 -0.8897E-03  0.2000E+01
     -9.898 -0.7167E-02  0.1999E+01
     -9.826 -0.4312E-01  0.1996E+01
     -9.754 -0.1901E+00  0.1983E+01
     -9.682 -0.5900E+00  0.1940E+01
     -9.610 -0.1158E+01  0.1857E+01
     -9.538 -0.8021E+00  0.1799E+01
     -9.466  0.2872E+01  0.2006E+01
     -9.393  0.1124E+02  0.2816E+01
     -9.321  0.2081E+02  0.4317E+01
     -9.249  0.2443E+02  0.6078E+01
     -9.177  0.1889E+02  0.7440E+01
     -9.105  0.8975E+01  0.8087E+01
     -9.033  0.1580E+01  0.8201E+01
     -8.961 -0.1100E+01  0.8122E+01
     -8.889 -0.1051E+01  0.8046E+01
     -8.817 -0.4693E+00  0.8012E+01
     -8.745 -0.1373E+00  0.8002E+01
     -8.672 -0.2854E-01  0.8000E+01
     -8.600 -0.4358E-02  0.8000E+01
     -8.528 -0.4971E-03  0.8000E+01
     -8.456 -0.4275E-04  0.8000E+01
     -8.384 -0.2789E-05  0.8000E+01
     -8.312 -0.1385E-06  0.8000E+01
     -8.240 -0.5256E-08  0.8000E+01
     -8.168 -0.1526E-09  0.8000E+01
     -8.096 -0.3395E-11  0.8000E+01
     -8.024 -0.5543E-13  0.8000E+01
     -7.952  0.0000E+00  0.8000E+01
     -7.879  0.0000E+00  0.8000E+01
     -7.807  0.0000E+00  0.8000E+01
     -7.735  0.0000E+00  0.8000E+01
     -7.663  0.0000E+00  0.8000E+01
     -7.591  0.0000E+00  0.8000E+01
     -7.519  0.0000E+00  0.8000E+01
     -7.447  0.0000E+00  0.8000E+01
     -7.375  0.0000E+00  0.8000E+01
     -7.303  0.0000E+00  0.8000E+01
     -7.231  0.0000E+00  0.8000E+01
     -7.158  0.0000E+00  0.8000E+01
     -7.086  0.0000E+00  0.8000E+01
     -7.014  0.0000E+00  0.8000E+01
     -6.942  0.0000E+00  0.8000E+01
     -6.870  0.0000E+00  0.8000E+01
     -6.798  0.0000E+00  0.8000E+01
     -6.726  0.0000E+00  0.8000E+01
     -6.654  0.0000E+00  0.8000E+01
     -6.582  0.0000E+00  0.8000E+01
     -6.510  0.0000E+00  0.8000E+01
     -6.437  0.0000E+00  0.8000E+01
     -6.365  0.0000E+00  0.8000E+01
     -6.293  0.0000E+00  0.8000E+01
     -6.221  0.0000E+00  0.8000E+01
     -6.149  0.0000E+00  0.8000E+01
     -6.077  0.0000E+00  0.8000E+01
     -6.005  0.0000E+00  0.8000E+01
     -5.933  0.0000E+00  0.8000E+01
     -5.861  0.0000E+00  0.8000E+01
     -5.789  0.0000E+00  0.8000E+01
     -5.716  0.0000E+00  0.8000E+01
     -5.644  0.0000E+00  0.8000E+01
     -5.572  0.0000E+00  0.8000E+01
     -5.500  0.0000E+00  0.8000E+01
     -5.428  0.0000E+00  0.8000E+01
     -5.356  0.0000E+00  0.8000E+01
     -5.284  0.0000E+00  0.8000E+01
     -5.212  0.0000E+00  0.8000E+01
     -5.140  0.0000E+00  0.8000E+01
     -5.068  0.0000E+00  0.8000E+01
     -4.995  0.0000E+00  0.8000E+01
     -4.923  0.0000E+00  0.8000E+01
     -4.851  0.0000E+00  0.8000E+01
     -4.779  0.0000E+00  0.8000E+01
     -4.707  0.0000E+00  0.8000E+01
     -4.635  0.0000E+00  0.8000E+01
     -4.563  0.0000E+00  0.8000E+01
     -4.491  0.0000E+00  0.8000E+01
     -4.419  0.0000E+00  0.8000E+01
     -4.347  0.0000E+00  0.8000E+01
     -4.274  0.0000E+00  0.8000E+01
     -4.202  0.0000E+00  0.8000E+01
     -4.130  0.0000E+00  0.8000E+01
     -4.058  0.0000E+00  0.8000E+01
     -3.986  0.0000E+00  0.8000E+01
     -3.914  0.0000E+00  0.8000E+01
     -3.842  0.0000E+00  0.8000E+01
     -3.770  0.0000E+00  0.8000E+01
     -3.698  0.0000E+00  0.8000E+01
     -3.626  0.0000E+00  0.8000E+01
     -3.553  0.0000E+00  0.8000E+01
     -3.481  0.0000E+00  0.8000E+01
     -3.409  0.0000E+00  0.8000E+01
     -3.337  0.0000E+00  0.8000E+01
     -3.265  0.0000E+00  0.8000E+01
     -3.193  0.0000E+00  0.8000E+01
     -3.121  0.0000E+00  0.8000E+01
     -3.049  0.0000E+00  0.8000E+01
     -2.977  0.0000E+00  0.8000E+01
     -2.905  0.0000E+00  0.8000E+01
     -2.832  0.0000E+00  0.8000E+01
     -2.760  0.0000E+00  0.8000E+01
     -2.688  0.0000E+00  0.8000E+01
     -2.616  0.0000E+00  0.8000E+01
     -2.544  0.0000E+00  0.8000E+01
     -2.472  0.0000E+00  0.8000E+01
     -2.400  0.0000E+00  0.8000E+01
     -2.328  0.0000E+00  0.8000E+01
     -2.256  0.0000E+00  0.8000E+01
     -2.184  0.0000E+00  0.8000E+01
     -2.111  0.0000E+00  0.8000E+01
     -2.039  0.0000E+00  0.8000E+01
     -1.967 -0.1012E-27  0.8000E+01
     -1.895 -0.3327E-25  0.8000E+01
     -1.823 -0.8433E-23  0.8000E+01
     -1.751 -0.1644E-20  0.8000E+01
     -1.679 -0.2465E-18  0.8000E+01
     -1.607 -0.2840E-16  0.8000E+01
     -1.535 -0.2515E-14  0.8000E+01
     -1.463 -0.1659E-12  0.8000E+01
     -1.390 -0.8615E-11  0.8000E+01
     -1.318 -0.3427E-09  0.8000E+01
     -1.246 -0.1043E-07  0.8000E+01
     -1.174 -0.2422E-06  0.8000E+01
     -1.102 -0.4284E-05  0.8000E+01
     -1.030 -0.5748E-04  0.8000E+01
     -0.958 -0.5820E-03  0.8000E+01
     -0.886 -0.4412E-02  0.8000E+01
     -0.814 -0.2470E-01  0.7998E+01
     -0.742 -0.9972E-01  0.7991E+01
     -0.669 -0.2750E+00  0.7971E+01
     -0.597 -0.4386E+00  0.7939E+01
     -0.525 -0.2381E-01  0.7937E+01
     -0.453  0.1842E+01  0.8070E+01
     -0.381  0.5131E+01  0.8440E+01
     -0.309  0.7912E+01  0.9011E+01
     -0.237  0.7853E+01  0.9577E+01
     -0.165  0.5009E+01  0.9938E+01
     -0.093  0.1747E+01  0.1006E+02
     -0.021 -0.6164E-01  0.1006E+02
      0.052 -0.4578E+00  0.1003E+02
      0.124 -0.3580E+00  0.1000E+02
      0.196 -0.3911E+00  0.9972E+01
      0.268 -0.6783E+00  0.9924E+01
      0.340 -0.7774E+00  0.9868E+01
      0.412  0.5243E+00  0.9905E+01
      0.484  0.4713E+01  0.1025E+02
      0.556  0.1182E+02  0.1110E+02
      0.628  0.1895E+02  0.1246E+02
      0.700  0.2155E+02  0.1402E+02
      0.773  0.1749E+02  0.1528E+02
      0.845  0.9541E+01  0.1597E+02
      0.917  0.2700E+01  0.1616E+02
      0.989 -0.5008E+00  0.1612E+02
      1.061 -0.9597E+00  0.1606E+02
      1.133 -0.5317E+00  0.1602E+02
      1.205 -0.1831E+00  0.1600E+02
      1.277 -0.4415E-01  0.1600E+02
      1.349 -0.7767E-02  0.1600E+02
      1.421 -0.1018E-02  0.1600E+02
      1.494 -0.1004E-03  0.1600E+02
      1.566 -0.7507E-05  0.1600E+02
      1.638 -0.4276E-06  0.1600E+02
      1.710 -0.1860E-07  0.1600E+02
      1.782 -0.6198E-09  0.1600E+02
      1.854 -0.1583E-10  0.1600E+02
      1.926 -0.3141E-12  0.1600E+02
      1.998 -0.3080E-14  0.1600E+02
      2.070  0.0000E+00  0.1600E+02
      2.142  0.0000E+00  0.1600E+02
      2.214  0.0000E+00  0.1600E+02
      2.287  0.0000E+00  0.1600E+02
      2.359  0.0000E+00  0.1600E+02
      2.431  0.0000E+00  0.1600E+02
      2.503  0.0000E+00  0.1600E+02
      2.575  0.0000E+00  0.1600E+02
      2.647  0.0000E+00  0.1600E+02
      2.719  0.0000E+00  0.1600E+02
      2.71889934    -18.91174728  301     -9.11909699      1.00000000
    -18.912  0.0000E+00  0.0000E+00
    -18.840  0.0000E+00  0.0000E+00
    -18.768  0.0000E+00  0.0000E+00
    -18.695  0.0000E+00  0.0000E+00
    -18.623  0.0000E+00  0.0000E+00
    -18.551 -0.4193E-27 -0.3023E-28
    -18.479 -0.1294E-24 -0.9363E-26
    -18.407 -0.3082E-22 -0.2231E-23
    -18.335 -0.5643E-20 -0.4091E-21
    -18.263 -0.7945E-18 -0.5769E-19
    -18.191 -0.8596E-16 -0.6255E-17
    -18.119 -0.7144E-14 -0.5213E-15
    -18.047 -0.4419E-12 -0.3239E-13
    -17.974 -0.2153E-10 -0.1585E-11
    -17.902 -0.8032E-09 -0.5950E-10
    -17.830 -0.2291E-07 -0.1711E-08
    -17.758 -0.4984E-06 -0.3765E-07
    -17.686 -0.8249E-05 -0.6324E-06
    -17.614 -0.1035E-03 -0.8093E-05
    -17.542 -0.9778E-03 -0.7859E-04
    -17.470 -0.6898E-02 -0.5760E-03
    -17.398 -0.3579E-01 -0.3156E-02
    -17.325 -0.1326E+00 -0.1272E-01
    -17.253 -0.3280E+00 -0.3637E-01
    -17.181 -0.4247E+00 -0.6699E-01
    -17.109  0.2699E+00 -0.4753E-01
    -17.037  0.2554E+01  0.1366E+00
    -16.965  0.5962E+01  0.5665E+00
    -16.893  0.8213E+01  0.1159E+01
    -16.821  0.7348E+01  0.1688E+01
    -16.749  0.4150E+01  0.1988E+01
    -16.677  0.1144E+01  0.2070E+01
    -16.604 -0.2510E+00  0.2052E+01
    -16.532 -0.4164E+00  0.2022E+01
    -16.460 -0.2165E+00  0.2006E+01
    -16.388 -0.6995E-01  0.2001E+01
    -16.316 -0.1575E-01  0.2000E+01
    -16.244 -0.2580E-02  0.2000E+01
    -16.172 -0.3134E-03  0.2000E+01
    -16.100 -0.2858E-04  0.2000E+01
    -16.028 -0.1970E-05  0.2000E+01
    -15.956 -0.1031E-06  0.2000E+01
    -15.883 -0.4114E-08  0.2000E+01
    -15.811 -0.1253E-09  0.2000E+01
    -15.739 -0.2921E-11  0.2000E+01
    -15.667 -0.5543E-13  0.2000E+01
    -15.595  0.0000E+00  0.2000E+01
    -15.523  0.0000E+00  0.2000E+01
    -15.451  0.0000E+00  0.2000E+01
    -15.379  0.0000E+00  0.2000E+01
    -15.307  0.0000E+00  0.2000E+01
    -15.235  0.0000E+00  0.2000E+01
    -15.162  0.0000E+00  0.2000E+01
    -15.090  0.0000E+00  0.2000E+01
    -15.018  0.0000E+00  0.2000E+01
    -14.946  0.0000E+00  0.2000E+01
    -14.874  0.0000E+00  0.2000E+01
    -14.802  0.0000E+00  0.2000E+01
    -14.730  0.0000E+00  0.2000E+01
    -14.658  0.0000E+00  0.2000E+01
    -14.586  0.0000E+00  0.2000E+01
    -14.514  0.0000E+00  0.2000E+01
    -14.441  0.0000E+00  0.2000E+01
    -14.369  0.0000E+00  0.2000E+01
    -14.297  0.0000E+00  0.2000E+01
    -14.225  0.0000E+00  0.2000E+01
    -14.153  0.0000E+00  0.2000E+01
    -14.081  0.0000E+00  0.2000E+01
    -14.009  0.0000E+00  0.2000E+01
    -13.937  0.0000E+00  0.2000E+01
    -13.865  0.0000E+00  0.2000E+01
    -13.792  0.0000E+00  0.2000E+01
    -13.720  0.0000E+00  0.2000E+01
    -13.648  0.0000E+00  0.2000E+01
    -13.576  0.0000E+00  0.2000E+01
    -13.504  0.0000E+00  0.2000E+01
    -13.432  0.0000E+00  0.2000E+01
    -13.360  0.0000E+00  0.2000E+01
    -13.288  0.0000E+00  0.2000E+01
    -13.216  0.0000E+00  0.2000E+01
    -13.144  0.0000E+00  0.2000E+01
    -13.071  0.0000E+00  0.2000E+01
    -12.999  0.0000E+00  0.2000E+01
    -12.927  0.0000E+00  0.2000E+01
    -12.855  0.0000E+00  0.2000E+01
    -12.783  0.0000E+00  0.2000E+01
    -12.711  0.0000E+00  0.2000E+01
    -12.639  0.0000E+00  0.2000E+01
    -12.567  0.0000E+00  0.2000E+01
    -12.495  0.0000E+00  0.2000E+01
    -12.423  0.0000E+00  0.2000E+01
    -12.350  0.0000E+00  0.2000E+01
    -12.278  0.0000E+00  0.2000E+01
    -12.206  0.0000E+00  0.2000E+01
    -12.134  0.0000E+00  0.2000E+01
    -12.062  0.0000E+00  0.2000E+01
    -11.990  0.0000E+00  0.2000E+01
    -11.918  0.0000E+00  0.2000E+01
    -11.846  0.0000E+00  0.2000E+01
    -11.774  0.0000E+00  0.2000E+01
    -11.702  0.0000E+00  0.2000E+01
    -11.629  0.0000E+00  0.2000E+01
    -11.557  0.0000E+00  0.2000E+01
    -11.485  0.0000E+00  0.2000E+01
    -11.413  0.0000E+00  0.2000E+01
    -11.341  0.0000E+00  0.2000E+01
    -11.269  0.0000E+00  0.2000E+01
    -11.197  0.0000E+00  0.2000E+01
    -11.125  0.0000E+00  0.2000E+01
    -11.053  0.0000E+00  0.2000E+01
    -10.981 -0.2578E-27  0.2000E+01
    -10.908 -0.8583E-25  0.2000E+01
    -10.836 -0.2104E-22  0.2000E+01
    -10.764 -0.3974E-20  0.2000E+01
    -10.692 -0.5778E-18  0.2000E+01
    -10.620 -0.6467E-16  0.2000E+01
    -10.548 -0.5570E-14  0.2000E+01
    -10.476 -0.3572E-12  0.2000E+01
    -10.404 -0.1817E-10  0.2000E+01
    -10.332 -0.7084E-09  0.2000E+01
    -10.259 -0.2119E-07  0.2000E+01
    -10.187 -0.4857E-06  0.2000E+01
    -10.115 -0.8514E-05  0.2000E+01
    -10.043 -0.1138E-03  0.2000E+01
     -9.971 -0.1156E-02  0.2000E+01
     -9.899 -0.8864E-02  0.1999E+01
     -9.827 -0.5072E-01  0.1996E+01
     -9.755 -0.2124E+00  0.1980E+01
     -9.683 -0.6231E+00  0.1935E+01
     -9.611 -0.1135E+01  0.1854E+01
     -9.538 -0.5743E+00  0.1812E+01
     -9.466  0.3355E+01  0.2054E+01
     -9.394  0.1167E+02  0.2896E+01
     -9.322  0.2075E+02  0.4392E+01
     -9.250  0.2386E+02  0.6112E+01
     -9.178  0.1833E+02  0.7434E+01
     -9.106  0.8808E+01  0.8069E+01
     -9.034  0.1688E+01  0.8190E+01
     -8.962 -0.9813E+00  0.8120E+01
     -8.890 -0.1010E+01  0.8047E+01
     -8.817 -0.4695E+00  0.8013E+01
     -8.745 -0.1429E+00  0.8003E+01
     -8.673 -0.3103E-01  0.8000E+01
     -8.601 -0.4969E-02  0.8000E+01
     -8.529 -0.5964E-03  0.8000E+01
     -8.457 -0.5417E-04  0.8000E+01
     -8.385 -0.3743E-05  0.8000E+01
     -8.313 -0.1975E-06  0.8000E+01
     -8.241 -0.7979E-08  0.8000E+01
     -8.169 -0.2471E-09  0.8000E+01
     -8.096 -0.5874E-11  0.8000E+01
     -8.024 -0.1109E-12  0.8000E+01
     -7.952  0.0000E+00  0.8000E+01
     -7.880  0.0000E+00  0.8000E+01
     -7.808  0.0000E+00  0.8000E+01
     -7.736  0.0000E+00  0.8000E+01
     -7.664  0.0000E+00  0.8000E+01
     -7.592  0.0000E+00  0.8000E+01
     -7.520  0.0000E+00  0.8000E+01
     -7.448  0.0000E+00  0.8000E+01
     -7.375  0.0000E+00  0.8000E+01
     -7.303  0.0000E+00  0.8000E+01
     -7.231  0.0000E+00  0.8000E+01
     -7.159  0.0000E+00  0.8000E+01
     -7.087  0.0000E+00  0.8000E+01
     -7.015  0.0000E+00  0.8000E+01
     -6.943  0.0000E+00  0.8000E+01
     -6.871  0.0000E+00  0.8000E+01
     -6.799  0.0000E+00  0.8000E+01
     -6.726  0.0000E+00  0.8000E+01
     -6.654  0.0000E+00  0.8000E+01
     -6.582  0.0000E+00  0.8000E+01
     -6.510  0.0000E+00  0.8000E+01
     -6.438  0.0000E+00  0.8000E+01
     -6.366  0.0000E+00  0.8000E+01
     -6.294  0.0000E+00  0.8000E+01
     -6.222  0.0000E+00  0.8000E+01
     -6.150  0.0000E+00  0.8000E+01
     -6.078  0.0000E+00  0.8000E+01
     -6.005  0.0000E+00  0.8000E+01
     -5.933  0.0000E+00  0.8000E+01
     -5.861  0.0000E+00  0.8000E+01
     -5.789  0.0000E+00  0.8000E+01
     -5.717  0.0000E+00  0.8000E+01
     -5.645  0.0000E+00  0.8000E+01
     -5.573  0.0000E+00  0.8000E+01
     -5.501  0.0000E+00  0.8000E+01
     -5.429  0.0000E+00  0.8000E+01
     -5.357  0.0000E+00  0.8000E+01
     -5.284  0.0000E+00  0.8000E+01
     -5.212  0.0000E+00  0.8000E+01
     -5.140  0.0000E+00  0.8000E+01
     -5.068  0.0000E+00  0.8000E+01
     -4.996  0.0000E+00  0.8000E+01
     -4.924  0.0000E+00  0.8000E+01
     -4.852  0.0000E+00  0.8000E+01
     -4.780  0.0000E+00  0.8000E+01
     -4.708  0.0000E+00  0.8000E+01
     -4.636  0.0000E+00  0.8000E+01
     -4.563  0.0000E+00  0.8000E+01
     -4.491  0.0000E+00  0.8000E+01
     -4.419  0.0000E+00  0.8000E+01
     -4.347  0.0000E+00  0.8000E+01
     -4.275  0.0000E+00  0.8000E+01
     -4.203  0.0000E+00  0.8000E+01
     -4.131  0.0000E+00  0.8000E+01
     -4.059  0.0000E+00  0.8000E+01
     -3.987  0.0000E+00  0.8000E+01
     -3.914  0.0000E+00  0.8000E+01
     -3.842  0.0000E+00  0.8000E+01
     -3.770  0.0000E+00  0.8000E+01
     -3.698  0.0000E+00  0.8000E+01
     -3.626  0.0000E+00  0.8000E+01
     -3.554  0.0000E+00  0.8000E+01
     -3.482  0.0000E+00  0.8000E+01
     -3.410  0.0000E+00  0.8000E+01
     -3.338  0.0000E+00  0.8000E+01
     -3.266  0.0000E+00  0.8000E+01
     -3.193  0.0000E+00  0.8000E+01
     -3.121  0.0000E+00  0.8000E+01
     -3.049  0.0000E+00  0.8000E+01
     -2.977  0.0000E+00  0.8000E+01
     -2.905  0.0000E+00  0.8000E+01
     -2.833  0.0000E+00  0.8000E+01
     -2.761  0.0000E+00  0.8000E+01
     -2.689  0.0000E+00  0.8000E+01
     -2.617  0.0000E+00  0.8000E+01
     -2.545  0.0000E+00  0.8000E+01
     -2.472  0.0000E+00  0.8000E+01
     -2.400  0.0000E+00  0.8000E+01
     -2.328  0.0000E+00  0.8000E+01
     -2.256  0.0000E+00  0.8000E+01
     -2.184  0.0000E+00  0.8000E+01
     -2.112  0.0000E+00  0.8000E+01
     -2.040  0.0000E+00  0.8000E+01
     -1.968 -0.8763E-28  0.8000E+01
     -1.896 -0.2898E-25  0.8000E+01
     -1.824 -0.7390E-23  0.8000E+01
     -1.751 -0.1450E-20  0.8000E+01
     -1.679 -0.2187E-18  0.8000E+01
     -1.607 -0.2535E-16  0.8000E+01
     -1.535 -0.2259E-14  0.8000E+01
     -1.463 -0.1495E-12  0.8000E+01
     -1.391 -0.7839E-11  0.8000E+01
     -1.319 -0.3139E-09  0.8000E+01
     -1.247 -0.9612E-08  0.8000E+01
     -1.175 -0.2247E-06  0.8000E+01
     -1.103 -0.4001E-05  0.8000E+01
     -1.030 -0.5405E-04  0.8000E+01
     -0.958 -0.5512E-03  0.8000E+01
     -0.886 -0.4208E-02  0.8000E+01
     -0.814 -0.2375E-01  0.7998E+01
     -0.742 -0.9668E-01  0.7991E+01
     -0.670 -0.2695E+00  0.7972E+01
     -0.598 -0.4379E+00  0.7940E+01
     -0.526 -0.4866E-01  0.7936E+01
     -0.454  0.1773E+01  0.8064E+01
     -0.381  0.5042E+01  0.8428E+01
     -0.309  0.7869E+01  0.8995E+01
     -0.237  0.7895E+01  0.9564E+01
     -0.165  0.5097E+01  0.9932E+01
     -0.093  0.1815E+01  0.1006E+02
     -0.021 -0.3643E-01  0.1006E+02
      0.051 -0.4576E+00  0.1003E+02
      0.123 -0.3599E+00  0.1000E+02
      0.195 -0.3826E+00  0.9974E+01
      0.267 -0.6556E+00  0.9926E+01
      0.340 -0.7620E+00  0.9871E+01
      0.412  0.4540E+00  0.9904E+01
      0.484  0.4450E+01  0.1023E+02
      0.556  0.1138E+02  0.1105E+02
      0.628  0.1857E+02  0.1238E+02
      0.700  0.2153E+02  0.1394E+02
      0.772  0.1786E+02  0.1522E+02
      0.844  0.9998E+01  0.1594E+02
      0.916  0.2979E+01  0.1616E+02
      0.988 -0.4261E+00  0.1613E+02
      1.061 -0.9772E+00  0.1606E+02
      1.133 -0.5569E+00  0.1602E+02
      1.205 -0.1949E+00  0.1600E+02
      1.277 -0.4755E-01  0.1600E+02
      1.349 -0.8448E-02  0.1600E+02
      1.421 -0.1116E-02  0.1600E+02
      1.493 -0.1109E-03  0.1600E+02
      1.565 -0.8343E-05  0.1600E+02
      1.637 -0.4778E-06  0.1600E+02
      1.709 -0.2089E-07  0.1600E+02
      1.782 -0.6991E-09  0.1600E+02
      1.854 -0.1793E-10  0.1600E+02
      1.926 -0.3511E-12  0.1600E+02
      1.998 -0.6159E-14  0.1600E+02
      2.070  0.0000E+00  0.1600E+02
      2.142  0.0000E+00  0.1600E+02
      2.214  0.0000E+00  0.1600E+02
      2.286  0.0000E+00  0.1600E+02
      2.358  0.0000E+00  0.1600E+02
      2.430  0.0000E+00  0.1600E+02
      2.503  0.0000E+00  0.1600E+02
      2.575  0.0000E+00  0.1600E+02
      2.647  0.0000E+00  0.1600E+02
      2.719  0.0000E+00  0.1600E+02
      2.71206487    -18.78684493  301     -8.92362484      1.00000000
    -18.787  0.0000E+00  0.0000E+00
    -18.715  0.0000E+00  0.0000E+00
    -18.644  0.0000E+00  0.0000E+00
    -18.572  0.0000E+00  0.0000E+00
    -18.500  0.0000E+00  0.0000E+00
    -18.429 -0.3526E-27 -0.2527E-28
    -18.357 -0.1060E-24 -0.7623E-26
    -18.285 -0.2467E-22 -0.1776E-23
    -18.214 -0.4429E-20 -0.3191E-21
    -18.142 -0.6132E-18 -0.4426E-19
    -18.070 -0.6546E-16 -0.4736E-17
    -17.999 -0.5385E-14 -0.3907E-15
    -17.927 -0.3304E-12 -0.2407E-13
    -17.855 -0.1606E-10 -0.1175E-11
    -17.784 -0.5992E-09 -0.4411E-10
    -17.712 -0.1714E-07 -0.1273E-08
    -17.640 -0.3754E-06 -0.2818E-07
    -17.569 -0.6278E-05 -0.4781E-06
    -17.497 -0.7986E-04 -0.6201E-05
    -17.425 -0.7684E-03 -0.6127E-04
    -17.354 -0.5547E-02 -0.4588E-03
    -17.282 -0.2962E-01 -0.2581E-02
    -17.210 -0.1140E+00 -0.1075E-01
    -17.139 -0.2982E+00 -0.3212E-01
    -17.067 -0.4379E+00 -0.6350E-01
    -16.995  0.7740E-01 -0.5795E-01
    -16.924  0.2088E+01  0.9170E-01
    -16.852  0.5417E+01  0.4799E+00
    -16.780  0.8029E+01  0.1055E+01
    -16.709  0.7727E+01  0.1609E+01
    -16.637  0.4784E+01  0.1952E+01
    -16.565  0.1593E+01  0.2066E+01
    -16.494 -0.1075E+00  0.2058E+01
    -16.422 -0.4360E+00  0.2027E+01
    -16.350 -0.2588E+00  0.2008E+01
    -16.279 -0.9154E-01  0.2002E+01
    -16.207 -0.2234E-01  0.2000E+01
    -16.135 -0.3954E-02  0.2000E+01
    -16.064 -0.5194E-03  0.2000E+01
    -15.992 -0.5127E-04  0.2000E+01
    -15.920 -0.3834E-05  0.2000E+01
    -15.849 -0.2182E-06  0.2000E+01
    -15.777 -0.9487E-08  0.2000E+01
    -15.705 -0.3159E-09  0.2000E+01
    -15.634 -0.8073E-11  0.2000E+01
    -15.562 -0.1611E-12  0.2000E+01
    -15.490  0.0000E+00  0.2000E+01
    -15.419  0.0000E+00  0.2000E+01
    -15.347  0.0000E+00  0.2000E+01
    -15.275  0.0000E+00  0.2000E+01
    -15.204  0.0000E+00  0.2000E+01
    -15.132  0.0000E+00  0.2000E+01
    -15.060  0.0000E+00  0.2000E+01
    -14.989  0.0000E+00  0.2000E+01
    -14.917  0.0000E+00  0.2000E+01
    -14.845  0.0000E+00  0.2000E+01
    -14.774  0.0000E+00  0.2000E+01
    -14.702  0.0000E+00  0.2000E+01
    -14.630  0.0000E+00  0.2000E+01
    -14.559  0.0000E+00  0.2000E+01
    -14.487  0.0000E+00  0.2000E+01
    -14.415  0.0000E+00  0.2000E+01
    -14.344  0.0000E+00  0.2000E+01
    -14.272  0.0000E+00  0.2000E+01
    -14.200  0.0000E+00  0.2000E+01
    -14.129  0.0000E+00  0.2000E+01
    -14.057  0.0000E+00  0.2000E+01
    -13.985  0.0000E+00  0.2000E+01
    -13.914  0.0000E+00  0.2000E+01
    -13.842  0.0000E+00  0.2000E+01
    -13.770  0.0000E+00  0.2000E+01
    -13.699  0.0000E+00  0.2000E+01
    -13.627  0.0000E+00  0.2000E+01
    -13.555  0.0000E+00  0.2000E+01
    -13.484  0.0000E+00  0.2000E+01
    -13.412  0.0000E+00  0.2000E+01
    -13.340  0.0000E+00  0.2000E+01
    -13.269  0.0000E+00  0.2000E+01
    -13.197  0.0000E+00  0.2000E+01
    -13.125  0.0000E+00  0.2000E+01
    -13.054  0.0000E+00  0.2000E+01
    -12.982  0.0000E+00  0.2000E+01
    -12.910  0.0000E+00  0.2000E+01
    -12.839  0.0000E+00  0.2000E+01
    -12.767  0.0000E+00  0.2000E+01
    -12.695  0.0000E+00  0.2000E+01
    -12.624  0.0000E+00  0.2000E+01
    -12.552  0.0000E+00  0.2000E+01
    -12.480  0.0000E+00  0.2000E+01
    -12.409  0.0000E+00  0.2000E+01
    -12.337  0.0000E+00  0.2000E+01
    -12.266  0.0000E+00  0.2000E+01
    -12.194  0.0000E+00  0.2000E+01
    -12.122  0.0000E+00  0.2000E+01
    -12.051  0.0000E+00  0.2000E+01
    -11.979  0.0000E+00  0.2000E+01
    -11.907  0.0000E+00  0.2000E+01
    -11.836  0.0000E+00  0.2000E+01
    -11.764  0.0000E+00  0.2000E+01
    -11.692  0.0000E+00  0.2000E+01
    -11.621  0.0000E+00  0.2000E+01
    -11.549  0.0000E+00  0.2000E+01
    -11.477  0.0000E+00  0.2000E+01
    -11.406  0.0000E+00  0.2000E+01
    -11.334  0.0000E+00  0.2000E+01
    -11.262  0.0000E+00  0.2000E+01
    -11.191  0.0000E+00  0.2000E+01
    -11.119  0.0000E+00  0.2000E+01
    -11.047  0.0000E+00  0.2000E+01
    -10.976 -0.9913E-26  0.2000E+01
    -10.904 -0.2565E-23  0.2000E+01
    -10.832 -0.5136E-21  0.2000E+01
    -10.761 -0.7934E-19  0.2000E+01
    -10.689 -0.9452E-17  0.2000E+01
    -10.617 -0.8678E-15  0.2000E+01
    -10.546 -0.5984E-13  0.2000E+01
    -10.474 -0.3234E-11  0.2000E+01
    -10.402 -0.1348E-09  0.2000E+01
    -10.331 -0.4316E-08  0.2000E+01
    -10.259 -0.1059E-06  0.2000E+01
    -10.187 -0.1987E-05  0.2000E+01
    -10.116 -0.2842E-04  0.2000E+01
    -10.044 -0.3088E-03  0.2000E+01
     -9.972 -0.2534E-02  0.2000E+01
     -9.901 -0.1555E-01  0.1999E+01
     -9.829 -0.7025E-01  0.1994E+01
     -9.757 -0.2268E+00  0.1977E+01
     -9.686 -0.4856E+00  0.1943E+01
     -9.614 -0.5107E+00  0.1906E+01
     -9.542  0.5612E+00  0.1946E+01
     -9.471  0.3542E+01  0.2200E+01
     -9.399  0.7985E+01  0.2772E+01
     -9.327  0.1204E+02  0.3635E+01
     -9.256  0.1410E+02  0.4646E+01
     -9.184  0.1415E+02  0.5659E+01
     -9.112  0.1291E+02  0.6585E+01
     -9.041  0.1052E+02  0.7338E+01
     -8.969  0.6904E+01  0.7833E+01
     -8.897  0.3060E+01  0.8052E+01
     -8.826  0.4573E+00  0.8085E+01
     -8.754 -0.4743E+00  0.8051E+01
     -8.682 -0.4363E+00  0.8020E+01
     -8.611 -0.1998E+00  0.8005E+01
     -8.539 -0.6066E-01  0.8001E+01
     -8.467 -0.1314E-01  0.8000E+01
     -8.396 -0.2092E-02  0.8000E+01
     -8.324 -0.2491E-03  0.8000E+01
     -8.252 -0.2238E-04  0.8000E+01
     -8.181 -0.1527E-05  0.8000E+01
     -8.109 -0.7943E-07  0.8000E+01
     -8.037 -0.3160E-08  0.8000E+01
     -7.966 -0.9634E-10  0.8000E+01
     -7.894 -0.2256E-11  0.8000E+01
     -7.822 -0.4338E-13  0.8000E+01
     -7.751  0.0000E+00  0.8000E+01
     -7.679  0.0000E+00  0.8000E+01
     -7.607  0.0000E+00  0.8000E+01
     -7.536  0.0000E+00  0.8000E+01
     -7.464  0.0000E+00  0.8000E+01
     -7.392  0.0000E+00  0.8000E+01
     -7.321  0.0000E+00  0.8000E+01
     -7.249  0.0000E+00  0.8000E+01
     -7.177  0.0000E+00  0.8000E+01
     -7.106  0.0000E+00  0.8000E+01
     -7.034  0.0000E+00  0.8000E+01
     -6.962  0.0000E+00  0.8000E+01
     -6.891  0.0000E+00  0.8000E+01
     -6.819  0.0000E+00  0.8000E+01
     -6.747  0.0000E+00  0.8000E+01
     -6.676  0.0000E+00  0.8000E+01
     -6.604  0.0000E+00  0.8000E+01
     -6.532  0.0000E+00  0.8000E+01
     -6.461  0.0000E+00  0.8000E+01
     -6.389  0.0000E+00  0.8000E+01
     -6.317  0.0000E+00  0.8000E+01
     -6.246  0.0000E+00  0.8000E+01
     -6.174  0.0000E+00  0.8000E+01
     -6.102  0.0000E+00  0.8000E+01
     -6.031  0.0000E+00  0.8000E+01
     -5.959  0.0000E+00  0.8000E+01
     -5.887  0.0000E+00  0.8000E+01
     -5.816  0.0000E+00  0.8000E+01
     -5.744  0.0000E+00  0.8000E+01
     -5.673  0.0000E+00  0.8000E+01
     -5.601  0.0000E+00  0.8000E+01
     -5.529  0.0000E+00  0.8000E+01
     -5.458  0.0000E+00  0.8000E+01
     -5.386  0.0000E+00  0.8000E+01
     -5.314  0.0000E+00  0.8000E+01
     -5.243  0.0000E+00  0.8000E+01
     -5.171  0.0000E+00  0.8000E+01
     -5.099  0.0000E+00  0.8000E+01
     -5.028  0.0000E+00  0.8000E+01
     -4.956  0.0000E+00  0.8000E+01
     -4.884  0.0000E+00  0.8000E+01
     -4.813  0.0000E+00  0.8000E+01
     -4.741  0.0000E+00  0.8000E+01
     -4.669  0.0000E+00  0.8000E+01
     -4.598  0.0000E+00  0.8000E+01
     -4.526  0.0000E+00  0.8000E+01
     -4.454  0.0000E+00  0.8000E+01
     -4.383  0.0000E+00  0.8000E+01
     -4.311  0.0000E+00  0.8000E+01
     -4.239  0.0000E+00  0.8000E+01
     -4.168  0.0000E+00  0.8000E+01
     -4.096  0.0000E+00  0.8000E+01
     -4.024  0.0000E+00  0.8000E+01
     -3.953  0.0000E+00  0.8000E+01
     -3.881  0.0000E+00  0.8000E+01
     -3.809  0.0000E+00  0.8000E+01
     -3.738  0.0000E+00  0.8000E+01
     -3.666  0.0000E+00  0.8000E+01
     -3.594  0.0000E+00  0.8000E+01
     -3.523  0.0000E+00  0.8000E+01
     -3.451  0.0000E+00  0.8000E+01
     -3.379  0.0000E+00  0.8000E+01
     -3.308  0.0000E+00  0.8000E+01
     -3.236  0.0000E+00  0.8000E+01
     -3.164  0.0000E+00  0.8000E+01
     -3.093  0.0000E+00  0.8000E+01