    5    5    1    1
  0.1972522E+03  0.9779327E-09  0.9893088E-09  0.1019624E-08  0.2000000E-14
   50.000000000000000     
  CAR 
 unknown system                          
      8      4      8

  0.2500000E+00  0.2500000E+00  0.2500000E+00  0.2500000E+00
    1      -17.004584   1.000000
    2       -9.683193   1.000008
    3       -9.282082   1.031812
    4       -9.147208   0.968153
    5       -0.324198   0.000000
    6        0.566916   0.000000
    7        0.681711   0.000000
    8        0.713795   0.000000

 -0.2500000E+00  0.2500000E+00  0.2500000E+00  0.2500000E+00
    1      -17.004581   1.000000
    2       -9.683276   1.000008
    3       -9.282155   1.031798
    4       -9.147294   0.968294
    5       -0.322734   0.000000
    6        0.556965   0.000000
    7        0.666111   0.000000
    8        0.722926   0.000000

  0.2500000E+00 -0.2500000E+00  0.2500000E+00  0.2500000E+00
    1      -17.004614   1.000000
    2       -9.683264   1.000008
    3       -9.282176   1.031794
    4       -9.147264   0.968245
    5       -0.327436   0.000000
    6        0.568836   0.000000
    7        0.682690   0.000000
    8        0.728872   0.000000

 -0.2500000E+00 -0.2500000E+00  0.2500000E+00  0.2500000E+00
    1      -17.004613   1.000000
    2       -9.683307   1.000008
    3       -9.282148   1.031799
    4       -9.147158   0.968072
    5       -0.324484   0.000000
    6        0.577772   0.000000
    7        0.672232   0.000000
    8        0.709596   0.000000
