 vasp.5.4.4.18Apr17-6-g9f103f2a35 (build Jul 12 2018 13:43:46) complex           
 executed on             LinuxGNU date 2019.06.22  02:17:32
 running on    1 total cores
 distrk:  each k-point on    1 cores,    1 groups
 distr:  one band on NCORES_PER_BAND=   1 cores,    1 groups


--------------------------------------------------------------------------------------------------------


 INCAR:
 POTCAR:    PAW_PBE H 15Jun2001                   
 POTCAR:    PAW_PBE C 08Apr2002                   
 POTCAR:    PAW_PBE H 15Jun2001                   
   VRHFIN =H: ultrasoft test                                                    
   LEXCH  = PE                                                                  
   EATOM  =    12.4884 eV,    0.9179 Ry                                         
                                                                                
   TITEL  = PAW_PBE H 15Jun2001                                                 
   LULTRA =        F    use ultrasoft PP ?                                      
   IUNSCR =        0    unscreen: 0-lin 1-nonlin 2-no                           
   RPACOR =    0.000    partial core radius                                     
   POMASS =    1.000; ZVAL   =    1.000    mass and valenz                      
   RCORE  =    1.100    outmost cutoff radius                                   
   RWIGS  =    0.700; RWIGS  =    0.370    wigner-seitz radius (au A)           
   ENMAX  =  250.000; ENMIN  =  200.000 eV                                      
   RCLOC  =    0.701    cutoff for local pot                                    
   LCOR   =        T    correct aug charges                                     
   LPAW   =        T    paw PP                                                  
   EAUG   =  400.000                                                            
   RMAX   =    1.123    core radius for proj-oper                               
   RAUG   =    1.200    factor for augmentation sphere                          
   RDEP   =    1.112    radius for radial grids                                 
   RDEPT  =    0.926    core radius for aug-charge                              
                                                                                
   Atomic configuration                                                         
    2 entries                                                                   
     n  l   j            E        occ.                                          
     1  0  0.50        -6.4927   1.0000                                         
     2  1  0.50        -3.4015   0.0000                                         
   Description                                                                  
     l       E           TYP  RCUT    TYP  RCUT                                 
     0     -6.4927494     23  1.100                                             
     0      6.8029130     23  1.100                                             
     1     -4.0817478     23  1.100                                             
  local pseudopotential read in
  atomic valenz-charges read in
  non local Contribution for L=           0  read in
    real space projection operators read in
  non local Contribution for L=           0  read in
    real space projection operators read in
  non local Contribution for L=           1  read in
    real space projection operators read in
    PAW grid and wavefunctions read in

   number of l-projection  operators is LMAX  =           3
   number of lm-projection operators is LMMAX =           5

 POTCAR:    PAW_PBE C 08Apr2002                   
   VRHFIN =C: s2p2                                                              
   LEXCH  = PE                                                                  
   EATOM  =   147.1560 eV,   10.8157 Ry                                         
                                                                                
   TITEL  = PAW_PBE C 08Apr2002                                                 
   LULTRA =        F    use ultrasoft PP ?                                      
   IUNSCR =        1    unscreen: 0-lin 1-nonlin 2-no                           
   RPACOR =    1.200    partial core radius                                     
   POMASS =   12.011; ZVAL   =    4.000    mass and valenz                      
   RCORE  =    1.500    outmost cutoff radius                                   
   RWIGS  =    1.630; RWIGS  =    0.863    wigner-seitz radius (au A)           
   ENMAX  =  400.000; ENMIN  =  300.000 eV                                      
   ICORE  =        2    local potential                                         
   LCOR   =        T    correct aug charges                                     
   LPAW   =        T    paw PP                                                  
   EAUG   =  644.873                                                            
   DEXC   =    0.000                                                            
   RMAX   =    1.529    core radius for proj-oper                               
   RAUG   =    1.300    factor for augmentation sphere                          
   RDEP   =    1.501    radius for radial grids                                 
   RDEPT  =    1.300    core radius for aug-charge                              
                                                                                
   Atomic configuration                                                         
    4 entries                                                                   
     n  l   j            E        occ.                                          
     1  0  0.50      -273.3789   2.0000                                         
     2  0  0.50       -13.7508   2.0000                                         
     2  1  0.50        -5.2854   2.0000                                         
     3  2  1.50        -5.4423   0.0000                                         
   Description                                                                  
     l       E           TYP  RCUT    TYP  RCUT                                 
     0    -13.7508458     23  1.200                                             
     0     -8.2022199     23  1.200                                             
     1     -5.2854383     23  1.500                                             
     1     34.0145650     23  1.500                                             
     2     -5.4423304      7  1.500                                             
  local pseudopotential read in
  partial core-charges read in
  partial kinetic energy density read in
  atomic valenz-charges read in
  non local Contribution for L=           0  read in
    real space projection operators read in
  non local Contribution for L=           0  read in
    real space projection operators read in
  non local Contribution for L=           1  read in
    real space projection operators read in
  non local Contribution for L=           1  read in
    real space projection operators read in
    PAW grid and wavefunctions read in

   number of l-projection  operators is LMAX  =           4
   number of lm-projection operators is LMMAX =           8


 ----------------------------------------------------------------------------- 
|                                                                             |
|  ADVICE TO THIS USER RUNNING 'VASP/VAMP'   (HEAR YOUR MASTER'S VOICE ...):  |
|                                                                             |
|      You have a (more or less) 'small supercell' and for smaller cells      |
|      it is recommended  to use the reciprocal-space projection scheme!      |
|      The real space optimization is not  efficient for small cells and it   |
|      is also less accurate ...                                              |
|      Therefore set LREAL=.FALSE. in the  INCAR file                         |
|                                                                             |
 ----------------------------------------------------------------------------- 


 ----------------------------------------------------------------------------- 
|                                                                             |
|           W    W    AA    RRRRR   N    N  II  N    N   GGGG   !!!           |
|           W    W   A  A   R    R  NN   N  II  NN   N  G    G  !!!           |
|           W    W  A    A  R    R  N N  N  II  N N  N  G       !!!           |
|           W WW W  AAAAAA  RRRRR   N  N N  II  N  N N  G  GGG   !            |
|           WW  WW  A    A  R   R   N   NN  II  N   NN  G    G                |
|           W    W  A    A  R    R  N    N  II  N    N   GGGG   !!!           |
|                                                                             |
|     The real-space-projection scheme for the treatment of the nonlocal      |
|     pseudopotentials has been switched on -- but on file POTCAR I have      |
|     not found any entries signalling me that you have ever performed a      |
|     real-space optimization of all nonlocal projectors! BE WARNED that      |
|     a calculation using the real-space-projection scheme together with      |
|     nonlocal projectors which were not real-space-optimized (according      |
|     to the plane-wave-cutoff used in this calculation) might give more      |
|     or less inaccurate results                                              |
|     I hope you know what you are doing                                      |
|                                                                             |
 ----------------------------------------------------------------------------- 

  PAW_PBE H 15Jun2001                   :
 energy of atom  1       EATOM=  -12.4884
 kinetic energy error for atom=    0.0098 (will be added to EATOM!!)
  PAW_PBE C 08Apr2002                   :
 energy of atom  2       EATOM= -147.1560
 kinetic energy error for atom=    0.0288 (will be added to EATOM!!)


 POSCAR:  H  C                                   
  positions in cartesian coordinates
  No initial velocities read in
 exchange correlation table for  LEXCH =        8
   RHO(1)=    0.500       N(1)  =     2000
   RHO(2)=  100.500       N(2)  =     4000



--------------------------------------------------------------------------------------------------------


 ion  position               nearest neighbor table
   1  0.538  0.407  0.361-   5 1.10
   2  0.394  0.481  0.438-   5 1.08
   3  0.553  0.565  0.442-   5 1.08
   4  0.529  0.417  0.539-   5 1.12
   5  0.503  0.467  0.445-   2 1.08   3 1.08   1 1.10   4 1.12


IMPORTANT INFORMATION: All symmetrisations will be switched off!
NOSYMM: (Re-)initialisation of all symmetry stuff for point group C_1.




Automatic generation of k-mesh.
 generate k-points for:    2    2    2
Space group operators:
 irot       det(A)        alpha          n_x          n_y          n_z        tau_x        tau_y        tau_z
    1     1.000000     0.000001     1.000000     0.000000     0.000000     0.000000     0.000000     0.000000
 
 Subroutine IBZKPT returns following result:
 ===========================================
 
 Found      4 irreducible k-points:
 
 Following reciprocal coordinates:
            Coordinates               Weight
  0.250000  0.250000  0.250000      2.000000
 -0.250000  0.250000  0.250000      2.000000
  0.250000 -0.250000  0.250000      2.000000
 -0.250000 -0.250000  0.250000      2.000000
 
 Following cartesian coordinates:
            Coordinates               Weight
  0.025564  0.025485  0.024575      2.000000
 -0.025564  0.025057  0.025181      2.000000
  0.025564 -0.025057  0.023865      2.000000
 -0.025564 -0.025485  0.024471      2.000000
 


--------------------------------------------------------------------------------------------------------




 Dimension of arrays:
   k-points           NKPTS =      4   k-points in BZ     NKDIM =      4   number of bands    NBANDS=      8
   number of dos      NEDOS =    301   number of ions     NIONS =      5
   non local maximal  LDIM  =      4   non local SUM 2l+1 LMDIM =      8
   total plane-waves  NPLWV = 313600
   max r-space proj   IRMAX =    755   max aug-charges    IRDMAX=   3951
   dimension x,y,z NGX =    64 NGY =   70 NGZ =   70
   dimension x,y,z NGXF=   128 NGYF=  140 NGZF=  140
   support grid    NGXF=   128 NGYF=  140 NGZF=  140
   ions per type =               4   1
   NGX,Y,Z   is equivalent  to a cutoff of  10.88, 11.76, 11.41 a.u.
   NGXF,Y,Z  is equivalent  to a cutoff of  21.76, 23.53, 22.83 a.u.

 SYSTEM =  unknown system                          
 POSCAR =   H  C                                   

 Startparameter for this run:
   NWRITE =      2    write-flag & timer
   PREC   = a         normal or accurate (medium, high low for compatibility)
   ISTART =      0    job   : 0-new  1-cont  2-samecut
   ICHARG =      2    charge: 1-file 2-atom 10-const
   ISPIN  =      1    spin polarized calculation?
   LNONCOLLINEAR =      F non collinear calculations
   LSORBIT =      F    spin-orbit coupling
   INIWAV =      1    electr: 0-lowe 1-rand  2-diag
   LASPH  =      F    aspherical Exc in radial PAW
   METAGGA=      F    non-selfconsistent MetaGGA calc.

 Electronic Relaxation 1
   ENCUT  =  400.0 eV  29.40 Ry    5.42 a.u.  15.95 16.13 16.63*2*pi/ulx,y,z
   ENINI  =  400.0     initial cutoff
   ENAUG  =  644.9 eV  augmentation charge cutoff
   NELM   =     60;   NELMIN=  2; NELMDL= -5     # of ELM steps 
   EDIFF  = 0.1E-05   stopping-criterion for ELM
   LREAL  =      T    real-space projection
   NLSPLINE    = F    spline interpolate recip. space projectors
   LCOMPAT=      F    compatible to vasp.4.4
   GGA_COMPAT  = T    GGA compatible to vasp.4.4-vasp.4.6
   LMAXPAW     = -100 max onsite density
   LMAXMIX     =    2 max onsite mixed and CHGCAR
   VOSKOWN=      0    Vosko Wilk Nusair interpolation
   ROPT   =    0.00000   0.00000
 Ionic relaxation
   EDIFFG = 0.1E-04   stopping-criterion for IOM
   NSW    =     10    number of steps for IOM
   NBLOCK =      1;   KBLOCK =      1    inner block; outer block 
   IBRION =      0    ionic relax: 0-MD 1-quasi-New 2-CG
   NFREE  =      0    steps in history (QN), initial steepest desc. (CG)
   ISIF   =      2    stress and relaxation
   IWAVPR =     12    prediction:  0-non 1-charg 2-wave 3-comb
   ISYM   =      0    0-nonsym 1-usesym 2-fastsym
   LCORR  =      T    Harris-Foulkes like correction to forces

   POTIM  = 2.0000    time-step for ionic-motion
   TEIN   =   50.0    initial temperature
   TEBEG  =   50.0;   TEEND  =  50.0 temperature during run
   SMASS  =   0.00    Nose mass-parameter (am)
   estimated Nose-frequenzy (Omega)   =  0.79E+14 period in steps = 40.00 mass=   0.123E-29a.u.
   SCALEE = 1.0000    scale energy and forces
   NPACO  =    256;   APACO  = 16.0  distance and # of slots for P.C.
   PSTRESS=    0.0 pullay stress

  Mass of Ions in am
   POMASS =   1.00 12.01
  Ionic Valenz
   ZVAL   =   1.00  4.00
  Atomic Wigner-Seitz radii
   RWIGS  =  -1.00 -1.00
  virtual crystal weights 
   VCA    =   1.00  1.00
   NELECT =       8.0000    total number of electrons
   NUPDOWN=      -1.0000    fix difference up-down

 DOS related values:
   EMIN   =  10.00;   EMAX   =-10.00  energy-range for DOS
   EFERMI =   0.00
   ISMEAR =     1;   SIGMA  =   0.20  broadening in eV -4-tet -1-fermi 0-gaus

 Electronic relaxation 2 (details)
   IALGO  =     68    algorithm
   LDIAG  =      T    sub-space diagonalisation (order eigenvalues)
   LSUBROT=      F    optimize rotation matrix (better conditioning)
   TURBO    =      0    0=normal 1=particle mesh
   IRESTART =      0    0=no restart 2=restart with 2 vectors
   NREBOOT  =      0    no. of reboots
   NMIN     =      0    reboot dimension
   EREF     =   0.00    reference energy to select bands
   IMIX   =      4    mixing-type and parameters
     AMIX     =   0.40;   BMIX     =  1.00
     AMIX_MAG =   1.60;   BMIX_MAG =  1.00
     AMIN     =   0.10
     WC   =   100.;   INIMIX=   1;  MIXPRE=   1;  MAXMIX=  50

 Intra band minimization:
   WEIMIN = 0.0010     energy-eigenvalue tresh-hold
   EBREAK =  0.31E-07  absolut break condition
   DEPER  =   0.30     relativ break condition  

   TIME   =   0.40     timestep for ELM

  volume/ion in A,a.u.               =     197.25      1331.12
  Fermi-wavevector in a.u.,A,eV,Ry     =   0.328933  0.621593  1.472109  0.108197
  Thomas-Fermi vector in A             =   1.222947

 Write flags
   LWAVE        =      F    write WAVECAR
   LDOWNSAMPLE  =      F    k-point downsampling of WAVECAR
   LCHARG       =      F    write CHGCAR
   LVTOT        =      F    write LOCPOT, total local potential
   LVHAR        =      F    write LOCPOT, Hartree potential only
   LELF         =      F    write electronic localiz. function (ELF)
   LORBIT       =      0    0 simple, 1 ext, 2 COOP (PROOUT), +10 PAW based schemes


 Dipole corrections
   LMONO  =      F    monopole corrections only (constant potential shift)
   LDIPOL =      F    correct potential (dipole corrections)
   IDIPOL =      0    1-x, 2-y, 3-z, 4-all directions 
   EPSILON=  1.0000000 bulk dielectric constant

 Exchange correlation treatment:
   GGA     =    --    GGA type
   LEXCH   =     8    internal setting for exchange type
   VOSKOWN=      0    Vosko Wilk Nusair interpolation
   LHFCALC =     F    Hartree Fock is set to
   LHFONE  =     F    Hartree Fock one center treatment
   AEXX    =    0.0000 exact exchange contribution

 Linear response parameters
   LEPSILON=     F    determine dielectric tensor
   LRPA    =     F    only Hartree local field effects (RPA)
   LNABLA  =     F    use nabla operator in PAW spheres
   LVEL    =     F    velocity operator in full k-point grid
   LINTERFAST=   F  fast interpolation
   KINTER  =     0    interpolate to denser k-point grid
   CSHIFT  =0.1000    complex shift for real part using Kramers Kronig
   OMEGAMAX=  -1.0    maximum frequency
   DEG_THRESHOLD= 0.2000000E-02 threshold for treating states as degnerate
   RTIME   =   -0.100 relaxation time in fs
  (WPLASMAI=    0.000 imaginary part of plasma frequency in eV, 0.658/RTIME)
   DFIELD  = 0.0000000 0.0000000 0.0000000 field for delta impulse in time

 Orbital magnetization related:
   ORBITALMAG=     F  switch on orbital magnetization
   LCHIMAG   =     F  perturbation theory with respect to B field
   DQ        =  0.001000  dq finite difference perturbation B field
   LLRAUG    =     F  two centre corrections for induced B field



--------------------------------------------------------------------------------------------------------


 molecular dynamics for ions
   using nose mass (canonical ensemble)
 charge density and potential will be updated during run
 non-spin polarized calculation
 RMM-DIIS sequential band-by-band and
  variant of blocked Davidson during initial phase
 perform sub-space diagonalisation
    before iterative eigenvector-optimisation
 modified Broyden-mixing scheme, WC =      100.0
 initial mixing is a Kerker type mixing with AMIX =  0.4000 and BMIX =      1.0000
 Hartree-type preconditioning will be used
 using additional bands            4
 real space projection scheme for non local part
 use partial core corrections
 calculate Harris-corrections to forces   (improved forces if not selfconsistent)
 use gradient corrections 
 use of overlap-Matrix (Vanderbilt PP)
 Methfessel and Paxton  Order N= 1 SIGMA  =   0.20


--------------------------------------------------------------------------------------------------------


  energy-cutoff  :      400.00
  volume of cell :      986.26
      direct lattice vectors                 reciprocal lattice vectors
     9.779326552  0.000000000  0.000000000     0.102256530  0.000854505 -0.001211646
    -0.082668497  9.892742687  0.000000000    -0.000000000  0.101084202  0.001419779
     0.121992062 -0.143187040 10.194503948     0.000000000 -0.000000000  0.098092071

  length of vectors
     9.779326552  9.893088090 10.196239274     0.102267278  0.101094172  0.098092071



 k-points in units of 2pi/SCALE and weight: read from INCAR                         
   0.02556413  0.02548468  0.02457505       0.250
  -0.02556413  0.02505742  0.02518087       0.250
   0.02556413 -0.02505742  0.02386516       0.250
  -0.02556413 -0.02548468  0.02447098       0.250

 k-points in reciprocal lattice and weights: read from INCAR                         
   0.25000000  0.25000000  0.25000000       0.250
  -0.25000000  0.25000000  0.25000000       0.250
   0.25000000 -0.25000000  0.25000000       0.250
  -0.25000000 -0.25000000  0.25000000       0.250

 position of ions in fractional coordinates (direct lattice) 
   0.53826984  0.40665551  0.36073236
   0.39418974  0.48075695  0.43774560
   0.55277368  0.56523567  0.44201593
   0.52865907  0.41680913  0.53916690
   0.50322369  0.46717978  0.44533263

 position of ions in cartesian coordinates  (Angst):
   5.27430546  3.97128613  3.67748744
   3.86856825  4.69332534  4.46259926
   5.41294960  5.52844009  4.50613312
   5.20124676  4.04618375  5.49653909
   4.93689480  4.55792349  4.53994520



--------------------------------------------------------------------------------------------------------


 k-point  1 :   0.2500 0.2500 0.2500  plane waves:   17908
 k-point  2 :  -0.2500 0.2500 0.2500  plane waves:   17933
 k-point  3 :   0.2500-0.2500 0.2500  plane waves:   17913
 k-point  4 :  -0.2500-0.2500 0.2500  plane waves:   17916

 maximum and minimum number of plane-waves per node :     17933    17908

 maximum number of plane-waves:     17933
 maximum index in each direction: 
   IXMAX=   16   IYMAX=   16   IZMAX=   16
   IXMIN=  -16   IYMIN=  -16   IZMIN=  -16


 serial   3D FFT for wavefunctions
 parallel 3D FFT for charge:
    minimum data exchange during FFTs selected (reduces bandwidth)


 total amount of memory used by VASP MPI-rank0   280493. kBytes
=======================================================================

   base      :      30000. kBytes
   nonlr-proj:        156. kBytes
   fftplans  :      86584. kBytes
   grid      :     154542. kBytes
   one-center:         15. kBytes
   wavefun   :       9196. kBytes

     INWAV:  cpu time    0.0000: real time    0.0000
 Broyden mixing: mesh for mixing (old mesh)
   NGX = 31   NGY = 33   NGZ = 33
  (NGX  =128   NGY  =140   NGZ  =140)
  gives a total of  33759 points

 initial charge density was supplied:
 charge density of overlapping atoms calculated
 number of electron       8.0000000 magnetization 
 keeping initial charge density in first step


--------------------------------------------------------------------------------------------------------


 Maximum index for non-local projection operator          685
 Maximum index for augmentation-charges         3643 (set IRDMAX)


--------------------------------------------------------------------------------------------------------


 First call to EWALD:  gamma=   0.178
 Maximum number of real-space cells 3x 3x 3
 Maximum number of reciprocal cells 3x 3x 3

    FEWALD:  cpu time    0.0007: real time    0.0007


--------------------------------------- Iteration      1(   1)  ---------------------------------------


    POTLOK:  cpu time    1.6297: real time    1.6338
    SETDIJ:  cpu time    0.0065: real time    0.0065
     EDDAV:  cpu time    2.6815: real time    2.6878
       DOS:  cpu time    0.0003: real time    0.0003
    --------------------------------------------
      LOOP:  cpu time    4.3180: real time    4.3284

 eigenvalue-minimisations  :    96
 total energy-change (2. order) : 0.1207485E+02  (-0.2004150E+03)
 number of electron       8.0000000 magnetization 
 augmentation part        8.0000000 magnetization 

 Free energy of the ion-electron system (eV)
  ---------------------------------------------------
  alpha Z        PSCENC =         0.24562550
  Ewald energy   TEWEN  =       129.01004753
  -Hartree energ DENC   =      -243.88407211
  -exchange      EXHF   =         0.00000000
  -V(xc)+E(xc)   XCENC  =        22.02916338
  PAW double counting   =       117.05815612     -117.66307307
  entropy T*S    EENTRO =         0.00289895
  eigenvalues    EBANDS =       -91.76565013
  atomic energy  EATOM  =       197.04175453
  Solvation  Ediel_sol  =         0.00000000
  ---------------------------------------------------
  free energy    TOTEN  =        12.07485071 eV

  energy without entropy =       12.07195176  energy(sigma->0) =       12.07388439


--------------------------------------------------------------------------------------------------------




--------------------------------------- Iteration      1(   2)  ---------------------------------------


     EDDAV:  cpu time    2.0323: real time    2.0372
       DOS:  cpu time    0.0002: real time    0.0002
    --------------------------------------------
      LOOP:  cpu time    2.0325: real time    2.0374

 eigenvalue-minimisations  :    64
 total energy-change (2. order) :-0.3560616E+02  (-0.3560616E+02)
 number of electron       8.0000000 magnetization 
 augmentation part        8.0000000 magnetization 

 Free energy of the ion-electron system (eV)
  ---------------------------------------------------
  alpha Z        PSCENC =         0.24562550
  Ewald energy   TEWEN  =       129.01004753
  -Hartree energ DENC   =      -243.88407211
  -exchange      EXHF   =         0.00000000
  -V(xc)+E(xc)   XCENC  =        22.02916338
  PAW double counting   =       117.05815612     -117.66307307
  entropy T*S    EENTRO =         0.00289902
  eigenvalues    EBANDS =      -127.37181425
  atomic energy  EATOM  =       197.04175453
  Solvation  Ediel_sol  =         0.00000000
  ---------------------------------------------------
  free energy    TOTEN  =       -23.53131335 eV

  energy without entropy =      -23.53421237  energy(sigma->0) =      -23.53227969


--------------------------------------------------------------------------------------------------------




--------------------------------------- Iteration      1(   3)  ---------------------------------------


     EDDAV:  cpu time    2.0638: real time    2.0687
       DOS:  cpu time    0.0002: real time    0.0002
    --------------------------------------------
      LOOP:  cpu time    2.0641: real time    2.0690

 eigenvalue-minimisations  :    64
 total energy-change (2. order) :-0.3932583E+01  (-0.3952969E+01)
 number of electron       8.0000000 magnetization 
 augmentation part        8.0000000 magnetization 

 Free energy of the ion-electron system (eV)
  ---------------------------------------------------
  alpha Z        PSCENC =         0.24562550
  Ewald energy   TEWEN  =       129.01004753
  -Hartree energ DENC   =      -243.88407211
  -exchange      EXHF   =         0.00000000
  -V(xc)+E(xc)   XCENC  =        22.02916338
  PAW double counting   =       117.05815612     -117.66307307
  entropy T*S    EENTRO =         0.03514714
  eigenvalues    EBANDS =      -131.33664561
  atomic energy  EATOM  =       197.04175453
  Solvation  Ediel_sol  =         0.00000000
  ---------------------------------------------------
  free energy    TOTEN  =       -27.46389658 eV

  energy without entropy =      -27.49904372  energy(sigma->0) =      -27.47561229


--------------------------------------------------------------------------------------------------------




--------------------------------------- Iteration      1(   4)  ---------------------------------------


     EDDAV:  cpu time    3.7143: real time    3.7232
       DOS:  cpu time    0.0002: real time    0.0002
    --------------------------------------------
      LOOP:  cpu time    3.7146: real time    3.7234

 eigenvalue-minimisations  :   128
 total energy-change (2. order) :-0.1542602E+00  (-0.1538403E+00)
 number of electron       8.0000000 magnetization 
 augmentation part        8.0000000 magnetization 

 Free energy of the ion-electron system (eV)
  ---------------------------------------------------
  alpha Z        PSCENC =         0.24562550
  Ewald energy   TEWEN  =       129.01004753
  -Hartree energ DENC   =      -243.88407211
  -exchange      EXHF   =         0.00000000
  -V(xc)+E(xc)   XCENC  =        22.02916338
  PAW double counting   =       117.05815612     -117.66307307
  entropy T*S    EENTRO =         0.03576596
  eigenvalues    EBANDS =      -131.49152467
  atomic energy  EATOM  =       197.04175453
  Solvation  Ediel_sol  =         0.00000000
  ---------------------------------------------------
  free energy    TOTEN  =       -27.61815682 eV

  energy without entropy =      -27.65392278  energy(sigma->0) =      -27.63007881


--------------------------------------------------------------------------------------------------------




--------------------------------------- Iteration      1(   5)  ---------------------------------------


     EDDAV:  cpu time    2.8682: real time    2.8750
       DOS:  cpu time    0.0002: real time    0.0002
    CHARGE:  cpu time    0.2029: real time    0.2033
    MIXING:  cpu time    0.0396: real time    0.0397
    --------------------------------------------
      LOOP:  cpu time    3.1109: real time    3.1183

 eigenvalue-minimisations  :    96
 total energy-change (2. order) :-0.4846691E-04  (-0.4846662E-04)
 number of electron       8.0000000 magnetization 
 augmentation part        0.2272036 magnetization 

 Broyden mixing:
  rms(total) = 0.88320E+00    rms(broyden)= 0.88294E+00
  rms(prec ) = 0.12455E+01
  weight for this iteration     100.00

 Free energy of the ion-electron system (eV)
  ---------------------------------------------------
  alpha Z        PSCENC =         0.24562550
  Ewald energy   TEWEN  =       129.01004753
  -Hartree energ DENC   =      -243.88407211
  -exchange      EXHF   =         0.00000000
  -V(xc)+E(xc)   XCENC  =        22.02916338
  PAW double counting   =       117.05815612     -117.66307307
  entropy T*S    EENTRO =         0.03576616
  eigenvalues    EBANDS =      -131.49157334
  atomic energy  EATOM  =       197.04175453
  Solvation  Ediel_sol  =         0.00000000
  ---------------------------------------------------
  free energy    TOTEN  =       -27.61820529 eV

  energy without entropy =      -27.65397145  energy(sigma->0) =      -27.63012734


--------------------------------------------------------------------------------------------------------




--------------------------------------- Iteration      1(   6)  ---------------------------------------


    POTLOK:  cpu time    1.7732: real time    1.7774
    SETDIJ:  cpu time    0.0066: real time    0.0066
    EDDIAG:  cpu time    0.4259: real time    0.4269
  RMM-DIIS:  cpu time    1.4816: real time    1.4852
    ORTHCH:  cpu time    0.0122: real time    0.0122
       DOS:  cpu time    0.0002: real time    0.0002
    CHARGE:  cpu time    0.1949: real time    0.1954
    MIXING:  cpu time    0.0401: real time    0.0402
    --------------------------------------------
      LOOP:  cpu time    3.9347: real time    3.9440

 eigenvalue-minimisations  :    64
 total energy-change (2. order) : 0.2951953E+01  (-0.5477201E+00)
 number of electron       8.0000000 magnetization 
 augmentation part        0.2000615 magnetization 

 Broyden mixing:
  rms(total) = 0.43796E+00    rms(broyden)= 0.43785E+00
  rms(prec ) = 0.56624E+00
  weight for this iteration     100.00

 eigenvalues of (default mixing * dielectric matrix)
  average eigenvalue GAMMA=   1.2786
  1.2786

 Free energy of the ion-electron system (eV)
  ---------------------------------------------------
  alpha Z        PSCENC =         0.24562550
  Ewald energy   TEWEN  =       129.01004753
  -Hartree energ DENC   =      -263.80153859
  -exchange      EXHF   =         0.00000000
  -V(xc)+E(xc)   XCENC  =        23.23860468
  PAW double counting   =       241.13545429     -241.91795296
  entropy T*S    EENTRO =         0.03876299
  eigenvalues    EBANDS =      -109.65701043
  atomic energy  EATOM  =       197.04175453
  Solvation  Ediel_sol  =         0.00000000
  ---------------------------------------------------
  free energy    TOTEN  =       -24.66625245 eV

  energy without entropy =      -24.70501544  energy(sigma->0) =      -24.67917345


--------------------------------------------------------------------------------------------------------




--------------------------------------- Iteration      1(   7)  ---------------------------------------


    POTLOK:  cpu time    1.7573: real time    1.7614
    SETDIJ:  cpu time    0.0064: real time    0.0065
    EDDIAG:  cpu time    0.4304: real time    0.4315
  RMM-DIIS:  cpu time    1.5100: real time    1.5136
    ORTHCH:  cpu time    0.0121: real time    0.0121
       DOS:  cpu time    0.0002: real time    0.0002
    CHARGE:  cpu time    0.1860: real time    0.1864
    MIXING:  cpu time    0.0414: real time    0.0415
    --------------------------------------------
      LOOP:  cpu time    3.9437: real time    3.9531

 eigenvalue-minimisations  :    64
 total energy-change (2. order) : 0.4928763E+00  (-0.1229565E+00)
 number of electron       8.0000000 magnetization 
 augmentation part        0.1896977 magnetization 

 Broyden mixing:
  rms(total) = 0.24446E+00    rms(broyden)= 0.24438E+00
  rms(prec ) = 0.29686E+00
  weight for this iteration     100.00

 eigenvalues of (default mixing * dielectric matrix)
  average eigenvalue GAMMA=   1.4195
  1.4195  1.4195

 Free energy of the ion-electron system (eV)
  ---------------------------------------------------
  alpha Z        PSCENC =         0.24562550
  Ewald energy   TEWEN  =       129.01004753
  -Hartree energ DENC   =      -275.36852264
  -exchange      EXHF   =         0.00000000
  -V(xc)+E(xc)   XCENC  =        24.08651846
  PAW double counting   =       369.00468455     -369.82715024
  entropy T*S    EENTRO =         0.03991966
  eigenvalues    EBANDS =       -98.40625352
  atomic energy  EATOM  =       197.04175453
  Solvation  Ediel_sol  =         0.00000000
  ---------------------------------------------------
  free energy    TOTEN  =       -24.17337617 eV

  energy without entropy =      -24.21329583  energy(sigma->0) =      -24.18668272


--------------------------------------------------------------------------------------------------------




--------------------------------------- Iteration      1(   8)  ---------------------------------------


    POTLOK:  cpu time    1.7594: real time    1.7636
    SETDIJ:  cpu time    0.0064: real time    0.0065
    EDDIAG:  cpu time    0.4363: real time    0.4373
  RMM-DIIS:  cpu time    1.5112: real time    1.5148
    ORTHCH:  cpu time    0.0112: real time    0.0112
       DOS:  cpu time    0.0002: real time    0.0002
    CHARGE:  cpu time    0.1836: real time    0.1840
    MIXING:  cpu time    0.0425: real time    0.0426
    --------------------------------------------
      LOOP:  cpu time    3.9509: real time    3.9602

 eigenvalue-minimisations  :    64
 total energy-change (2. order) : 0.1110094E+00  (-0.9575329E-02)
 number of electron       8.0000000 magnetization 
 augmentation part        0.1881582 magnetization 

 Broyden mixing:
  rms(total) = 0.13033E+00    rms(broyden)= 0.13026E+00
  rms(prec ) = 0.17007E+00
  weight for this iteration     100.00

 eigenvalues of (default mixing * dielectric matrix)
  average eigenvalue GAMMA=   1.4270
  2.2165  1.4577  0.6066

 Free energy of the ion-electron system (eV)
  ---------------------------------------------------
  alpha Z        PSCENC =         0.24562550
  Ewald energy   TEWEN  =       129.01004753
  -Hartree energ DENC   =      -278.96211129
  -exchange      EXHF   =         0.00000000
  -V(xc)+E(xc)   XCENC  =        24.42697305
  PAW double counting   =       438.04627994     -438.85215900
  entropy T*S    EENTRO =         0.04075962
  eigenvalues    EBANDS =       -95.05953667
  atomic energy  EATOM  =       197.04175453
  Solvation  Ediel_sol  =         0.00000000
  ---------------------------------------------------
  free energy    TOTEN  =       -24.06236679 eV

  energy without entropy =      -24.10312642  energy(sigma->0) =      -24.07595333


--------------------------------------------------------------------------------------------------------




--------------------------------------- Iteration      1(   9)  ---------------------------------------


    POTLOK:  cpu time    1.7642: real time    1.7684
    SETDIJ:  cpu time    0.0067: real time    0.0067
    EDDIAG:  cpu time    0.4577: real time    0.4588
  RMM-DIIS:  cpu time    1.4650: real time    1.4685
    ORTHCH:  cpu time    0.0112: real time    0.0112
       DOS:  cpu time    0.0002: real time    0.0002
    CHARGE:  cpu time    0.1584: real time    0.1587
    MIXING:  cpu time    0.0413: real time    0.0414
    --------------------------------------------
      LOOP:  cpu time    3.9046: real time    3.9139

 eigenvalue-minimisations  :    64
 total energy-change (2. order) : 0.4978382E-01  (-0.5982132E-02)
 number of electron       8.0000000 magnetization 
 augmentation part        0.1875987 magnetization 

 Broyden mixing:
  rms(total) = 0.37574E-01    rms(broyden)= 0.37529E-01
  rms(prec ) = 0.61807E-01
  weight for this iteration     100.00

 eigenvalues of (default mixing * dielectric matrix)
  average eigenvalue GAMMA=   1.2391
  2.1936  1.4355  0.6637  0.6637

 Free energy of the ion-electron system (eV)
  ---------------------------------------------------
  alpha Z        PSCENC =         0.24562550
  Ewald energy   TEWEN  =       129.01004753
  -Hartree energ DENC   =      -281.53947004
  -exchange      EXHF   =         0.00000000
  -V(xc)+E(xc)   XCENC  =        24.66893640
  PAW double counting   =       486.55439826     -487.34626113
  entropy T*S    EENTRO =         0.03640330
  eigenvalues    EBANDS =       -92.68401733
  atomic energy  EATOM  =       197.04175453
  Solvation  Ediel_sol  =         0.00000000
  ---------------------------------------------------
  free energy    TOTEN  =       -24.01258297 eV

  energy without entropy =      -24.04898627  energy(sigma->0) =      -24.02471741


--------------------------------------------------------------------------------------------------------




--------------------------------------- Iteration      1(  10)  ---------------------------------------


    POTLOK:  cpu time    1.7901: real time    1.7944
    SETDIJ:  cpu time    0.0065: real time    0.0065
    EDDIAG:  cpu time    0.4792: real time    0.4804
  RMM-DIIS:  cpu time    1.4315: real time    1.4349
    ORTHCH:  cpu time    0.0115: real time    0.0115
       DOS:  cpu time    0.0002: real time    0.0002
    CHARGE:  cpu time    0.1728: real time    0.1732
    MIXING:  cpu time    0.0422: real time    0.0423
    --------------------------------------------
      LOOP:  cpu time    3.9340: real time    3.9434

 eigenvalue-minimisations  :    64
 total energy-change (2. order) : 0.3158943E-02  (-0.4132467E-03)
 number of electron       8.0000000 magnetization 
 augmentation part        0.1874737 magnetization 

 Broyden mixing:
  rms(total) = 0.20070E-01    rms(broyden)= 0.20046E-01
  rms(prec ) = 0.40805E-01
  weight for this iteration     100.00

 eigenvalues of (default mixing * dielectric matrix)
  average eigenvalue GAMMA=   1.2467
  1.8687  1.5446  1.5446  0.6377  0.6377

 Free energy of the ion-electron system (eV)
  ---------------------------------------------------
  alpha Z        PSCENC =         0.24562550
  Ewald energy   TEWEN  =       129.01004753
  -Hartree energ DENC   =      -282.16850246
  -exchange      EXHF   =         0.00000000
  -V(xc)+E(xc)   XCENC  =        24.69955716
  PAW double counting   =       486.33924352     -487.13276771
  entropy T*S    EENTRO =         0.03572530
  eigenvalues    EBANDS =       -92.08010739
  atomic energy  EATOM  =       197.04175453
  Solvation  Ediel_sol  =         0.00000000
  ---------------------------------------------------
  free energy    TOTEN  =       -24.00942403 eV

  energy without entropy =      -24.04514933  energy(sigma->0) =      -24.02133246


--------------------------------------------------------------------------------------------------------




--------------------------------------- Iteration      1(  11)  ---------------------------------------


    POTLOK:  cpu time    1.7811: real time    1.7854
    SETDIJ:  cpu time    0.0065: real time    0.0065
    EDDIAG:  cpu time    0.4758: real time    0.4770
  RMM-DIIS:  cpu time    1.4223: real time    1.4256
    ORTHCH:  cpu time    0.0111: real time    0.0111
       DOS:  cpu time    0.0002: real time    0.0002
    CHARGE:  cpu time    0.1610: real time    0.1614
    MIXING:  cpu time    0.0429: real time    0.0430
    --------------------------------------------
      LOOP:  cpu time    3.9009: real time    3.9102

 eigenvalue-minimisations  :    64
 total energy-change (2. order) : 0.5262962E-03  (-0.1521186E-02)
 number of electron       8.0000000 magnetization 
 augmentation part        0.1865469 magnetization 

 Broyden mixing:
  rms(total) = 0.25465E-01    rms(broyden)= 0.25446E-01
  rms(prec ) = 0.38064E-01
  weight for this iteration     100.00

 eigenvalues of (default mixing * dielectric matrix)
  average eigenvalue GAMMA=   1.4257
  2.5287  2.5287  1.1109  1.1109  0.6376  0.6376

 Free energy of the ion-electron system (eV)
  ---------------------------------------------------
  alpha Z        PSCENC =         0.24562550
  Ewald energy   TEWEN  =       129.01004753
  -Hartree energ DENC   =      -283.68698731
  -exchange      EXHF   =         0.00000000
  -V(xc)+E(xc)   XCENC  =        24.75610837
  PAW double counting   =       479.01551219     -479.81311625
  entropy T*S    EENTRO =         0.03629437
  eigenvalues    EBANDS =       -90.61413668
  atomic energy  EATOM  =       197.04175453
  Solvation  Ediel_sol  =         0.00000000
  ---------------------------------------------------
  free energy    TOTEN  =       -24.00889773 eV

  energy without entropy =      -24.04519211  energy(sigma->0) =      -24.02099586


--------------------------------------------------------------------------------------------------------




--------------------------------------- Iteration      1(  12)  ---------------------------------------


    POTLOK:  cpu time    1.7168: real time    1.7209
    SETDIJ:  cpu time    0.0065: real time    0.0065
    EDDIAG:  cpu time    0.4598: real time    0.4609
  RMM-DIIS:  cpu time    1.4830: real time    1.4865
    ORTHCH:  cpu time    0.0113: real time    0.0113
       DOS:  cpu time    0.0002: real time    0.0002
    CHARGE:  cpu time    0.1762: real time    0.1766
    MIXING:  cpu time    0.0435: real time    0.0436
    --------------------------------------------
      LOOP:  cpu time    3.8973: real time    3.9066

 eigenvalue-minimisations  :    64
 total energy-change (2. order) : 0.4603751E-02  (-0.2752261E-03)
 number of electron       8.0000000 magnetization 
 augmentation part        0.1865940 magnetization 

 Broyden mixing:
  rms(total) = 0.12677E-01    rms(broyden)= 0.12649E-01
  rms(prec ) = 0.20021E-01
  weight for this iteration     100.00

 eigenvalues of (default mixing * dielectric matrix)
  average eigenvalue GAMMA=   1.4548
  3.0845  2.4304  1.2471  1.2471  0.7923  0.7923  0.5899

 Free energy of the ion-electron system (eV)
  ---------------------------------------------------
  alpha Z        PSCENC =         0.24562550
  Ewald energy   TEWEN  =       129.01004753
  -Hartree energ DENC   =      -284.20434468
  -exchange      EXHF   =         0.00000000
  -V(xc)+E(xc)   XCENC  =        24.77944660
  PAW double counting   =       477.88233224     -478.67500962
  entropy T*S    EENTRO =         0.03603317
  eigenvalues    EBANDS =       -90.12017925
  atomic energy  EATOM  =       197.04175453
  Solvation  Ediel_sol  =         0.00000000
  ---------------------------------------------------
  free energy    TOTEN  =       -24.00429398 eV

  energy without entropy =      -24.04032715  energy(sigma->0) =      -24.01630504


--------------------------------------------------------------------------------------------------------




--------------------------------------- Iteration      1(  13)  ---------------------------------------


    POTLOK:  cpu time    1.6563: real time    1.6602
    SETDIJ:  cpu time    0.0067: real time    0.0067
    EDDIAG:  cpu time    0.4494: real time    0.4505
  RMM-DIIS:  cpu time    1.5161: real time    1.5197
    ORTHCH:  cpu time    0.0116: real time    0.0116
       DOS:  cpu time    0.0002: real time    0.0002
    CHARGE:  cpu time    0.1897: real time    0.1902
    MIXING:  cpu time    0.0454: real time    0.0455
    --------------------------------------------
      LOOP:  cpu time    3.8755: real time    3.8847

 eigenvalue-minimisations  :    64
 total energy-change (2. order) :-0.2416629E-02  (-0.1250498E-03)
 number of electron       8.0000000 magnetization 
 augmentation part        0.1867398 magnetization 

 Broyden mixing:
  rms(total) = 0.15731E-01    rms(broyden)= 0.15713E-01
  rms(prec ) = 0.22248E-01
  weight for this iteration     100.00

 eigenvalues of (default mixing * dielectric matrix)
  average eigenvalue GAMMA=   1.6141
  3.7747  2.4193  2.4193  1.2206  1.0551  0.7238  0.7238  0.5762

 Free energy of the ion-electron system (eV)
  ---------------------------------------------------
  alpha Z        PSCENC =         0.24562550
  Ewald energy   TEWEN  =       129.01004753
  -Hartree energ DENC   =      -284.50554715
  -exchange      EXHF   =         0.00000000
  -V(xc)+E(xc)   XCENC  =        24.79101867
  PAW double counting   =       477.97245889     -478.76374109
  entropy T*S    EENTRO =         0.03606396
  eigenvalues    EBANDS =       -89.83439145
  atomic energy  EATOM  =       197.04175453
  Solvation  Ediel_sol  =         0.00000000
  ---------------------------------------------------
  free energy    TOTEN  =       -24.00671061 eV

  energy without entropy =      -24.04277458  energy(sigma->0) =      -24.01873193


--------------------------------------------------------------------------------------------------------




--------------------------------------- Iteration      1(  14)  ---------------------------------------


    POTLOK:  cpu time    1.5686: real time    1.5724
    SETDIJ:  cpu time    0.0065: real time    0.0065
    EDDIAG:  cpu time    0.4603: real time    0.4614
  RMM-DIIS:  cpu time    1.5707: real time    1.5745
    ORTHCH:  cpu time    0.0112: real time    0.0112
       DOS:  cpu time    0.0002: real time    0.0002
    CHARGE:  cpu time    0.1693: real time    0.1697
    MIXING:  cpu time    0.0443: real time    0.0444
    --------------------------------------------
      LOOP:  cpu time    3.8310: real time    3.8401

 eigenvalue-minimisations  :    64
 total energy-change (2. order) :-0.5655287E-02  (-0.1619967E-03)
 number of electron       8.0000000 magnetization 
 augmentation part        0.1867273 magnetization 

 Broyden mixing:
  rms(total) = 0.14711E-01    rms(broyden)= 0.14684E-01
  rms(prec ) = 0.19615E-01
  weight for this iteration     100.00

 eigenvalues of (default mixing * dielectric matrix)
  average eigenvalue GAMMA=   1.5773
  4.2604  2.5531  2.3964  1.1823  1.1823  0.7780  0.7780  0.6023  0.4630

 Free energy of the ion-electron system (eV)
  ---------------------------------------------------
  alpha Z        PSCENC =         0.24562550
  Ewald energy   TEWEN  =       129.01004753
  -Hartree energ DENC   =      -284.75235726
  -exchange      EXHF   =         0.00000000
  -V(xc)+E(xc)   XCENC  =        24.79568954
  PAW double counting   =       478.82607478     -479.61707541
  entropy T*S    EENTRO =         0.03588731
  eigenvalues    EBANDS =       -89.59801241
  atomic energy  EATOM  =       197.04175453
  Solvation  Ediel_sol  =         0.00000000
  ---------------------------------------------------
  free energy    TOTEN  =       -24.01236590 eV

  energy without entropy =      -24.04825321  energy(sigma->0) =      -24.02432834


--------------------------------------------------------------------------------------------------------




--------------------------------------- Iteration      1(  15)  ---------------------------------------


    POTLOK:  cpu time    1.5687: real time    1.5725
    SETDIJ:  cpu time    0.0065: real time    0.0065
    EDDIAG:  cpu time    0.4703: real time    0.4715
  RMM-DIIS:  cpu time    1.5888: real time    1.5925
    ORTHCH:  cpu time    0.0119: real time    0.0119
       DOS:  cpu time    0.0002: real time    0.0002
    CHARGE:  cpu time    0.1738: real time    0.1742
    MIXING:  cpu time    0.0456: real time    0.0457
    --------------------------------------------
      LOOP:  cpu time    3.8659: real time    3.8751

 eigenvalue-minimisations  :    64
 total energy-change (2. order) :-0.1324122E-02  (-0.5094213E-04)
 number of electron       8.0000000 magnetization 
 augmentation part        0.1866250 magnetization 

 Broyden mixing:
  rms(total) = 0.13480E-01    rms(broyden)= 0.13478E-01
  rms(prec ) = 0.18246E-01
  weight for this iteration     100.00

 eigenvalues of (default mixing * dielectric matrix)
  average eigenvalue GAMMA=   1.6013
  4.9031  2.7983  1.8896  1.4898  1.4898  0.9130  0.7116  0.7116  0.5876  0.5188

 Free energy of the ion-electron system (eV)
  ---------------------------------------------------
  alpha Z        PSCENC =         0.24562550
  Ewald energy   TEWEN  =       129.01004753
  -Hartree energ DENC   =      -284.79044128
  -exchange      EXHF   =         0.00000000
  -V(xc)+E(xc)   XCENC  =        24.79094824
  PAW double counting   =       477.17852276     -477.97099526
  entropy T*S    EENTRO =         0.03597961
  eigenvalues    EBANDS =       -89.55513164
  atomic energy  EATOM  =       197.04175453
  Solvation  Ediel_sol  =         0.00000000
  ---------------------------------------------------
  free energy    TOTEN  =       -24.01369002 eV

  energy without entropy =      -24.04966963  energy(sigma->0) =      -24.02568322


--------------------------------------------------------------------------------------------------------




--------------------------------------- Iteration      1(  16)  ---------------------------------------


    POTLOK:  cpu time    1.5620: real time    1.5657
    SETDIJ:  cpu time    0.0065: real time    0.0065
    EDDIAG:  cpu time    0.4746: real time    0.4757
  RMM-DIIS:  cpu time    1.5516: real time    1.5552
    ORTHCH:  cpu time    0.0116: real time    0.0116
       DOS:  cpu time    0.0002: real time    0.0002
    CHARGE:  cpu time    0.1805: real time    0.1809
    MIXING:  cpu time    0.0500: real time    0.0501
    --------------------------------------------
      LOOP:  cpu time    3.8370: real time    3.8461

 eigenvalue-minimisations  :    64
 total energy-change (2. order) :-0.1247804E-02  (-0.8274328E-04)
 number of electron       8.0000000 magnetization 
 augmentation part        0.1865274 magnetization 

 Broyden mixing:
  rms(total) = 0.99558E-02    rms(broyden)= 0.99299E-02
  rms(prec ) = 0.12958E-01
  weight for this iteration     100.00

 eigenvalues of (default mixing * dielectric matrix)
  average eigenvalue GAMMA=   1.7708
  5.4880  3.7136  2.2495  2.2495  1.1677  1.1677  0.9004  0.6762  0.6762  0.5775
  0.6125

 Free energy of the ion-electron system (eV)
  ---------------------------------------------------
  alpha Z        PSCENC =         0.24562550
  Ewald energy   TEWEN  =       129.01004753
  -Hartree energ DENC   =      -284.80284693
  -exchange      EXHF   =         0.00000000
  -V(xc)+E(xc)   XCENC  =        24.78578488
  PAW double counting   =       475.88320711     -476.67663465
  entropy T*S    EENTRO =         0.03593231
  eigenvalues    EBANDS =       -89.53780810
  atomic energy  EATOM  =       197.04175453
  Solvation  Ediel_sol  =         0.00000000
  ---------------------------------------------------
  free energy    TOTEN  =       -24.01493783 eV

  energy without entropy =      -24.05087014  energy(sigma->0) =      -24.02691526


--------------------------------------------------------------------------------------------------------




--------------------------------------- Iteration      1(  17)  ---------------------------------------


    POTLOK:  cpu time    1.5304: real time    1.5340
    SETDIJ:  cpu time    0.0066: real time    0.0066
    EDDIAG:  cpu time    0.4717: real time    0.4729
  RMM-DIIS:  cpu time    1.5185: real time    1.5221
    ORTHCH:  cpu time    0.0112: real time    0.0112
       DOS:  cpu time    0.0002: real time    0.0002
    CHARGE:  cpu time    0.1923: real time    0.1927
    MIXING:  cpu time    0.0517: real time    0.0518
    --------------------------------------------
      LOOP:  cpu time    3.7826: real time    3.7916

 eigenvalue-minimisations  :    64
 total energy-change (2. order) :-0.1235603E-02  (-0.8421373E-04)
 number of electron       8.0000000 magnetization 
 augmentation part        0.1866502 magnetization 

 Broyden mixing:
  rms(total) = 0.19244E-02    rms(broyden)= 0.19208E-02
  rms(prec ) = 0.27789E-02
  weight for this iteration     100.00

 eigenvalues of (default mixing * dielectric matrix)
  average eigenvalue GAMMA=   1.7895
  6.1389  3.7663  2.5465  1.6467  1.6467  1.3435  0.9299  0.9299  0.6857  0.6857
  0.5773  0.5773

 Free energy of the ion-electron system (eV)
  ---------------------------------------------------
  alpha Z        PSCENC =         0.24562550
  Ewald energy   TEWEN  =       129.01004753
  -Hartree energ DENC   =      -284.68631663
  -exchange      EXHF   =         0.00000000
  -V(xc)+E(xc)   XCENC  =        24.78036423
  PAW double counting   =       477.63443460     -478.42606792
  entropy T*S    EENTRO =         0.03587478
  eigenvalues    EBANDS =       -89.65189004
  atomic energy  EATOM  =       197.04175453
  Solvation  Ediel_sol  =         0.00000000
  ---------------------------------------------------
  free energy    TOTEN  =       -24.01617343 eV

  energy without entropy =      -24.05204821  energy(sigma->0) =      -24.02813169


--------------------------------------------------------------------------------------------------------




--------------------------------------- Iteration      1(  18)  ---------------------------------------


    POTLOK:  cpu time    1.5589: real time    1.5628
    SETDIJ:  cpu time    0.0065: real time    0.0065
    EDDIAG:  cpu time    0.4661: real time    0.4673
  RMM-DIIS:  cpu time    1.5002: real time    1.5037
    ORTHCH:  cpu time    0.0113: real time    0.0114
       DOS:  cpu time    0.0002: real time    0.0002
    CHARGE:  cpu time    0.1911: real time    0.1916
    MIXING:  cpu time    0.0505: real time    0.0507
    --------------------------------------------
      LOOP:  cpu time    3.7850: real time    3.7941

 eigenvalue-minimisations  :    64
 total energy-change (2. order) :-0.1818040E-03  (-0.6838854E-05)
 number of electron       8.0000000 magnetization 
 augmentation part        0.1866561 magnetization 

 Broyden mixing:
  rms(total) = 0.27013E-02    rms(broyden)= 0.26986E-02
  rms(prec ) = 0.33455E-02
  weight for this iteration     100.00

 eigenvalues of (default mixing * dielectric matrix)
  average eigenvalue GAMMA=   1.8453
  6.8093  4.0520  2.4823  2.2411  1.4273  1.4273  1.0616  1.0616  0.9186  0.6877
  0.6877  0.5661  0.5661

 Free energy of the ion-electron system (eV)
  ---------------------------------------------------
  alpha Z        PSCENC =         0.24562550
  Ewald energy   TEWEN  =       129.01004753
  -Hartree energ DENC   =      -284.72910886
  -exchange      EXHF   =         0.00000000
  -V(xc)+E(xc)   XCENC  =        24.78352802
  PAW double counting   =       478.17571610     -478.96724554
  entropy T*S    EENTRO =         0.03582985
  eigenvalues    EBANDS =       -89.61250237
  atomic energy  EATOM  =       197.04175453
  Solvation  Ediel_sol  =         0.00000000
  ---------------------------------------------------
  free energy    TOTEN  =       -24.01635523 eV

  energy without entropy =      -24.05218509  energy(sigma->0) =      -24.02829852


--------------------------------------------------------------------------------------------------------




--------------------------------------- Iteration      1(  19)  ---------------------------------------


    POTLOK:  cpu time    1.5680: real time    1.5717
    SETDIJ:  cpu time    0.0064: real time    0.0064
    EDDIAG:  cpu time    0.4366: real time    0.4377
  RMM-DIIS:  cpu time    1.5009: real time    1.5045
    ORTHCH:  cpu time    0.0117: real time    0.0117
       DOS:  cpu time    0.0002: real time    0.0002
    CHARGE:  cpu time    0.1916: real time    0.1921
    MIXING:  cpu time    0.0559: real time    0.0560
    --------------------------------------------
      LOOP:  cpu time    3.7714: real time    3.7803

 eigenvalue-minimisations  :    64
 total energy-change (2. order) :-0.2155300E-03  (-0.8220466E-05)
 number of electron       8.0000000 magnetization 
 augmentation part        0.1866117 magnetization 

 Broyden mixing:
  rms(total) = 0.46378E-03    rms(broyden)= 0.46302E-03
  rms(prec ) = 0.63643E-03
  weight for this iteration     100.00

 eigenvalues of (default mixing * dielectric matrix)
  average eigenvalue GAMMA=   1.9712
  7.6177  4.6584  2.9442  2.4791  1.5862  1.5862  1.0802  1.0802  1.1484  0.9067
  0.6882  0.6882  0.5663  0.5663

 Free energy of the ion-electron system (eV)
  ---------------------------------------------------
  alpha Z        PSCENC =         0.24562550
  Ewald energy   TEWEN  =       129.01004753
  -Hartree energ DENC   =      -284.75644702
  -exchange      EXHF   =         0.00000000
  -V(xc)+E(xc)   XCENC  =        24.78299781
  PAW double counting   =       477.37423931     -478.16642248
  entropy T*S    EENTRO =         0.03584759
  eigenvalues    EBANDS =       -89.58421353
  atomic energy  EATOM  =       197.04175453
  Solvation  Ediel_sol  =         0.00000000
  ---------------------------------------------------
  free energy    TOTEN  =       -24.01657076 eV

  energy without entropy =      -24.05241836  energy(sigma->0) =      -24.02851996


--------------------------------------------------------------------------------------------------------




--------------------------------------- Iteration      1(  20)  ---------------------------------------


    POTLOK:  cpu time    1.5753: real time    1.5790
    SETDIJ:  cpu time    0.0064: real time    0.0064
    EDDIAG:  cpu time    0.4417: real time    0.4428
  RMM-DIIS:  cpu time    1.5092: real time    1.5128
    ORTHCH:  cpu time    0.0115: real time    0.0115
       DOS:  cpu time    0.0002: real time    0.0002
    CHARGE:  cpu time    0.1988: real time    0.1993
    MIXING:  cpu time    0.0549: real time    0.0551
    --------------------------------------------
      LOOP:  cpu time    3.7981: real time    3.8071

 eigenvalue-minimisations  :    64
 total energy-change (2. order) :-0.7213468E-04  (-0.1189262E-05)
 number of electron       8.0000000 magnetization 
 augmentation part        0.1865920 magnetization 

 Broyden mixing:
  rms(total) = 0.90850E-03    rms(broyden)= 0.90828E-03
  rms(prec ) = 0.11481E-02
  weight for this iteration     100.00

 eigenvalues of (default mixing * dielectric matrix)
  average eigenvalue GAMMA=   2.0472
  8.1271  4.9629  3.2972  2.5002  2.2723  1.4166  1.4166  1.1631  1.1631  0.9676
  0.9116  0.6876  0.6876  0.5670  0.5670

 Free energy of the ion-electron system (eV)
  ---------------------------------------------------
  alpha Z        PSCENC =         0.24562550
  Ewald energy   TEWEN  =       129.01004753
  -Hartree energ DENC   =      -284.76415885
  -exchange      EXHF   =         0.00000000
  -V(xc)+E(xc)   XCENC  =        24.78334248
  PAW double counting   =       477.30255249     -478.09481085
  entropy T*S    EENTRO =         0.03585048
  eigenvalues    EBANDS =       -89.57684620
  atomic energy  EATOM  =       197.04175453
  Solvation  Ediel_sol  =         0.00000000
  ---------------------------------------------------
  free energy    TOTEN  =       -24.01664290 eV

  energy without entropy =      -24.05249338  energy(sigma->0) =      -24.02859306


--------------------------------------------------------------------------------------------------------




--------------------------------------- Iteration      1(  21)  ---------------------------------------


    POTLOK:  cpu time    1.6440: real time    1.6479
    SETDIJ:  cpu time    0.0066: real time    0.0066
    EDDIAG:  cpu time    0.4552: real time    0.4563
  RMM-DIIS:  cpu time    1.4626: real time    1.4660
    ORTHCH:  cpu time    0.0112: real time    0.0112
       DOS:  cpu time    0.0002: real time    0.0002
    CHARGE:  cpu time    0.1715: real time    0.1719
    MIXING:  cpu time    0.0531: real time    0.0532
    --------------------------------------------
      LOOP:  cpu time    3.8044: real time    3.8134

 eigenvalue-minimisations  :    64
 total energy-change (2. order) :-0.2244909E-04  (-0.9444520E-06)
 number of electron       8.0000000 magnetization 
 augmentation part        0.1866089 magnetization 

 Broyden mixing:
  rms(total) = 0.15947E-03    rms(broyden)= 0.15880E-03
  rms(prec ) = 0.21144E-03
  weight for this iteration     100.00

 eigenvalues of (default mixing * dielectric matrix)
  average eigenvalue GAMMA=   2.0371
  8.2764  5.2156  3.4753  2.4886  2.1186  1.7698  1.5370  1.1620  1.1620  0.9708
  0.9708  0.9387  0.6872  0.6872  0.5670  0.5670

 Free energy of the ion-electron system (eV)
  ---------------------------------------------------
  alpha Z        PSCENC =         0.24562550
  Ewald energy   TEWEN  =       129.01004753
  -Hartree energ DENC   =      -284.75179034
  -exchange      EXHF   =         0.00000000
  -V(xc)+E(xc)   XCENC  =        24.78309404
  PAW double counting   =       477.43422807     -478.22625850
  entropy T*S    EENTRO =         0.03584347
  eigenvalues    EBANDS =       -89.58920964
  atomic energy  EATOM  =       197.04175453
  Solvation  Ediel_sol  =         0.00000000
  ---------------------------------------------------
  free energy    TOTEN  =       -24.01666535 eV

  energy without entropy =      -24.05250881  energy(sigma->0) =      -24.02861317


--------------------------------------------------------------------------------------------------------




--------------------------------------- Iteration      1(  22)  ---------------------------------------


    POTLOK:  cpu time    1.6705: real time    1.6744
    SETDIJ:  cpu time    0.0064: real time    0.0065
    EDDIAG:  cpu time    0.4477: real time    0.4487
  RMM-DIIS:  cpu time    1.1066: real time    1.1092
    ORTHCH:  cpu time    0.0114: real time    0.0114
       DOS:  cpu time    0.0002: real time    0.0002
    CHARGE:  cpu time    0.1817: real time    0.1821
    MIXING:  cpu time    0.0590: real time    0.0592
    --------------------------------------------
      LOOP:  cpu time    3.4835: real time    3.4917

 eigenvalue-minimisations  :    48
 total energy-change (2. order) :-0.3646440E-05  (-0.2868061E-07)
 number of electron       8.0000000 magnetization 
 augmentation part        0.1866098 magnetization 

 Broyden mixing:
  rms(total) = 0.28677E-03    rms(broyden)= 0.28664E-03
  rms(prec ) = 0.37924E-03
  weight for this iteration     100.00

 eigenvalues of (default mixing * dielectric matrix)
  average eigenvalue GAMMA=   2.1257
  8.4824  5.3931  4.0264  3.0510  2.4520  2.0443  1.4833  1.4833  1.1681  1.1681
  0.9614  0.9614  0.9535  0.6876  0.6876  0.5670  0.5670

 Free energy of the ion-electron system (eV)
  ---------------------------------------------------
  alpha Z        PSCENC =         0.24562550
  Ewald energy   TEWEN  =       129.01004753
  -Hartree energ DENC   =      -284.75405711
  -exchange      EXHF   =         0.00000000
  -V(xc)+E(xc)   XCENC  =        24.78316419
  PAW double counting   =       477.44935604     -478.24141340
  entropy T*S    EENTRO =         0.03584555
  eigenvalues    EBANDS =       -89.58699183
  atomic energy  EATOM  =       197.04175453
  Solvation  Ediel_sol  =         0.00000000
  ---------------------------------------------------
  free energy    TOTEN  =       -24.01666899 eV

  energy without entropy =      -24.05251455  energy(sigma->0) =      -24.02861751


--------------------------------------------------------------------------------------------------------




--------------------------------------- Iteration      1(  23)  ---------------------------------------


    POTLOK:  cpu time    1.7231: real time    1.7272
    SETDIJ:  cpu time    0.0065: real time    0.0065
    EDDIAG:  cpu time    0.4223: real time    0.4233
  RMM-DIIS:  cpu time    1.1279: real time    1.1306
    ORTHCH:  cpu time    0.0114: real time    0.0114
       DOS:  cpu time    0.0002: real time    0.0002
    CHARGE:  cpu time    0.1754: real time    0.1758
    MIXING:  cpu time    0.0578: real time    0.0579
    --------------------------------------------
      LOOP:  cpu time    3.5246: real time    3.5329

 eigenvalue-minimisations  :    48
 total energy-change (2. order) :-0.2471014E-05  (-0.2167184E-07)
 number of electron       8.0000000 magnetization 
 augmentation part        0.1866088 magnetization 

 Broyden mixing:
  rms(total) = 0.56117E-04    rms(broyden)= 0.55322E-04
  rms(prec ) = 0.71857E-04
  weight for this iteration     100.00

 eigenvalues of (default mixing * dielectric matrix)
  average eigenvalue GAMMA=   2.0400
  8.5054  5.3831  4.0517  2.7669  2.4732  1.8503  1.8503  1.3875  1.1635  1.1635
  0.9777  0.9615  0.9615  0.6876  0.6876  0.5670  0.5670  0.7141

 Free energy of the ion-electron system (eV)
  ---------------------------------------------------
  alpha Z        PSCENC =         0.24562550
  Ewald energy   TEWEN  =       129.01004753
  -Hartree energ DENC   =      -284.75560746
  -exchange      EXHF   =         0.00000000
  -V(xc)+E(xc)   XCENC  =        24.78320480
  PAW double counting   =       477.46521043     -478.25728298
  entropy T*S    EENTRO =         0.03584588
  eigenvalues    EBANDS =       -89.58546968
  atomic energy  EATOM  =       197.04175453
  Solvation  Ediel_sol  =         0.00000000
  ---------------------------------------------------
  free energy    TOTEN  =       -24.01667146 eV

  energy without entropy =      -24.05251734  energy(sigma->0) =      -24.02862009


--------------------------------------------------------------------------------------------------------




--------------------------------------- Iteration      1(  24)  ---------------------------------------


    POTLOK:  cpu time    1.6825: real time    1.6864
    SETDIJ:  cpu time    0.0067: real time    0.0067
    EDDIAG:  cpu time    0.4300: real time    0.4310
  RMM-DIIS:  cpu time    0.9305: real time    0.9327
    ORTHCH:  cpu time    0.0112: real time    0.0112
       DOS:  cpu time    0.0002: real time    0.0002
    --------------------------------------------
      LOOP:  cpu time    3.0611: real time    3.0683

 eigenvalue-minimisations  :    32
 total energy-change (2. order) :-0.3030436E-06  ( 0.0000000E+00)
 number of electron       8.0000000 magnetization 
 augmentation part        0.1866088 magnetization 

 Free energy of the ion-electron system (eV)
  ---------------------------------------------------
  alpha Z        PSCENC =         0.24562550
  Ewald energy   TEWEN  =       129.01004753
  -Hartree energ DENC   =      -284.75487893
  -exchange      EXHF   =         0.00000000
  -V(xc)+E(xc)   XCENC  =        24.78316358
  PAW double counting   =       477.45427067     -478.24633675
  entropy T*S    EENTRO =         0.03584533
  eigenvalues    EBANDS =       -89.58616322
  atomic energy  EATOM  =       197.04175453
  Solvation  Ediel_sol  =         0.00000000
  ---------------------------------------------------
  free energy    TOTEN  =       -24.01667177 eV

  energy without entropy =      -24.05251710  energy(sigma->0) =      -24.02862021


--------------------------------------------------------------------------------------------------------




 average (electrostatic) potential at core
  the test charge radii are     0.5201  0.6991
  (the norm of the test charge is              1.0000)
       1 -41.5359       2 -41.5413       3 -41.6008       4 -41.3626       5 -57.9270



 E-fermi :  -9.1214     XC(G=0):  -0.7081     alpha+bet : -0.2136


 k-point     1 :       0.2500    0.2500    0.2500
  band No.  band energies     occupation 
      1     -16.9106      2.00000
      2      -9.3233      2.05223
      3      -9.2803      1.97745
      4      -9.2775      1.96996
      5      -0.3094      0.00000
      6       0.5697      0.00000
      7       0.6770      0.00000
      8       0.7038      0.00000

 k-point     2 :      -0.2500    0.2500    0.2500
  band No.  band energies     occupation 
      1     -16.9106      2.00000
      2      -9.3233      2.05222
      3      -9.2805      1.97780
      4      -9.2777      1.97031
      5      -0.3087      0.00000
      6       0.5614      0.00000
      7       0.6673      0.00000
      8       0.7112      0.00000

 k-point     3 :       0.2500   -0.2500    0.2500
  band No.  band energies     occupation 
      1     -16.9106      2.00000
      2      -9.3234      2.05231
      3      -9.2804      1.97758
      4      -9.2776      1.97012
      5      -0.3133      0.00000
      6       0.5719      0.00000
      7       0.6829      0.00000
      8       0.7192      0.00000

 k-point     4 :      -0.2500   -0.2500    0.2500
  band No.  band energies     occupation 
      1     -16.9106      2.00000
      2      -9.3233      2.05221
      3      -9.2804      1.97764
      4      -9.2776      1.97017
      5      -0.3096      0.00000
      6       0.5703      0.00000
      7       0.6793      0.00000
      8       0.7019      0.00000


--------------------------------------------------------------------------------------------------------


 soft charge-density along one line, spin component           1
         0         1         2         3         4         5         6         7         8         9
 total charge-density along one line

 pseudopotential strength for first ion, spin component:           1
 -2.341  -4.034  -0.001  -0.002   0.001
 -4.034  -6.866  -0.003  -0.005   0.002
 -0.001  -0.003  -0.337   0.002  -0.001
 -0.002  -0.005   0.002  -0.335  -0.001
  0.001   0.002  -0.001  -0.001  -0.338
 total augmentation occupancy for first ion, spin component:           1
  3.412  -0.588   0.222   0.417  -0.129
 -0.588   0.115  -0.041  -0.072   0.023
  0.222  -0.041   0.020   0.023  -0.007
  0.417  -0.072   0.023   0.055  -0.014
 -0.129   0.023  -0.007  -0.014   0.014


------------------------ aborting loop because EDIFF is reached ----------------------------------------


    CHARGE:  cpu time    0.1691: real time    0.1695
    FORLOC:  cpu time    0.1087: real time    0.1090
    FORNL :  cpu time    0.5833: real time    0.5847
    STRESS:  cpu time    1.9058: real time    1.9103
    FORCOR:  cpu time    1.7143: real time    1.7184
    FORHAR:  cpu time    0.5653: real time    0.5666
    MIXING:  cpu time    0.0595: real time    0.0597
    OFIELD:  cpu time    0.0000: real time    0.0000

  FORCE on cell =-STRESS in cart. coord.  units (eV):
  Direction    XX          YY          ZZ          XY          YZ          ZX
  --------------------------------------------------------------------------------------
  Alpha Z     0.24563     0.24563     0.24563
  Ewald      45.36639    43.06217    40.58147     0.04480    -0.29867     1.02697
  Hartree    96.95757    95.24108    92.55579    -0.11162    -0.31541     0.64919
  E(xc)     -27.26060   -27.26209   -27.24401    -0.00153    -0.00404     0.00680
  Local    -200.99258  -196.84243  -192.08863     0.06489     0.61903    -1.87561
  n-local   -15.97149   -15.05522   -15.80620    -0.00227     0.00559     0.05540
  augment     0.11389     0.11430     0.11909     0.00004    -0.00022     0.00279
  Kinetic   102.02564   101.29957   100.86870     0.41940     0.49703     0.26257
  Fock        0.00000     0.00000     0.00000     0.00000     0.00000     0.00000
  -------------------------------------------------------------------------------------
  Total       0.48445     0.80301    -0.76815     0.41371     0.50331     0.12811
  in kB       0.78698     1.30449    -1.24785     0.67208     0.81762     0.20812
  external pressure =        0.28 kB  Pullay stress =        0.00 kB

  kinetic pressure (ideal gas correction) =      0.03 kB
  total pressure  =      0.31 kB
  Total+kin.     0.837       1.314      -1.223       0.662       0.806       0.217

 VOLUME and BASIS-vectors are now :
 -----------------------------------------------------------------------------
  energy-cutoff  :      400.00
  volume of cell :      986.26
      direct lattice vectors                 reciprocal lattice vectors
     9.779326552  0.000000000  0.000000000     0.102256530  0.000854505 -0.001211646
    -0.082668497  9.892742687  0.000000000    -0.000000000  0.101084202  0.001419779
     0.121992062 -0.143187040 10.194503948     0.000000000 -0.000000000  0.098092071

  length of vectors
     9.779326552  9.893088090 10.196239274     0.102267278  0.101094172  0.098092071


 FORCES acting on ions
    electron-ion (+dipol)            ewald-force                    non-local-force                 convergence-correction
 -----------------------------------------------------------------------------------------------
   -.164E+02 0.284E+02 0.416E+02   0.181E+02 -.315E+02 -.459E+02   -.128E+01 0.252E+01 0.451E+01   -.422E-04 0.248E-05 -.702E-04
   0.531E+02 -.674E+01 0.359E+01   -.594E+02 0.739E+01 -.409E+01   0.599E+01 -.647E+00 0.411E+00   -.391E-05 -.230E-04 -.744E-04
   -.235E+02 -.481E+02 0.166E+01   0.264E+02 0.537E+02 -.172E+01   -.202E+01 -.473E+01 0.433E+00   -.300E-04 -.292E-04 -.629E-04
   -.122E+02 0.240E+02 -.446E+02   0.133E+02 -.260E+02 0.485E+02   -.202E+01 0.207E+01 -.432E+01   -.234E-04 0.108E-04 -.422E-04
   -.143E+01 0.313E+01 -.275E+01   0.151E+01 -.356E+01 0.321E+01   -.217E+00 0.581E+00 0.440E+00   -.675E-03 -.196E-03 -.171E-02
 -----------------------------------------------------------------------------------------------
   -.455E+00 0.704E+00 -.483E+00   0.711E-14 0.000E+00 0.711E-14   0.465E+00 -.209E+00 0.147E+01   -.774E-03 -.235E-03 -.196E-02


 POSITION                                       TOTAL-FORCE (eV/Angst)
 -----------------------------------------------------------------------------------
      5.27431      3.97129      3.67749         0.377960     -0.530738      0.208686
      3.86857      4.69333      4.46260        -0.225832     -0.001663     -0.084634
      5.41295      5.52844      4.50613         0.864935      0.833872      0.376805
      5.20125      4.04618      5.49654        -0.869613      0.036480     -0.413865
      4.93689      4.55792      4.53995        -0.137860      0.156971      0.900210
 -----------------------------------------------------------------------------------
    total drift:                                0.009590      0.494923      0.987202


--------------------------------------------------------------------------------------------------------



  FREE ENERGIE OF THE ION-ELECTRON SYSTEM (eV)
  ---------------------------------------------------
  free  energy   TOTEN  =       -24.01667177 eV

  energy  without entropy=      -24.05251710  energy(sigma->0) =      -24.02862021



--------------------------------------------------------------------------------------------------------


    POTLOK:  cpu time    1.7020: real time    1.7061


--------------------------------------------------------------------------------------------------------


           RANDOM_SEED =         578492920                0                0
           RANDOM_SEED =         578492920               30                0
   IONSTEP:  cpu time    0.0016: real time    0.0018

  ENERGY OF THE ELECTRON-ION-THERMOSTAT SYSTEM (eV)
  ---------------------------------------------------
% ion-electron   TOTEN  =       -24.016672  see above
  kinetic energy EKIN   =         0.035276
  kin. lattice  EKIN_LAT=         0.000000  (temperature   68.23 K)
  nose potential ES     =         0.000000
  nose kinetic   EPS    =         0.000011
  ---------------------------------------------------
  total energy   ETOTAL =       -23.981385 eV

  maximum distance moved by ions :      0.45E-02


 mean value of Nose-termostat <S>:     1.005 mean value of <T> :    68.227
 mean temperature <T/S>/<1/S>  :    68.227

    WAVPRE:  cpu time    0.4418: real time    0.4475
    FEWALD:  cpu time    0.0003: real time    0.0003
    ORTHCH:  cpu time    0.2068: real time    0.2073
     LOOP+:  cpu time   94.5951: real time   94.8261


--------------------------------------- Iteration      2(   1)  ---------------------------------------


    POTLOK:  cpu time    1.6961: real time    1.7002
    SETDIJ:  cpu time    0.0065: real time    0.0065
     EDDAV:  cpu time    2.0027: real time    2.0074
       DOS:  cpu time    0.0002: real time    0.0002
    CHARGE:  cpu time    0.1730: real time    0.1735
    MIXING:  cpu time    0.0407: real time    0.0408
    --------------------------------------------
      LOOP:  cpu time    3.9193: real time    3.9287

 eigenvalue-minimisations  :    64
 total energy-change (2. order) :-0.4052589E-02  (-0.2333712E+00)
 number of electron       7.9999998 magnetization 
 augmentation part        0.1874462 magnetization 

 Broyden mixing:
  rms(total) = 0.64307E-01    rms(broyden)= 0.64236E-01
  rms(prec ) = 0.75374E-01
  weight for this iteration     100.00

 Free energy of the ion-electron system (eV)
  ---------------------------------------------------
  alpha Z        PSCENC =         0.24562550
  Ewald energy   TEWEN  =       129.19064412
  -Hartree energ DENC   =      -284.80521619
  -exchange      EXHF   =         0.00000000
  -V(xc)+E(xc)   XCENC  =        24.78588793
  PAW double counting   =       477.44763375     -478.23969590
  entropy T*S    EENTRO =         0.01938972
  eigenvalues    EBANDS =       -89.70674752
  atomic energy  EATOM  =       197.04175453
  Solvation  Ediel_sol  =         0.00000000
  ---------------------------------------------------
  free energy    TOTEN  =       -24.02072405 eV

  energy without entropy =      -24.04011378  energy(sigma->0) =      -24.02718729


--------------------------------------------------------------------------------------------------------




--------------------------------------- Iteration      2(   2)  ---------------------------------------


    POTLOK:  cpu time    1.5200: real time    1.5235
    SETDIJ:  cpu time    0.0066: real time    0.0066
    EDDIAG:  cpu time    0.4574: real time    0.4584
  RMM-DIIS:  cpu time    1.5285: real time    1.5321
    ORTHCH:  cpu time    0.0116: real time    0.0116
       DOS:  cpu time    0.0002: real time    0.0002
    CHARGE:  cpu time    0.1944: real time    0.1948
    MIXING:  cpu time    0.0632: real time    0.0633
    --------------------------------------------
      LOOP:  cpu time    3.7817: real time    3.7906

 eigenvalue-minimisations  :    64
 total energy-change (2. order) : 0.2110129E-02  (-0.1005825E-01)
 number of electron       7.9999998 magnetization 
 augmentation part        0.1869305 magnetization 

 Broyden mixing:
  rms(total) = 0.66967E-01    rms(broyden)= 0.66923E-01
  rms(prec ) = 0.81993E-01
  weight for this iteration     100.00

 eigenvalues of (default mixing * dielectric matrix)
  average eigenvalue GAMMA=   2.1237
  8.5201  5.6351  4.1489  3.8533  2.5589  2.3920  2.0657  1.5441  1.4935  1.4935
  1.1732  1.1732  0.6876  0.6876  0.5670  0.5670  0.9888  0.9888  0.9339  1.0020

 Free energy of the ion-electron system (eV)
  ---------------------------------------------------
  alpha Z        PSCENC =         0.24562550
[...]
  rms(total) = 0.28892E-03    rms(broyden)= 0.28847E-03
  rms(prec ) = 0.37422E-03
  weight for this iteration     100.00

 eigenvalues of (default mixing * dielectric matrix)
  average eigenvalue GAMMA=   2.6293
  7.2348  6.1160  6.1160  4.3996  4.3996  4.3066  0.7324  0.8823  1.0167  1.0167
  1.0498  1.6685  1.6685  1.3489  1.3489  1.5032  1.5032  3.4618  2.3873  2.3873
  1.9386  1.9386  3.2102  3.0965  3.0965  2.8729  2.8729  2.1349  2.1349  2.3873
  2.3873  2.2408  2.4394  2.4394  2.6161  2.6161  2.7498  2.7498  2.7444  2.6484
  2.6484  2.4827  2.4394  2.4436  2.4436

 Free energy of the ion-electron system (eV)
  ---------------------------------------------------
  alpha Z        PSCENC =         0.24562550
  Ewald energy   TEWEN  =       122.79671490
  -Hartree energ DENC   =      -279.14807452
  -exchange      EXHF   =         0.00000000
  -V(xc)+E(xc)   XCENC  =        24.48732599
  PAW double counting   =       437.67876479     -438.44943368
  entropy T*S    EENTRO =         0.02315135
  eigenvalues    EBANDS =       -88.57613431
  atomic energy  EATOM  =       197.04175453
  Solvation  Ediel_sol  =         0.00000000
  ---------------------------------------------------
  free energy    TOTEN  =       -23.90030545 eV

  energy without entropy =      -23.92345680  energy(sigma->0) =      -23.90802257


--------------------------------------------------------------------------------------------------------




--------------------------------------- Iteration     10(  13)  ---------------------------------------


    POTLOK:  cpu time    1.6531: real time    1.6570
    SETDIJ:  cpu time    0.0064: real time    0.0065
    EDDIAG:  cpu time    0.3905: real time    0.3914
  RMM-DIIS:  cpu time    1.1442: real time    1.1469
    ORTHCH:  cpu time    0.0114: real time    0.0114
       DOS:  cpu time    0.0003: real time    0.0002
    CHARGE:  cpu time    0.1903: real time    0.1908
    MIXING:  cpu time    0.1320: real time    0.1323
    --------------------------------------------
      LOOP:  cpu time    3.5281: real time    3.5364

 eigenvalue-minimisations  :    56
 total energy-change (2. order) :-0.4820005E-05  (-0.2548370E-06)
 number of electron       7.9999999 magnetization 
 augmentation part        0.1797558 magnetization 

 Broyden mixing:
  rms(total) = 0.30127E-03    rms(broyden)= 0.30087E-03
  rms(prec ) = 0.38698E-03
  weight for this iteration     100.00

 eigenvalues of (default mixing * dielectric matrix)
  average eigenvalue GAMMA=   2.6372
  7.2185  6.3497  6.3497  4.5419  4.0391  4.0391  3.9786  0.7004  0.7393  0.9385
  1.0517  1.0932  1.4442  1.4442  1.3915  1.3915  1.8072  1.8072  3.3788  1.5454
  2.3230  2.3230  1.9569  1.9569  3.0436  3.0436  2.9425  2.9425  2.1930  2.1930
  2.3378  2.3378  2.8873  2.5860  2.5860  2.7745  2.7745  2.7436  2.6829  2.6381
  2.4671  2.4671  2.4661  2.4661  2.5075  2.4190

 Free energy of the ion-electron system (eV)
  ---------------------------------------------------
  alpha Z        PSCENC =         0.24562550
  Ewald energy   TEWEN  =       122.79671490
  -Hartree energ DENC   =      -279.15191821
  -exchange      EXHF   =         0.00000000
  -V(xc)+E(xc)   XCENC  =        24.48746885
  PAW double counting   =       437.65034280     -438.42106056
  entropy T*S    EENTRO =         0.02307235
  eigenvalues    EBANDS =       -88.57231043
  atomic energy  EATOM  =       197.04175453
  Solvation  Ediel_sol  =         0.00000000
  ---------------------------------------------------
  free energy    TOTEN  =       -23.90031027 eV

  energy without entropy =      -23.92338262  energy(sigma->0) =      -23.90800105


--------------------------------------------------------------------------------------------------------




--------------------------------------- Iteration     10(  14)  ---------------------------------------


    POTLOK:  cpu time    1.6437: real time    1.6476
    SETDIJ:  cpu time    0.0062: real time    0.0063
    EDDIAG:  cpu time    0.3920: real time    0.3930
  RMM-DIIS:  cpu time    1.0421: real time    1.0446
    ORTHCH:  cpu time    0.0192: real time    0.0192
       DOS:  cpu time    0.0003: real time    0.0003
    CHARGE:  cpu time    0.1585: real time    0.1589
    MIXING:  cpu time    0.1385: real time    0.1388
    --------------------------------------------
      LOOP:  cpu time    3.4006: real time    3.4086

 eigenvalue-minimisations  :    48
 total energy-change (2. order) :-0.3372104E-05  (-0.8427839E-07)
 number of electron       7.9999999 magnetization 
 augmentation part        0.1797576 magnetization 

 Broyden mixing:
  rms(total) = 0.78279E-04    rms(broyden)= 0.77830E-04
  rms(prec ) = 0.10059E-03
  weight for this iteration     100.00

 eigenvalues of (default mixing * dielectric matrix)
  average eigenvalue GAMMA=   2.6260
  7.2247  6.3541  6.3541  4.5488  4.2877  4.2877  3.9832  0.7271  0.7271  0.9072
  0.9969  0.9969  1.0632  1.2838  1.2838  1.6815  1.6815  1.7075  1.7075  3.3126
  3.2546  3.2546  2.3414  2.3414  1.8019  2.0257  2.0257  2.8754  2.8754  2.1581
  2.1581  2.5064  2.5064  2.9086  2.9086  2.4224  2.4224  2.6334  2.6334  2.7283
  2.6387  2.6867  2.4546  2.4546  2.4272  2.4272  2.4339

 Free energy of the ion-electron system (eV)
  ---------------------------------------------------
  alpha Z        PSCENC =         0.24562550
  Ewald energy   TEWEN  =       122.79671490
  -Hartree energ DENC   =      -279.14775588
  -exchange      EXHF   =         0.00000000
  -V(xc)+E(xc)   XCENC  =        24.48730810
  PAW double counting   =       437.65613702     -438.42680161
  entropy T*S    EENTRO =         0.02303170
  eigenvalues    EBANDS =       -88.57632791
  atomic energy  EATOM  =       197.04175453
  Solvation  Ediel_sol  =         0.00000000
  ---------------------------------------------------
  free energy    TOTEN  =       -23.90031364 eV

  energy without entropy =      -23.92334535  energy(sigma->0) =      -23.90799088


--------------------------------------------------------------------------------------------------------




--------------------------------------- Iteration     10(  15)  ---------------------------------------


    POTLOK:  cpu time    1.6459: real time    1.6498
    SETDIJ:  cpu time    0.0063: real time    0.0063
    EDDIAG:  cpu time    0.3798: real time    0.3807
  RMM-DIIS:  cpu time    1.0503: real time    1.0528
    ORTHCH:  cpu time    0.0110: real time    0.0110
       DOS:  cpu time    0.0002: real time    0.0002
    CHARGE:  cpu time    0.1537: real time    0.1540
    MIXING:  cpu time    0.1309: real time    0.1312
    --------------------------------------------
      LOOP:  cpu time    3.3780: real time    3.3860

 eigenvalue-minimisations  :    48
 total energy-change (2. order) :-0.1514504E-05  (-0.3909886E-07)
 number of electron       7.9999999 magnetization 
 augmentation part        0.1797592 magnetization 

 Broyden mixing:
  rms(total) = 0.64347E-04    rms(broyden)= 0.64088E-04
  rms(prec ) = 0.80676E-04
  weight for this iteration     100.00

 eigenvalues of (default mixing * dielectric matrix)
  average eigenvalue GAMMA=   2.6198
  7.2256  6.5182  5.2836  5.2836  5.1886  4.2606  0.7182  0.7525  0.9368  0.9368
  1.1695  1.1695  1.0059  1.0670  3.6628  1.7267  1.7267  3.4087  1.6287  1.6287
  2.9433  2.9433  2.5584  2.5584  1.9292  1.9292  2.1220  2.1220  3.0105  3.0105
  2.9211  2.9211  2.5516  2.5516  2.0283  2.0348  2.7057  2.7057  2.3338  2.3338
  2.4562  2.4562  2.6849  2.6266  2.6085  2.4045  2.5008  2.5008

 Free energy of the ion-electron system (eV)
  ---------------------------------------------------
  alpha Z        PSCENC =         0.24562550
  Ewald energy   TEWEN  =       122.79671490
  -Hartree energ DENC   =      -279.14669156
  -exchange      EXHF   =         0.00000000
  -V(xc)+E(xc)   XCENC  =        24.48727492
  PAW double counting   =       437.66179993     -438.43244855
  entropy T*S    EENTRO =         0.02300887
  eigenvalues    EBANDS =       -88.57735369
  atomic energy  EATOM  =       197.04175453
  Solvation  Ediel_sol  =         0.00000000
  ---------------------------------------------------
  free energy    TOTEN  =       -23.90031516 eV

  energy without entropy =      -23.92332403  energy(sigma->0) =      -23.90798478


--------------------------------------------------------------------------------------------------------




--------------------------------------- Iteration     10(  16)  ---------------------------------------


    POTLOK:  cpu time    1.6710: real time    1.6750
    SETDIJ:  cpu time    0.0062: real time    0.0062
    EDDIAG:  cpu time    0.3969: real time    0.3978
  RMM-DIIS:  cpu time    1.0216: real time    1.0240
    ORTHCH:  cpu time    0.0115: real time    0.0115
       DOS:  cpu time    0.0002: real time    0.0002
    --------------------------------------------
      LOOP:  cpu time    3.1073: real time    3.1147

 eigenvalue-minimisations  :    48
 total energy-change (2. order) :-0.9375820E-06  (-0.2172389E-07)
 number of electron       7.9999999 magnetization 
 augmentation part        0.1797592 magnetization 

 Free energy of the ion-electron system (eV)
  ---------------------------------------------------
  alpha Z        PSCENC =         0.24562550
  Ewald energy   TEWEN  =       122.79671490
  -Hartree energ DENC   =      -279.14791460
  -exchange      EXHF   =         0.00000000
  -V(xc)+E(xc)   XCENC  =        24.48731447
  PAW double counting   =       437.65384560     -438.42451154
  entropy T*S    EENTRO =         0.02298222
  eigenvalues    EBANDS =       -88.57612718
  atomic energy  EATOM  =       197.04175453
  Solvation  Ediel_sol  =         0.00000000
  ---------------------------------------------------
  free energy    TOTEN  =       -23.90031610 eV

  energy without entropy =      -23.92329832  energy(sigma->0) =      -23.90797684


--------------------------------------------------------------------------------------------------------




 average (electrostatic) potential at core
  the test charge radii are     0.5201  0.6991
  (the norm of the test charge is              1.0000)
       1 -41.1241       2 -41.5904       3 -41.5770       4 -41.1986       5 -58.1116



 E-fermi :  -8.7972     XC(G=0):  -0.7228     alpha+bet : -0.2136


 k-point     1 :       0.2500    0.2500    0.2500
  band No.  band energies     occupation 
      1     -16.7296      2.00000
      2      -9.5007      2.00001
      3      -9.1074      2.05068
      4      -8.9462      1.94919
      5      -0.3572      0.00000
      6       0.5458      0.00000
      7       0.6545      0.00000
      8       0.7025      0.00000

 k-point     2 :      -0.2500    0.2500    0.2500
  band No.  band energies     occupation 
      1     -16.7297      2.00000
      2      -9.5007      2.00001
      3      -9.1075      2.05063
      4      -8.9463      1.94950
      5      -0.3563      0.00000
      6       0.5457      0.00000
      7       0.6334      0.00000
      8       0.7078      0.00000

 k-point     3 :       0.2500   -0.2500    0.2500
  band No.  band energies     occupation 
      1     -16.7297      2.00000
      2      -9.5007      2.00001
      3      -9.1074      2.05065
      4      -8.9462      1.94929
      5      -0.3596      0.00000
      6       0.5340      0.00000
      7       0.6669      0.00000
      8       0.7158      0.00000

 k-point     4 :      -0.2500   -0.2500    0.2500
  band No.  band energies     occupation 
      1     -16.7297      2.00000
      2      -9.5007      2.00001
      3      -9.1074      2.05066
      4      -8.9462      1.94938
      5      -0.3573      0.00000
      6       0.5519      0.00000
      7       0.6522      0.00000
      8       0.6943      0.00000


--------------------------------------------------------------------------------------------------------


 soft charge-density along one line, spin component           1
         0         1         2         3         4         5         6         7         8         9
 total charge-density along one line

 pseudopotential strength for first ion, spin component:           1
 -2.337  -4.025  -0.001  -0.001   0.001
 -4.025  -6.849  -0.003  -0.004   0.002
 -0.001  -0.003  -0.339   0.002  -0.001
 -0.001  -0.004   0.002  -0.338  -0.001
  0.001   0.002  -0.001  -0.001  -0.340
 total augmentation occupancy for first ion, spin component:           1
  3.137  -0.506   0.233   0.360  -0.154
 -0.506   0.094  -0.039  -0.059   0.025
  0.233  -0.039   0.023   0.024  -0.010
  0.360  -0.059   0.024   0.045  -0.016
 -0.154   0.025  -0.010  -0.016   0.016


------------------------ aborting loop because EDIFF is reached ----------------------------------------


    CHARGE:  cpu time    0.1538: real time    0.1542
    FORLOC:  cpu time    0.1076: real time    0.1079
    FORNL :  cpu time    0.6263: real time    0.6278
    STRESS:  cpu time    1.7468: real time    1.7509
    FORCOR:  cpu time    1.7326: real time    1.7367
    FORHAR:  cpu time    0.5383: real time    0.5395
    MIXING:  cpu time    0.1472: real time    0.1475
    OFIELD:  cpu time    0.0000: real time    0.0000

  FORCE on cell =-STRESS in cart. coord.  units (eV):
  Direction    XX          YY          ZZ          XY          YZ          ZX
  --------------------------------------------------------------------------------------
  Alpha Z     0.24563     0.24563     0.24563
  Ewald      44.77214    39.08476    38.93979    -1.52132     1.37706     5.75761
  Hartree    94.78979    92.92956    91.42735    -1.01892     0.23113     1.77739
  E(xc)     -26.94257   -26.95494   -26.91070    -0.01562     0.00407     0.03193
  Local    -197.70093  -191.47820  -189.82725     2.81856    -1.57740    -6.64738
  n-local   -15.30805   -15.25788   -15.32224     0.17291    -0.12222     0.18698
  augment     0.12195     0.13382     0.13551    -0.00368    -0.00059    -0.00467
  Kinetic    99.72189   101.02001    97.83988     0.34352     0.58539    -1.30646
  Fock        0.00000     0.00000     0.00000     0.00000     0.00000     0.00000
  -------------------------------------------------------------------------------------
  Total      -0.30017    -0.27725    -3.47204     0.77544     0.49744    -0.20459
  in kB      -0.48762    -0.45039    -5.64032     1.25970     0.80809    -0.33236
  external pressure =       -2.19 kB  Pullay stress =        0.00 kB

  kinetic pressure (ideal gas correction) =      0.10 kB
  total pressure  =     -2.10 kB
  Total+kin.    -0.450      -0.386      -5.455       1.249       0.796      -0.290

 VOLUME and BASIS-vectors are now :
 -----------------------------------------------------------------------------
  energy-cutoff  :      400.00
  volume of cell :      986.26
      direct lattice vectors                 reciprocal lattice vectors
     9.779326552  0.000000000  0.000000000     0.102256530  0.000854505 -0.001211646
    -0.082668497  9.892742687  0.000000000    -0.000000000  0.101084202  0.001419779
     0.121992062 -0.143187040 10.194503948     0.000000000 -0.000000000  0.098092071

  length of vectors
     9.779326552  9.893088090 10.196239274     0.102267278  0.101094172  0.098092071


 FORCES acting on ions
    electron-ion (+dipol)            ewald-force                    non-local-force                 convergence-correction
 -----------------------------------------------------------------------------------------------
   -.169E+02 0.279E+02 0.394E+02   0.183E+02 -.303E+02 -.423E+02   -.173E+01 0.265E+01 0.373E+01   -.906E-04 0.137E-03 0.400E-04
   0.506E+02 -.111E+02 0.902E+01   -.561E+02 0.123E+02 -.974E+01   0.534E+01 -.129E+01 0.114E+01   0.934E-04 -.122E-04 -.219E-04
   -.274E+02 -.453E+02 -.147E+01   0.304E+02 0.506E+02 0.166E+01   -.312E+01 -.478E+01 0.344E-01   -.963E-04 -.855E-04 -.780E-04
   -.935E+01 0.221E+02 -.425E+02   0.961E+01 -.234E+02 0.446E+02   -.101E+01 0.191E+01 -.443E+01   -.591E-04 0.777E-04 -.109E-03
   0.240E+01 0.808E+01 -.571E+01   -.218E+01 -.916E+01 0.571E+01   0.422E+00 0.865E+00 0.605E+00   -.306E-03 0.289E-03 -.501E-03
 -----------------------------------------------------------------------------------------------
   -.609E+00 0.171E+01 -.130E+01   -.355E-14 -.355E-14 0.711E-14   -.104E+00 -.652E+00 0.109E+01   -.458E-03 0.406E-03 -.670E-03


 POSITION                                       TOTAL-FORCE (eV/Angst)
 -----------------------------------------------------------------------------------
      5.30716      3.94326      3.66838        -0.359917      0.247362      0.875405
      3.88103      4.79536      4.34718        -0.156224     -0.094244      0.419374
      5.49079      5.48681      4.56902        -0.096468      0.484146      0.231196
      5.16386      4.02830      5.56510        -0.744076      0.633905     -2.352697
      4.92975      4.55672      4.53937         0.642706     -0.216476      0.608538
 -----------------------------------------------------------------------------------
    total drift:                               -0.713979      1.054694     -0.218183


--------------------------------------------------------------------------------------------------------



  FREE ENERGIE OF THE ION-ELECTRON SYSTEM (eV)
  ---------------------------------------------------
  free  energy   TOTEN  =       -23.90031610 eV

  energy  without entropy=      -23.92329832  energy(sigma->0) =      -23.90797684

 d Force =-0.7175242E-01[-0.206E+00, 0.625E-01]  d Energy =-0.1048578E+00 0.331E-01
 d Force = 0.1867771E+01[ 0.161E+01, 0.213E+01]  d Ewald  = 0.1864139E+01 0.363E-02


--------------------------------------------------------------------------------------------------------


    POTLOK:  cpu time    1.6535: real time    1.6574


--------------------------------------------------------------------------------------------------------


           RANDOM_SEED =         578492920               30                0
   IONSTEP:  cpu time    0.0001: real time    0.0001

  ENERGY OF THE ELECTRON-ION-THERMOSTAT SYSTEM (eV)
  ---------------------------------------------------
% ion-electron   TOTEN  =       -23.900316  see above
  kinetic energy EKIN   =         0.021035
  kin. lattice  EKIN_LAT=         0.000000  (temperature   40.68 K)
  nose potential ES     =         0.027067
  nose kinetic   EPS    =         0.031873
  ---------------------------------------------------
  total energy   ETOTAL =       -23.820341 eV

  maximum distance moved by ions :      0.37E-02


 mean value of Nose-termostat <S>:     1.907 mean value of <T> :    40.684
 mean temperature <T/S>/<1/S>  :    40.684

    WAVPRE:  cpu time    0.5205: real time    0.5303
    FEWALD:  cpu time    0.0003: real time    0.0003
    ORTHCH:  cpu time    0.1915: real time    0.1920
 Prediction of Wavefunctions ALPHA=-0.036 BETA=-0.254
    POTLOK:  cpu time    1.6146: real time    1.6184
    EDDIAG:  cpu time    0.3857: real time    0.3867
     LOOP+:  cpu time   68.7740: real time   68.9520
    4ORBIT:  cpu time    0.0000: real time    0.0000

 total amount of memory used by VASP MPI-rank0   298885. kBytes
=======================================================================

   base      :      30000. kBytes
   nonlr-proj:        156. kBytes
   fftplans  :      86584. kBytes
   grid      :     154542. kBytes
   one-center:         15. kBytes
   wavefun   :      27588. kBytes

  
  
 General timing and accounting informations for this job:
 ========================================================
  
                  Total CPU time used (sec):      800.290
                            User time (sec):      785.281
                          System time (sec):       15.009
                         Elapsed time (sec):      804.620
  
                   Maximum memory used (kb):      464700.
                   Average memory used (kb):           0.
  
                          Minor page faults:      2320371
                          Major page faults:            0
                 Voluntary context switches:          395
