 running on    1 total cores
 distrk:  each k-point on    1 cores,    1 groups
 distr:  one band on    1 cores,    1 groups
 using from now: INCAR     
 vasp.5.4.4.18Apr17-6-g9f103f2a35 (build Jul 12 2018 13:43:46) complex           
 POSCAR found type information on POSCAR  H  C 
 POSCAR found :  2 types and       5 ions
 scaLAPACK will be used

 ----------------------------------------------------------------------------- 
|                                                                             |
|  ADVICE TO THIS USER RUNNING 'VASP/VAMP'   (HEAR YOUR MASTER'S VOICE ...):  |
|                                                                             |
|      You have a (more or less) 'small supercell' and for smaller cells      |
|      it is recommended  to use the reciprocal-space projection scheme!      |
|      The real space optimization is not  efficient for small cells and it   |
|      is also less accurate ...                                              |
|      Therefore set LREAL=.FALSE. in the  INCAR file                         |
|                                                                             |
 ----------------------------------------------------------------------------- 


 ----------------------------------------------------------------------------- 
|                                                                             |
|           W    W    AA    RRRRR   N    N  II  N    N   GGGG   !!!           |
|           W    W   A  A   R    R  NN   N  II  NN   N  G    G  !!!           |
|           W    W  A    A  R    R  N N  N  II  N N  N  G       !!!           |
|           W WW W  AAAAAA  RRRRR   N  N N  II  N  N N  G  GGG   !            |
|           WW  WW  A    A  R   R   N   NN  II  N   NN  G    G                |
|           W    W  A    A  R    R  N    N  II  N    N   GGGG   !!!           |
|                                                                             |
|     The real-space-projection scheme for the treatment of the nonlocal      |
|     pseudopotentials has been switched on -- but on file POTCAR I have      |
|     not found any entries signalling me that you have ever performed a      |
|     real-space optimization of all nonlocal projectors! BE WARNED that      |
|     a calculation using the real-space-projection scheme together with      |
|     nonlocal projectors which were not real-space-optimized (according      |
|     to the plane-wave-cutoff used in this calculation) might give more      |
|     or less inaccurate results                                              |
|     I hope you know what you are doing                                      |
|                                                                             |
 ----------------------------------------------------------------------------- 

 LDA part: xc-table for Pade appr. of Perdew
 generate k-points for:    2    2    2
 POSCAR, INCAR and KPOINTS ok, starting setup
 FFT: planning ...
 WAVECAR not read
 prediction of wavefunctions initialized - no I/O
 entering main loop
       N       E                     dE             d eps       ncg     rms          rms(c)
DAV:   1     0.120748507124E+02    0.12075E+02   -0.20042E+03    96   0.414E+02
DAV:   2    -0.235313133497E+02   -0.35606E+02   -0.35606E+02    64   0.113E+02
DAV:   3    -0.274638965824E+02   -0.39326E+01   -0.39530E+01    64   0.439E+01
DAV:   4    -0.276181568200E+02   -0.15426E+00   -0.15384E+00   128   0.952E+00
DAV:   5    -0.276182052869E+02   -0.48467E-04   -0.48467E-04    96   0.185E-01    0.883E+00
RMM:   6    -0.246662524522E+02    0.29520E+01   -0.54772E+00    64   0.143E+01    0.438E+00
RMM:   7    -0.241733761685E+02    0.49288E+00   -0.12296E+00    64   0.644E+00    0.244E+00
RMM:   8    -0.240623667903E+02    0.11101E+00   -0.95753E-02    64   0.198E+00    0.130E+00
RMM:   9    -0.240125829737E+02    0.49784E-01   -0.59821E-02    64   0.181E+00    0.376E-01
RMM:  10    -0.240094240311E+02    0.31589E-02   -0.41325E-03    64   0.419E-01    0.201E-01
RMM:  11    -0.240088977349E+02    0.52630E-03   -0.15212E-02    64   0.655E-01    0.255E-01
RMM:  12    -0.240042939841E+02    0.46038E-02   -0.27523E-03    64   0.372E-01    0.127E-01
RMM:  13    -0.240067106131E+02   -0.24166E-02   -0.12505E-03    64   0.243E-01    0.157E-01
RMM:  14    -0.240123659005E+02   -0.56553E-02   -0.16200E-03    64   0.242E-01    0.147E-01
RMM:  15    -0.240136900225E+02   -0.13241E-02   -0.50942E-04    64   0.141E-01    0.135E-01
RMM:  16    -0.240149378266E+02   -0.12478E-02   -0.82743E-04    64   0.180E-01    0.996E-02
RMM:  17    -0.240161734297E+02   -0.12356E-02   -0.84214E-04    64   0.171E-01    0.192E-02
RMM:  18    -0.240163552336E+02   -0.18180E-03   -0.68389E-05    64   0.665E-02    0.270E-02
RMM:  19    -0.240165707637E+02   -0.21553E-03   -0.82205E-05    64   0.549E-02    0.464E-03
RMM:  20    -0.240166428983E+02   -0.72135E-04   -0.11893E-05    64   0.230E-02    0.909E-03
RMM:  21    -0.240166653474E+02   -0.22449E-04   -0.94445E-06    64   0.178E-02    0.159E-03
RMM:  22    -0.240166689939E+02   -0.36464E-05   -0.28681E-07    48   0.410E-03    0.287E-03
RMM:  23    -0.240166714649E+02   -0.24710E-05   -0.21672E-07    48   0.277E-03    0.561E-04
RMM:  24    -0.240166717679E+02   -0.30304E-06    0.00000E+00    32   0.111E-03
    1 T=    68. E= -.23981385E+02 F= -.24016672E+02 E0= -.24028620E+02  EK= 0.35276E-01 SP= 0.00E+00 SK= 0.11E-04
 bond charge predicted
       N       E                     dE             d eps       ncg     rms          rms(c)
DAV:   1    -0.240207240534E+02   -0.40526E-02   -0.23337E+00    64   0.148E+01    0.643E-01
RMM:   2    -0.240186139248E+02    0.21101E-02   -0.10058E-01    64   0.249E+00    0.670E-01
RMM:   3    -0.240183990270E+02    0.21490E-03   -0.21967E-02    64   0.106E+00    0.616E-01
RMM:   4    -0.240177040602E+02    0.69497E-03   -0.14569E-02    64   0.788E-01    0.458E-01
RMM:   5    -0.240144840156E+02    0.32200E-02   -0.64855E-03    64   0.473E-01    0.236E-01
RMM:   6    -0.240137889597E+02    0.69506E-03   -0.82113E-04    64   0.185E-01    0.205E-01
RMM:   7    -0.240133306143E+02    0.45835E-03   -0.56999E-04    64   0.149E-01    0.193E-01
RMM:   8    -0.240132209907E+02    0.10962E-03   -0.24844E-05    64   0.386E-02    0.192E-01
RMM:   9    -0.240125194348E+02    0.70156E-03   -0.22413E-03    64   0.280E-01    0.198E-01
RMM:  10    -0.240115853766E+02    0.93406E-03   -0.81305E-04    64   0.185E-01    0.198E-01
RMM:  11    -0.240112323343E+02    0.35304E-03   -0.12394E-04    64   0.757E-02    0.191E-01
RMM:  12    -0.240114131115E+02   -0.18078E-03   -0.23212E-05    64   0.343E-02    0.196E-01
RMM:  13    -0.240100067880E+02    0.14063E-02   -0.45015E-03    64   0.424E-01    0.128E-01
RMM:  14    -0.240108785657E+02   -0.87178E-03   -0.21047E-03    64   0.284E-01    0.169E-01
RMM:  15    -0.240101791337E+02    0.69943E-03   -0.50042E-04    64   0.138E-01    0.112E-01
RMM:  16    -0.240099411971E+02    0.23794E-03   -0.29763E-04    64   0.107E-01    0.656E-02
RMM:  17    -0.240099667360E+02   -0.25539E-04   -0.52354E-05    64   0.472E-02    0.664E-02
RMM:  18    -0.240099157445E+02    0.50992E-04   -0.48198E-05    64   0.435E-02    0.411E-02
RMM:  19    -0.240099042350E+02    0.11509E-04   -0.32254E-05    64   0.363E-02    0.154E-02
RMM:  20    -0.240099157629E+02   -0.11528E-04   -0.20229E-05    64   0.299E-02    0.978E-03
RMM:  21    -0.240099173586E+02   -0.15956E-05   -0.27147E-06    56   0.117E-02    0.282E-03
RMM:  22    -0.240099192263E+02   -0.18677E-05   -0.67709E-07    48   0.667E-03    0.658E-03
RMM:  23    -0.240099192779E+02   -0.51636E-07   -0.78983E-07    48   0.582E-03
    2 T=   104. E= -.23955841E+02 F= -.24009919E+02 E0= -.24022388E+02  EK= 0.53585E-01 SP= 0.23E-03 SK= 0.26E-03
 bond charge predicted
 prediction of wavefunctions
       N       E                     dE             d eps       ncg     rms          rms(c)
DAV:   1    -0.240395360693E+02   -0.29617E-01   -0.29806E+00    64   0.153E+01    0.976E-01
RMM:   2    -0.241594316669E+02   -0.11990E+00   -0.68378E-01    64   0.481E+00    0.194E+00
RMM:   3    -0.240301664935E+02    0.12927E+00   -0.75644E-01    64   0.518E+00    0.705E-01
RMM:   4    -0.240209070764E+02    0.92594E-02   -0.14110E-02    64   0.964E-01    0.484E-01
RMM:   5    -0.240164756027E+02    0.44315E-02   -0.47666E-02    64   0.136E+00    0.363E-01
RMM:   6    -0.240148580944E+02    0.16175E-02   -0.10277E-03    64   0.247E-01    0.287E-01
RMM:   7    -0.240151133854E+02   -0.25529E-03   -0.69075E-04    64   0.173E-01    0.299E-01
RMM:   8    -0.240140130371E+02    0.11003E-02   -0.10287E-03    64   0.207E-01    0.206E-01
RMM:   9    -0.240139001856E+02    0.11285E-03   -0.28059E-04    64   0.108E-01    0.182E-01
RMM:  10    -0.240128905890E+02    0.10096E-02   -0.17482E-03    64   0.262E-01    0.821E-02
RMM:  11    -0.240129597945E+02   -0.69206E-04   -0.34484E-05    64   0.497E-02    0.820E-02
RMM:  12    -0.240129875476E+02   -0.27753E-04   -0.54250E-05    64   0.465E-02    0.850E-02
RMM:  13    -0.240128202360E+02    0.16731E-03   -0.13343E-04    64   0.724E-02    0.650E-02
RMM:  14    -0.240127098525E+02    0.11038E-03   -0.15049E-04    64   0.773E-02    0.465E-02
RMM:  15    -0.240126450361E+02    0.64816E-04   -0.10437E-04    64   0.657E-02    0.332E-02
RMM:  16    -0.240126092176E+02    0.35819E-04   -0.62324E-05    64   0.512E-02    0.232E-02
RMM:  17    -0.240125921475E+02    0.17070E-04   -0.30193E-05    64   0.357E-02    0.161E-02
RMM:  18    -0.240125813148E+02    0.10833E-04   -0.29312E-05    64   0.347E-02    0.953E-03
RMM:  19    -0.240125772219E+02    0.40929E-05   -0.25053E-05    64   0.323E-02    0.593E-03
RMM:  20    -0.240125785110E+02   -0.12891E-05   -0.10888E-05    64   0.216E-02    0.576E-03
RMM:  21    -0.240125794984E+02   -0.98736E-06   -0.14688E-06    48   0.908E-03
    3 T=    98. E= -.23959729E+02 F= -.24012579E+02 E0= -.24020915E+02  EK= 0.50527E-01 SP= 0.11E-02 SK= 0.12E-02
 bond charge predicted
 prediction of wavefunctions
       N       E                     dE             d eps       ncg     rms          rms(c)
DAV:   1    -0.240039454678E+02    0.86330E-02   -0.78219E-01    64   0.849E+00    0.617E-01
RMM:   2    -0.241574638783E+02   -0.15352E+00   -0.43526E-01    64   0.414E+00    0.202E+00
RMM:   3    -0.240442472519E+02    0.11322E+00   -0.10797E+00    64   0.639E+00    0.114E+00
RMM:   4    -0.240081134334E+02    0.36134E-01   -0.44727E-02    64   0.140E+00    0.609E-01
RMM:   5    -0.239997289619E+02    0.83845E-02   -0.16543E-02    64   0.857E-01    0.422E-01
RMM:   6    -0.239982290673E+02    0.14999E-02   -0.67403E-03    64   0.505E-01    0.325E-01
RMM:   7    -0.239984608295E+02   -0.23176E-03   -0.11305E-03    64   0.230E-01    0.328E-01
RMM:   8    -0.239977510787E+02    0.70975E-03   -0.11610E-03    64   0.233E-01    0.285E-01
RMM:   9    -0.239955304988E+02    0.22206E-02   -0.44594E-03    64   0.417E-01    0.133E-01
RMM:  10    -0.239951292071E+02    0.40129E-03   -0.16431E-03    64   0.263E-01    0.621E-02
RMM:  11    -0.239951084411E+02    0.20766E-04   -0.19895E-04    64   0.941E-02    0.408E-02
RMM:  12    -0.239951185384E+02   -0.10097E-04   -0.72570E-05    64   0.557E-02    0.284E-02
RMM:  13    -0.239951229726E+02   -0.44342E-05   -0.54204E-05    64   0.490E-02    0.128E-02
RMM:  14    -0.239951335502E+02   -0.10578E-04   -0.14252E-05    64   0.264E-02    0.851E-03
RMM:  15    -0.239951362444E+02   -0.26942E-05   -0.81519E-06    64   0.178E-02    0.411E-03
RMM:  16    -0.239951391126E+02   -0.28683E-05   -0.17864E-06    48   0.944E-03    0.242E-03
RMM:  17    -0.239951404797E+02   -0.13671E-05   -0.34101E-07    48   0.506E-03    0.291E-03
RMM:  18    -0.239951408103E+02   -0.33060E-06   -0.20711E-07    48   0.340E-03
    4 T=    99. E= -.23938434E+02 F= -.23995141E+02 E0= -.23999190E+02  EK= 0.51364E-01 SP= 0.27E-02 SK= 0.27E-02
 bond charge predicted
 prediction of wavefunctions
       N       E                     dE             d eps       ncg     rms          rms(c)
DAV:   1    -0.239814718957E+02    0.13669E-01   -0.99351E-01    64   0.969E+00    0.532E-01
RMM:   2    -0.240026624350E+02   -0.21191E-01   -0.11415E-01    64   0.226E+00    0.831E-01
RMM:   3    -0.240092280628E+02   -0.65656E-02   -0.28606E-01    64   0.325E+00    0.899E-01
RMM:   4    -0.239799290664E+02    0.29299E-01   -0.81363E-02    64   0.183E+00    0.178E-01
RMM:   5    -0.239820917421E+02   -0.21627E-02   -0.56971E-03    64   0.492E-01    0.235E-01
RMM:   6    -0.239807420012E+02    0.13497E-02   -0.15857E-03    64   0.275E-01    0.132E-01
RMM:   7    -0.239802655354E+02    0.47647E-03   -0.10990E-03    64   0.211E-01    0.648E-02
RMM:   8    -0.239803248387E+02   -0.59303E-04   -0.20336E-04    64   0.937E-02    0.549E-02
RMM:   9    -0.239801984999E+02    0.12634E-03   -0.77573E-04    64   0.175E-01    0.332E-02
RMM:  10    -0.239801809015E+02    0.17598E-04   -0.13548E-04    64   0.767E-02    0.205E-02
RMM:  11    -0.239801907022E+02   -0.98007E-05   -0.22476E-05    64   0.316E-02    0.115E-02
RMM:  12    -0.239801982447E+02   -0.75425E-05   -0.18968E-05    64   0.274E-02    0.686E-03
RMM:  13    -0.239801984526E+02   -0.20793E-06   -0.11585E-05    64   0.211E-02    0.250E-03
RMM:  14    -0.239801995083E+02   -0.10557E-05   -0.11162E-06    48   0.820E-03    0.246E-03
RMM:  15    -0.239801995539E+02   -0.45638E-07   -0.66812E-07    48   0.634E-03
    5 T=    83. E= -.23927954E+02 F= -.23980200E+02 E0= -.23985068E+02  EK= 0.43019E-01 SP= 0.48E-02 SK= 0.44E-02
 bond charge predicted
 prediction of wavefunctions
       N       E                     dE             d eps       ncg     rms          rms(c)
DAV:   1    -0.239970148688E+02   -0.16815E-01   -0.10009E+00    64   0.955E+00    0.616E-01
RMM:   2    -0.240393912672E+02   -0.42376E-01   -0.12953E-01    64   0.219E+00    0.993E-01
RMM:   3    -0.240009258106E+02    0.38465E-01   -0.15802E-01    64   0.232E+00    0.615E-01
RMM:   4    -0.239942206542E+02    0.67052E-02   -0.50026E-02    64   0.140E+00    0.458E-01
RMM:   5    -0.239934403297E+02    0.78032E-03   -0.17186E-02    64   0.819E-01    0.324E-01
RMM:   6    -0.239932462957E+02    0.19403E-03   -0.37719E-03    64   0.396E-01    0.325E-01
RMM:   7    -0.239930568079E+02    0.18949E-03   -0.22952E-03    64   0.312E-01    0.296E-01
RMM:   8    -0.239917164616E+02    0.13403E-02   -0.13345E-03    64   0.236E-01    0.887E-02
RMM:   9    -0.239919051851E+02   -0.18872E-03   -0.21557E-04    64   0.104E-01    0.921E-02
RMM:  10    -0.239922150943E+02   -0.30991E-03   -0.66357E-04    64   0.159E-01    0.139E-01
RMM:  11    -0.239919635211E+02    0.25157E-03   -0.36420E-04    64   0.118E-01    0.432E-02
RMM:  12    -0.239919930730E+02   -0.29552E-04   -0.11830E-05    64   0.311E-02    0.339E-02
RMM:  13    -0.239919926736E+02    0.39937E-06   -0.24886E-05    64   0.309E-02    0.146E-02
RMM:  14    -0.239919976651E+02   -0.49915E-05   -0.22718E-06    52   0.121E-02    0.208E-03
RMM:  15    -0.239920004971E+02   -0.28320E-05   -0.36407E-07    48   0.499E-03    0.346E-03
RMM:  16    -0.239920012174E+02   -0.72029E-06   -0.19718E-07    48   0.315E-03
    6 T=   119. E= -.23916058E+02 F= -.23992001E+02 E0= -.23999997E+02  EK= 0.61325E-01 SP= 0.74E-02 SK= 0.72E-02
 bond charge predicted
 prediction of wavefunctions
       N       E                     dE             d eps       ncg     rms          rms(c)
DAV:   1    -0.240136163521E+02   -0.21616E-01   -0.93062E-01    64   0.936E+00    0.622E-01
RMM:   2    -0.240273244964E+02   -0.13708E-01   -0.11297E-01    64   0.236E+00    0.708E-01
RMM:   3    -0.240104139043E+02    0.16911E-01   -0.23493E-02    64   0.957E-01    0.343E-01
RMM:   4    -0.240087749626E+02    0.16389E-02   -0.66241E-03    64   0.522E-01    0.174E-01
RMM:   5    -0.240082599948E+02    0.51497E-03   -0.30682E-03    64   0.361E-01    0.503E-02
RMM:   6    -0.240085690760E+02   -0.30908E-03   -0.21757E-04    64   0.102E-01    0.760E-02
RMM:   7    -0.240086212044E+02   -0.52128E-04   -0.11218E-04    64   0.659E-02    0.664E-02
RMM:   8    -0.240085676718E+02    0.53533E-04   -0.10578E-04    64   0.663E-02    0.424E-02
RMM:   9    -0.240085512290E+02    0.16443E-04   -0.37248E-05    64   0.399E-02    0.285E-02
RMM:  10    -0.240085371845E+02    0.14045E-04   -0.54793E-05    64   0.469E-02    0.113E-02
RMM:  11    -0.240085392237E+02   -0.20392E-05   -0.10111E-05    64   0.212E-02    0.547E-03
RMM:  12    -0.240085425489E+02   -0.33252E-05   -0.70477E-06    64   0.176E-02    0.149E-03
RMM:  13    -0.240085444870E+02   -0.19382E-05   -0.45453E-07    48   0.551E-03    0.109E-03
RMM:  14    -0.240085454167E+02   -0.92968E-06   -0.23501E-07    48   0.384E-03
    7 T=   150. E= -.23906824E+02 F= -.24008545E+02 E0= -.24012421E+02  EK= 0.77476E-01 SP= 0.11E-01 SK= 0.13E-01
 bond charge predicted
 prediction of wavefunctions
       N       E                     dE             d eps       ncg     rms          rms(c)
DAV:   1    -0.239364543102E+02    0.72090E-01   -0.44230E-01    64   0.712E+00    0.515E-01
RMM:   2    -0.239569525134E+02   -0.20498E-01   -0.15429E-01    64   0.274E+00    0.812E-01
RMM:   3    -0.239402002959E+02    0.16752E-01   -0.82640E-02    64   0.186E+00    0.473E-01
RMM:   4    -0.239343103118E+02    0.58900E-02   -0.22435E-02    64   0.966E-01    0.156E-01
RMM:   5    -0.239340500236E+02    0.26029E-03   -0.24578E-03    64   0.331E-01    0.554E-02
RMM:   6    -0.239343185683E+02   -0.26854E-03   -0.75557E-04    64   0.160E-01    0.328E-02
RMM:   7    -0.239344521017E+02   -0.13353E-03   -0.16394E-04    64   0.866E-02    0.167E-02
RMM:   8    -0.239345211247E+02   -0.69023E-04   -0.44579E-05    64   0.414E-02    0.790E-03
RMM:   9    -0.239345402079E+02   -0.19083E-04   -0.16015E-05    64   0.244E-02    0.547E-03
RMM:  10    -0.239345461060E+02   -0.58982E-05   -0.68954E-06    63   0.159E-02    0.409E-03
RMM:  11    -0.239345518735E+02   -0.57674E-05   -0.14007E-06    48   0.785E-03    0.303E-03
RMM:  12    -0.239345549491E+02   -0.30756E-05   -0.85227E-07    48   0.624E-03    0.178E-03
RMM:  13    -0.239345571768E+02   -0.22277E-05   -0.28028E-07    48   0.377E-03    0.104E-03
RMM:  14    -0.239345590812E+02   -0.19044E-05   -0.22494E-07    48   0.300E-03    0.942E-04
RMM:  15    -0.239345595078E+02   -0.42663E-06   -0.20742E-08    36   0.150E-03
    8 T=    79. E= -.23859134E+02 F= -.23934560E+02 E0= -.23939256E+02  EK= 0.40841E-01 SP= 0.16E-01 SK= 0.19E-01
 bond charge predicted
 prediction of wavefunctions
       N       E                     dE             d eps       ncg     rms          rms(c)
DAV:   1    -0.240064553439E+02   -0.71896E-01   -0.23287E+00    64   0.148E+01    0.719E-01
RMM:   2    -0.240001607494E+02    0.62946E-02   -0.10744E-01    64   0.246E+00    0.444E-01
RMM:   3    -0.240052765211E+02   -0.51158E-02   -0.28046E-02    64   0.108E+00    0.359E-01
RMM:   4    -0.240021640775E+02    0.31124E-02   -0.15712E-02    64   0.762E-01    0.131E-01
RMM:   5    -0.240046203394E+02   -0.24563E-02   -0.34777E-03    64   0.373E-01    0.172E-01
RMM:   6    -0.240050737380E+02   -0.45340E-03   -0.47536E-04    64   0.153E-01    0.114E-01
RMM:   7    -0.240049090127E+02    0.16473E-03   -0.18822E-03    64   0.263E-01    0.192E-02
RMM:   8    -0.240050412282E+02   -0.13222E-03   -0.10184E-04    64   0.726E-02    0.620E-03
RMM:   9    -0.240051088044E+02   -0.67576E-04   -0.20838E-05    64   0.297E-02    0.697E-03
RMM:  10    -0.240051355613E+02   -0.26757E-04   -0.27120E-05    64   0.315E-02    0.124E-02
RMM:  11    -0.240051517436E+02   -0.16182E-04   -0.16311E-05    64   0.259E-02    0.438E-03
RMM:  12    -0.240051641913E+02   -0.12448E-04   -0.18637E-05    64   0.254E-02    0.773E-03
RMM:  13    -0.240051693662E+02   -0.51749E-05   -0.21232E-06    52   0.911E-03    0.410E-03
RMM:  14    -0.240051720131E+02   -0.26470E-05   -0.11543E-06    48   0.726E-03    0.177E-03
RMM:  15    -0.240051731950E+02   -0.11819E-05   -0.18245E-07    48   0.337E-03    0.197E-03
RMM:  16    -0.240051738922E+02   -0.69721E-06   -0.37093E-07    48   0.403E-03
    9 T=   155. E= -.23877762E+02 F= -.24005174E+02 E0= -.24010235E+02  EK= 0.79998E-01 SP= 0.21E-01 SK= 0.27E-01
 bond charge predicted
 prediction of wavefunctions
       N       E                     dE             d eps       ncg     rms          rms(c)
DAV:   1    -0.238978769284E+02    0.10730E+00   -0.13117E+00    64   0.115E+01    0.476E-01
RMM:   2    -0.239560486183E+02   -0.58172E-01   -0.21194E-01    64   0.330E+00    0.118E+00
RMM:   3    -0.239240007945E+02    0.32048E-01   -0.35293E-02    64   0.126E+00    0.775E-01
RMM:   4    -0.239005672009E+02    0.23434E-01   -0.61836E-02    64   0.148E+00    0.190E-01
RMM:   5    -0.239008634492E+02   -0.29625E-03   -0.35489E-03    64   0.401E-01    0.176E-01
RMM:   6    -0.238999488644E+02    0.91458E-03   -0.39170E-03    64   0.379E-01    0.642E-02
RMM:   7    -0.238999710855E+02   -0.22221E-04   -0.14142E-03    64   0.239E-01    0.260E-02
RMM:   8    -0.239001385722E+02   -0.16749E-03   -0.51002E-04    64   0.145E-01    0.165E-02
RMM:   9    -0.239002319026E+02   -0.93330E-04   -0.12713E-04    64   0.754E-02    0.865E-03
RMM:  10    -0.239002741322E+02   -0.42230E-04   -0.45304E-05    64   0.445E-02    0.111E-02
RMM:  11    -0.239002937103E+02   -0.19578E-04   -0.32486E-05    64   0.347E-02    0.921E-03
RMM:  12    -0.239003054515E+02   -0.11741E-04   -0.11108E-05    64   0.196E-02    0.289E-03
RMM:  13    -0.239003102715E+02   -0.48200E-05   -0.25484E-06    56   0.103E-02    0.301E-03
RMM:  14    -0.239003136436E+02   -0.33721E-05   -0.84278E-07    48   0.628E-03    0.783E-04
RMM:  15    -0.239003151581E+02   -0.15145E-05   -0.39099E-07    48   0.452E-03    0.643E-04
RMM:  16    -0.239003160957E+02   -0.93758E-06   -0.21724E-07    48   0.354E-03
   10 T=    41. E= -.23820341E+02 F= -.23900316E+02 E0= -.23907977E+02  EK= 0.21035E-01 SP= 0.27E-01 SK= 0.32E-01
 bond charge predicted
 prediction of wavefunctions
 wavefunctions rotated
