<?xml version="1.0" encoding="ISO-8859-1"?>
<modeling>
 <generator>
  <i name="program" type="string">vasp </i>
  <i name="version" type="string">5.4.4.18Apr17-6-g9f103f2a35  </i>
  <i name="subversion" type="string">(build Jul 12 2018 13:43:46) complex            parallel </i>
  <i name="platform" type="string">LinuxGNU </i>
  <i name="date" type="string">2019 06 22 </i>
  <i name="time" type="string">02:17:32 </i>
 </generator>
 <incar>
  <i type="int" name="ISTART">     0</i>
  <i type="string" name="PREC">a</i>
  <i type="string" name="ALGO">fast</i>
  <i type="int" name="MAXMIX">    50</i>
  <i type="int" name="ICHARG">     2</i>
  <i type="int" name="IBRION">     0</i>
  <i name="EDIFF">      0.00000100</i>
  <i type="int" name="NSW">    10</i>
  <i type="int" name="ISIF">     2</i>
  <i type="int" name="ISYM">     0</i>
  <i type="int" name="NBLOCK">     1</i>
  <i type="int" name="KBLOCK">   100</i>
  <i name="ENCUT">    400.00000000</i>
  <i name="POTIM">      2.00000000</i>
  <i name="TEBEG">     50.00000000</i>
  <i name="TEEND">     50.00000000</i>
  <i name="SMASS">      0.00000000</i>
  <i type="logical" name="LREAL"> T  </i>
  <i type="int" name="ISMEAR">     1</i>
  <i name="SIGMA">      0.20000000</i>
  <i name="KSPACING">      0.50000000</i>
  <i type="logical" name="KGAMMA"> F  </i>
  <i name="PSTRESS">      0.00000000</i>
  <i type="logical" name="LWAVE"> F  </i>
  <i type="logical" name="LCHARG"> F  </i>
  <v type="int" name="KPOINT_BSE">    -1     0     0     0</v>
 </incar>
 <structure name="primitive_cell" >
  <crystal>
   <varray name="basis" >
    <v>       9.77932655       0.00000000       0.00000000 </v>
    <v>      -0.08266850       9.89274269       0.00000000 </v>
    <v>       0.12199206      -0.14318704      10.19450395 </v>
   </varray>
   <i name="volume">    986.26077245 </i>
   <varray name="rec_basis" >
    <v>       0.10225653       0.00085450      -0.00121165 </v>
    <v>      -0.00000000       0.10108420       0.00141978 </v>
    <v>       0.00000000      -0.00000000       0.09809207 </v>
   </varray>
  </crystal>
  <varray name="positions" >
   <v>      -0.46173016       0.40665551       0.36073236 </v>
   <v>      -0.49677631       0.46717978       0.44533263 </v>
   <v>       0.39418974       0.48075695       0.43774560 </v>
   <v>      -0.44722632      -0.43476433       0.44201593 </v>
   <v>      -0.47134093       0.41680913      -0.46083310 </v>
  </varray>
 </structure>
 <varray name="primitive_index" >
  <v type="int" >        1 </v>
  <v type="int" >        5 </v>
  <v type="int" >        2 </v>
  <v type="int" >        3 </v>
  <v type="int" >        4 </v>
 </varray>
 <kpoints>
  <generation param="Monkhorst-Pack">
   <v type="int" name="divisions">       2        2        2 </v>
   <v name="usershift">      0.00000000       0.00000000       0.00000000 </v>
   <v name="genvec1">      0.50000000       0.00000000       0.00000000 </v>
   <v name="genvec2">      0.00000000       0.50000000      -0.00000000 </v>
   <v name="genvec3">      0.00000000       0.00000000       0.50000000 </v>
   <v name="shift">      0.50000000       0.50000000       0.50000000 </v>
  </generation>
  <varray name="kpointlist" >
   <v>       0.25000000       0.25000000       0.25000000 </v>
   <v>      -0.25000000       0.25000000       0.25000000 </v>
   <v>       0.25000000      -0.25000000       0.25000000 </v>
   <v>      -0.25000000      -0.25000000       0.25000000 </v>
  </varray>
  <varray name="weights" >
   <v>       0.25000000 </v>
   <v>       0.25000000 </v>
   <v>       0.25000000 </v>
   <v>       0.25000000 </v>
  </varray>
 </kpoints>
 <parameters>
  <separator name="general" >
   <i type="string" name="SYSTEM">unknown system</i>
   <i type="logical" name="LCOMPAT"> F  </i>
  </separator>
  <separator name="electronic" >
   <i type="string" name="PREC">a</i>
   <i name="ENMAX">    400.00000000</i>
   <i name="ENAUG">    644.87300000</i>
   <i name="EDIFF">      0.00000100</i>
   <i type="int" name="IALGO">    68</i>
   <i type="int" name="IWAVPR">    12</i>
   <i type="int" name="NBANDS">     8</i>
   <i name="NELECT">      8.00000000</i>
   <i type="int" name="TURBO">     0</i>
   <i type="int" name="IRESTART">     0</i>
   <i type="int" name="NREBOOT">     0</i>
   <i type="int" name="NMIN">     0</i>
   <i name="EREF">      0.00000000</i>
   <separator name="electronic smearing" >
    <i type="int" name="ISMEAR">     1</i>
    <i name="SIGMA">      0.20000000</i>
    <i name="KSPACING">      0.50000000</i>
    <i type="logical" name="KGAMMA"> F  </i>
   </separator>
   <separator name="electronic projectors" >
    <i type="logical" name="LREAL"> T  </i>
    <v name="ROPT">      0.00000000      0.00000000</v>
    <i type="int" name="LMAXPAW">  -100</i>
    <i type="int" name="LMAXMIX">     2</i>
    <i type="logical" name="NLSPLINE"> F  </i>
   </separator>
   <separator name="electronic startup" >
    <i type="int" name="ISTART">     0</i>
    <i type="int" name="ICHARG">     2</i>
    <i type="int" name="INIWAV">     1</i>
   </separator>
   <separator name="electronic spin" >
    <i type="int" name="ISPIN">     1</i>
    <i type="logical" name="LNONCOLLINEAR"> F  </i>
    <v name="MAGMOM">      1.00000000      1.00000000      1.00000000      1.00000000      1.00000000</v>
    <i name="NUPDOWN">     -1.00000000</i>
    <i type="logical" name="LSORBIT"> F  </i>
    <v name="SAXIS">      0.00000000      0.00000000      1.00000000</v>
    <i type="logical" name="LSPIRAL"> F  </i>
    <v name="QSPIRAL">      0.00000000      0.00000000      0.00000000</v>
    <i type="logical" name="LZEROZ"> F  </i>
   </separator>
   <separator name="electronic exchange-correlation" >
    <i type="logical" name="LASPH"> F  </i>
    <i type="logical" name="LMETAGGA"> F  </i>
   </separator>
   <separator name="electronic convergence" >
    <i type="int" name="NELM">    60</i>
    <i type="int" name="NELMDL">    -5</i>
    <i type="int" name="NELMIN">     2</i>
    <i name="ENINI">    400.00000000</i>
    <separator name="electronic convergence detail" >
     <i type="logical" name="LDIAG"> T  </i>
     <i type="logical" name="LSUBROT"> F  </i>
     <i name="WEIMIN">      0.00100000</i>
     <i name="EBREAK">      0.00000003</i>
     <i name="DEPER">      0.30000000</i>
     <i type="int" name="NRMM">     4</i>
     <i name="TIME">      0.40000000</i>
    </separator>
   </separator>
   <separator name="electronic mixer" >
    <i name="AMIX">      0.40000000</i>
    <i name="BMIX">      1.00000000</i>
    <i name="AMIN">      0.10000000</i>
    <i name="AMIX_MAG">      1.60000000</i>
    <i name="BMIX_MAG">      1.00000000</i>
    <separator name="electronic mixer details" >
     <i type="int" name="IMIX">     4</i>
     <i type="logical" name="MIXFIRST"> F  </i>
     <i type="int" name="MAXMIX">    50</i>
     <i name="WC">    100.00000000</i>
     <i type="int" name="INIMIX">     1</i>
     <i type="int" name="MIXPRE">     1</i>
     <i type="int" name="MREMOVE">     5</i>
    </separator>
   </separator>
   <separator name="electronic dipolcorrection" >
    <i type="logical" name="LDIPOL"> F  </i>
    <i type="logical" name="LMONO"> F  </i>
    <i type="int" name="IDIPOL">     0</i>
    <i name="EPSILON">      1.00000000</i>
    <v name="DIPOL">   -100.00000000   -100.00000000   -100.00000000</v>
    <i name="EFIELD">      0.00000000</i>
   </separator>
  </separator>
  <separator name="grids" >
   <i type="int" name="NGX">    64</i>
   <i type="int" name="NGY">    70</i>
   <i type="int" name="NGZ">    70</i>
   <i type="int" name="NGXF">   128</i>
   <i type="int" name="NGYF">   140</i>
   <i type="int" name="NGZF">   140</i>
   <i type="logical" name="ADDGRID"> F  </i>
  </separator>
  <separator name="ionic" >
   <i type="int" name="NSW">    10</i>
   <i type="int" name="IBRION">     0</i>
   <i type="int" name="MDALGO">     0</i>
   <i type="int" name="ISIF">     2</i>
   <i name="PSTRESS">      0.00000000</i>
   <i name="EDIFFG">      0.00001000</i>
   <i type="int" name="NFREE">     0</i>
   <i name="POTIM">      2.00000000</i>
   <i name="SMASS">      0.00169130</i>
   <i name="SCALEE">      1.00000000</i>
  </separator>
  <separator name="ionic md" >
   <i name="TEBEG">     50.00000000</i>
   <i name="TEEND">     50.00000000</i>
   <i type="int" name="NBLOCK">     1</i>
   <i type="int" name="KBLOCK">     1</i>
   <i type="int" name="NPACO">   256</i>
   <i name="APACO">     16.00000000</i>
  </separator>
  <separator name="symmetry" >
   <i type="int" name="ISYM">     0</i>
   <i name="SYMPREC">      0.00001000</i>
  </separator>
  <separator name="dos" >
   <i type="int" name="LORBIT">     0</i>
   <v name="RWIGS">     -1.00000000     -1.00000000</v>
   <i type="int" name="NEDOS">   301</i>
   <i name="EMIN">     10.00000000</i>
   <i name="EMAX">    -10.00000000</i>
   <i name="EFERMI">      0.00000000</i>
  </separator>
  <separator name="writing" >
   <i type="int" name="NWRITE">     2</i>
   <i type="logical" name="LWAVE"> F  </i>
   <i type="logical" name="LDOWNSAMPLE"> F  </i>
   <i type="logical" name="LCHARG"> F  </i>
   <i type="logical" name="LPARD"> F  </i>
   <i type="logical" name="LVTOT"> F  </i>
   <i type="logical" name="LVHAR"> F  </i>
   <i type="logical" name="LELF"> F  </i>
   <i type="logical" name="LOPTICS"> F  </i>
   <v name="STM">      0.00000000      0.00000000      0.00000000      0.00000000      0.00000000      0.00000000      0.00000000</v>
  </separator>
  <separator name="performance" >
   <i type="int" name="NPAR">     1</i>
   <i type="int" name="NSIM">     4</i>
   <i type="int" name="NBLK">    -1</i>
   <i type="logical" name="LPLANE"> T  </i>
   <i type="logical" name="LSCALAPACK"> T  </i>
   <i type="logical" name="LSCAAWARE"> F  </i>
   <i type="logical" name="LSCALU"> F  </i>
   <i type="logical" name="LASYNC"> F  </i>
   <i type="logical" name="LORBITALREAL"> F  </i>
  </separator>
  <separator name="miscellaneous" >
   <i type="int" name="IDIOT">     3</i>
   <i type="int" name="ISPECIAL">     0</i>
   <i type="logical" name="LMUSIC"> F  </i>
   <v name="POMASS">      1.00000000     12.01100000</v>
   <v name="DARWINR">      0.00000000      0.00000000</v>
   <v name="DARWINV">      1.00000000      1.00000000</v>
   <i type="logical" name="LCORR"> T  </i>
  </separator>
  <i type="logical" name="GGA_COMPAT"> T  </i>
  <i type="logical" name="LBERRY"> F  </i>
  <i type="int" name="ICORELEVEL">     0</i>
  <i type="logical" name="LDAU"> F  </i>
  <i type="int" name="I_CONSTRAINED_M">     0</i>
  <separator name="electronic exchange-correlation" >
   <i type="string" name="GGA">--</i>
   <i type="int" name="VOSKOWN">     0</i>
   <i type="logical" name="LHFCALC"> F  </i>
   <i type="string" name="PRECFOCK"></i>
   <i type="logical" name="LSYMGRAD"> F  </i>
   <i type="logical" name="LHFONE"> F  </i>
   <i type="logical" name="LRHFCALC"> F  </i>
   <i type="logical" name="LTHOMAS"> F  </i>
   <i type="logical" name="LMODELHF"> F  </i>
   <i name="ENCUT4O">     -1.00000000</i>
   <i type="int" name="EXXOEP">     0</i>
   <i type="int" name="FOURORBIT">     0</i>
   <i name="AEXX">      0.00000000</i>
   <i name="HFALPHA">      0.00000000</i>
   <i name="MCALPHA">      0.00000000</i>
   <i name="ALDAX">      1.00000000</i>
   <i name="AGGAX">      1.00000000</i>
   <i name="ALDAC">      1.00000000</i>
   <i name="AGGAC">      1.00000000</i>
   <i type="int" name="NKREDX">     1</i>
   <i type="int" name="NKREDY">     1</i>
   <i type="int" name="NKREDZ">     1</i>
   <i type="logical" name="SHIFTRED"> F  </i>
   <i type="logical" name="ODDONLY"> F  </i>
   <i type="logical" name="EVENONLY"> F  </i>
   <i type="int" name="LMAXFOCK">     0</i>
   <i type="int" name="NMAXFOCKAE">     0</i>
   <i type="logical" name="LFOCKAEDFT"> F  </i>
   <i name="HFSCREEN">      0.00000000</i>
   <i name="HFSCREENC">      0.00000000</i>
   <i type="int" name="NBANDSGWLOW">     0</i>
  </separator>
  <separator name="vdW DFT" >
   <i type="logical" name="LUSE_VDW"> F  </i>
   <i name="Zab_VDW">     -0.84910000</i>
   <i name="PARAM1">      0.12340000</i>
   <i name="PARAM2">      1.00000000</i>
   <i name="PARAM3">      0.00000000</i>
  </separator>
  <separator name="model GW" >
   <i type="int" name="MODEL_GW">     0</i>
   <i name="MODEL_EPS0">    118.35129269</i>
   <i name="MODEL_ALPHA">      1.00000000</i>
  </separator>
  <separator name="linear response parameters" >
   <i type="logical" name="LEPSILON"> F  </i>
   <i type="logical" name="LRPA"> F  </i>
   <i type="logical" name="LNABLA"> F  </i>
   <i type="logical" name="LVEL"> F  </i>
   <i type="int" name="KINTER">     0</i>
   <i name="CSHIFT">      0.10000000</i>
   <i name="OMEGAMAX">     -1.00000000</i>
   <i name="DEG_THRESHOLD">      0.00200000</i>
   <i name="RTIME">     -0.10000000</i>
   <i name="WPLASMAI">      0.00000000</i>
   <v name="DFIELD">      0.00000000      0.00000000      0.00000000</v>
   <v name="WPLASMA">      0.00000000      0.00000000      0.00000000      0.00000000      0.00000000      0.00000000      0.00000000      0.00000000      0.00000000</v>
  </separator>
  <separator name="orbital magnetization" >
   <i type="logical" name="NUCIND"> F  </i>
   <v name="MAGPOS">      0.00000000      0.00000000      0.00000000</v>
   <i type="logical" name="LNICSALL"> T  </i>
   <i type="logical" name="ORBITALMAG"> F  </i>
   <i type="logical" name="LMAGBLOCH"> F  </i>
   <i type="logical" name="LCHIMAG"> F  </i>
   <i type="logical" name="LGAUGE"> T  </i>
   <i type="int" name="MAGATOM">     0</i>
   <v name="MAGDIPOL">      0.00000000      0.00000000      0.00000000</v>
   <v name="AVECCONST">      0.00000000      0.00000000      0.00000000</v>
  </separator>
  <separator name="response functions" >
   <i type="logical" name="LADDER"> F  </i>
   <i type="logical" name="LRPAFORCE"> F  </i>
   <i type="logical" name="LFXC"> F  </i>
   <i type="logical" name="LHARTREE"> T  </i>
   <i type="int" name="IBSE">     0</i>
   <v type="int" name="KPOINT">    -1     0     0     0</v>
   <i type="logical" name="LTCTE"> F  </i>
   <i type="logical" name="LTETE"> F  </i>
   <i type="logical" name="LTRIPLET"> F  </i>
   <i type="logical" name="LFXCEPS"> F  </i>
   <i type="logical" name="LFXHEG"> F  </i>
   <i type="int" name="NATURALO">     2</i>
   <i type="logical" name="L2ORDER"> F  </i>
   <i type="logical" name="LMP2LT"> F  </i>
   <i type="logical" name="LUSEW"> F  </i>
   <i name="ENCUTGW">     -2.00000000</i>
   <i name="ENCUTGWSOFT">     -2.00000000</i>
   <i name="ENCUTLF">     -1.00000000</i>
   <i type="int" name="LMAXMP2">    -1</i>
   <i name="SCISSOR">      0.00000000</i>
   <i type="int" name="NOMEGA">     0</i>
   <i type="int" name="NOMEGAR">     0</i>
   <i type="int" name="NBANDSGW">    -1</i>
   <i type="int" name="NBANDSO">    -1</i>
   <i type="int" name="NBANDSV">    -1</i>
   <i type="int" name="NELM">     1</i>
   <i type="int" name="NELMHF">     1</i>
   <i type="int" name="DIM">     3</i>
   <i type="int" name="ANTIRES">     0</i>
   <i name="OMEGAMAX">    -30.00000000</i>
   <i name="OMEGAMIN">    -30.00000000</i>
   <i name="OMEGATL">   -200.00000000</i>
   <i type="int" name="OMEGAGRID">   140</i>
   <i name="CSHIFT">     -0.10000000</i>
   <i type="logical" name="SELFENERGY"> F  </i>
   <i type="logical" name="LSPECTRAL"> F  </i>
   <i type="logical" name="LSPECTRALGW"> F  </i>
   <i type="logical" name="LSINGLES"> F  </i>
   <i type="logical" name="LFERMIGW"> F  </i>
   <i type="logical" name="ODDONLYGW"> F  </i>
   <i type="logical" name="EVENONLYGW"> F  </i>
   <i type="int" name="NKREDLFX">     1</i>
   <i type="int" name="NKREDLFY">     1</i>
   <i type="int" name="NKREDLFZ">     1</i>
   <i type="int" name="MAXMEM">  2800</i>
   <i type="int" name="TELESCOPE">     0</i>
   <i type="int" name="TAUPAR">     1</i>
   <i type="int" name="OMEGAPAR">    -1</i>
   <i name="LAMBDA">      1.00000000</i>
  </separator>
  <separator name="External order field" >
   <i name="OFIELD_KAPPA">      0.00000000</i>
   <v name="OFIELD_K">      0.00000000      0.00000000      0.00000000</v>
   <i name="OFIELD_Q6_NEAR">      0.00000000</i>
   <i name="OFIELD_Q6_FAR">      0.00000000</i>
   <i name="OFIELD_A">      0.00000000</i>
  </separator>
 </parameters>
 <atominfo>
  <atoms>       5 </atoms>
  <types>       2 </types>
  <array name="atoms" >
   <dimension dim="1">ion</dimension>
   <field type="string">element</field>
   <field type="int">atomtype</field>
   <set>
    <rc><c>H </c><c>   1</c></rc>
    <rc><c>H </c><c>   1</c></rc>
    <rc><c>H </c><c>   1</c></rc>
    <rc><c>H </c><c>   1</c></rc>
    <rc><c>C </c><c>   2</c></rc>
   </set>
  </array>
  <array name="atomtypes" >
   <dimension dim="1">type</dimension>
   <field type="int">atomspertype</field>
   <field type="string">element</field>
   <field>mass</field>
   <field>valence</field>
   <field type="string">pseudopotential</field>
   <set>
    <rc><c>   4</c><c>H </c><c>      1.00000000</c><c>      1.00000000</c><c>  PAW_PBE H 15Jun2001                   </c></rc>
    <rc><c>   1</c><c>C </c><c>     12.01100000</c><c>      4.00000000</c><c>  PAW_PBE C 08Apr2002                   </c></rc>
   </set>
  </array>
 </atominfo>
 <structure name="initialpos" >
  <crystal>
   <varray name="basis" >
    <v>       9.77932655       0.00000000       0.00000000 </v>
    <v>      -0.08266850       9.89274269       0.00000000 </v>
    <v>       0.12199206      -0.14318704      10.19450395 </v>
   </varray>
   <i name="volume">    986.26077245 </i>
   <varray name="rec_basis" >
    <v>       0.10225653       0.00085450      -0.00121165 </v>
    <v>      -0.00000000       0.10108420       0.00141978 </v>
    <v>       0.00000000      -0.00000000       0.09809207 </v>
   </varray>
  </crystal>
  <varray name="positions" >
   <v>       0.53826984       0.40665551       0.36073236 </v>
   <v>       0.39418974       0.48075695       0.43774560 </v>
   <v>       0.55277368       0.56523567       0.44201593 </v>
   <v>       0.52865907       0.41680913       0.53916690 </v>
   <v>       0.50322369       0.46717978       0.44533263 </v>
  </varray>
  <varray name="velocities" >
   <v>       0.00145864       0.00069689      -0.00050428 </v>
   <v>       0.00266234      -0.00119041       0.00164352 </v>
   <v>      -0.00150874       0.00029669       0.00087958 </v>
   <v>       0.00030760       0.00035805      -0.00140386 </v>
   <v>      -0.00024310      -0.00001342      -0.00005120 </v>
  </varray>
 </structure>
 <calculation>
  <scstep>
   <time name="dav">    2.68    2.69</time>
   <time name="total">    4.32    4.33</time>
   <energy>
    <i name="alphaZ">      0.24562550 </i>
    <i name="ewald">    129.01004753 </i>
    <i name="hartreedc">   -243.88407211 </i>
    <i name="XCdc">     22.02916338 </i>
    <i name="pawpsdc">    117.05815612 </i>
    <i name="pawaedc">   -117.66307307 </i>
    <i name="eentropy">      0.00289895 </i>
    <i name="bandstr">    -91.76565013 </i>
    <i name="atom">    197.04175453 </i>
    <i name="e_fr_energy">     12.07485071 </i>
    <i name="e_wo_entrp">     12.07195176 </i>
    <i name="e_0_energy">     12.07388439 </i>
   </energy>
  </scstep>
  <scstep>
   <time name="dav">    2.03    2.04</time>
   <time name="total">    2.03    2.04</time>
   <energy>
    <i name="e_fr_energy">    -23.53131335 </i>
    <i name="e_wo_entrp">    -23.53421237 </i>
    <i name="e_0_energy">    -23.53227969 </i>
   </energy>
  </scstep>
  <scstep>
   <time name="dav">    2.06    2.07</time>
   <time name="total">    2.06    2.07</time>
   <energy>
    <i name="e_fr_energy">    -27.46389658 </i>
    <i name="e_wo_entrp">    -27.49904372 </i>
    <i name="e_0_energy">    -27.47561229 </i>
   </energy>
  </scstep>
  <scstep>
   <time name="dav">    3.71    3.72</time>
   <time name="total">    3.71    3.72</time>
   <energy>
    <i name="e_fr_energy">    -27.61815682 </i>
    <i name="e_wo_entrp">    -27.65392278 </i>
    <i name="e_0_energy">    -27.63007881 </i>
   </energy>
  </scstep>
  <scstep>
   <time name="dav">    2.87    2.88</time>
   <time name="total">    3.11    3.12</time>
   <energy>
    <i name="e_fr_energy">    -27.61820529 </i>
    <i name="e_wo_entrp">    -27.65397145 </i>
    <i name="e_0_energy">    -27.63012734 </i>
   </energy>
  </scstep>
  <scstep>
   <time name="diag">    0.43    0.43</time>
   <time name="diis">    1.48    1.49</time>
   <time name="orth">    0.01    0.01</time>
   <time name="total">    3.93    3.94</time>
   <energy>
    <i name="e_fr_energy">    -24.66625245 </i>
    <i name="e_wo_entrp">    -24.70501544 </i>
    <i name="e_0_energy">    -24.67917345 </i>
   </energy>
  </scstep>
  <scstep>
   <time name="diag">    0.43    0.43</time>
   <time name="diis">    1.51    1.51</time>
   <time name="orth">    0.01    0.01</time>
   <time name="total">    3.94    3.95</time>
   <energy>
    <i name="e_fr_energy">    -24.17337617 </i>
    <i name="e_wo_entrp">    -24.21329583 </i>
    <i name="e_0_energy">    -24.18668272 </i>
   </energy>
  </scstep>
  <scstep>
   <time name="diag">    0.44    0.44</time>
   <time name="diis">    1.51    1.51</time>
   <time name="orth">    0.01    0.01</time>
   <time name="total">    3.95    3.96</time>
   <energy>
    <i name="e_fr_energy">    -24.06236679 </i>
    <i name="e_wo_entrp">    -24.10312642 </i>
    <i name="e_0_energy">    -24.07595333 </i>
   </energy>
  </scstep>
  <scstep>
   <time name="diag">    0.46    0.46</time>
   <time name="diis">    1.46    1.47</time>
   <time name="orth">    0.01    0.01</time>
   <time name="total">    3.90    3.91</time>
   <energy>
    <i name="e_fr_energy">    -24.01258297 </i>
    <i name="e_wo_entrp">    -24.04898627 </i>
    <i name="e_0_energy">    -24.02471741 </i>
   </energy>
  </scstep>
  <scstep>
   <time name="diag">    0.48    0.48</time>
   <time name="diis">    1.43    1.43</time>
   <time name="orth">    0.01    0.01</time>
   <time name="total">    3.93    3.94</time>
   <energy>
    <i name="e_fr_energy">    -24.00942403 </i>
    <i name="e_wo_entrp">    -24.04514933 </i>
    <i name="e_0_energy">    -24.02133246 </i>
   </energy>
  </scstep>
  <scstep>
   <time name="diag">    0.48    0.48</time>
   <time name="diis">    1.42    1.43</time>
   <time name="orth">    0.01    0.01</time>
   <time name="total">    3.90    3.91</time>
   <energy>
    <i name="e_fr_energy">    -24.00889773 </i>
    <i name="e_wo_entrp">    -24.04519211 </i>
    <i name="e_0_energy">    -24.02099586 </i>
   </energy>
  </scstep>
  <scstep>
   <time name="diag">    0.46    0.46</time>
   <time name="diis">    1.48    1.49</time>
   <time name="orth">    0.01    0.01</time>
   <time name="total">    3.90    3.91</time>
   <energy>
    <i name="e_fr_energy">    -24.00429398 </i>
    <i name="e_wo_entrp">    -24.04032715 </i>
    <i name="e_0_energy">    -24.01630504 </i>
   </energy>
  </scstep>
  <scstep>
   <time name="diag">    0.45    0.45</time>
   <time name="diis">    1.52    1.52</time>
   <time name="orth">    0.01    0.01</time>
   <time name="total">    3.88    3.88</time>
   <energy>
    <i name="e_fr_energy">    -24.00671061 </i>
    <i name="e_wo_entrp">    -24.04277458 </i>
    <i name="e_0_energy">    -24.01873193 </i>
   </energy>
  </scstep>
  <scstep>
   <time name="diag">    0.46    0.46</time>
   <time name="diis">    1.57    1.57</time>
   <time name="orth">    0.01    0.01</time>
   <time name="total">    3.83    3.84</time>
   <energy>
    <i name="e_fr_energy">    -24.01236590 </i>
    <i name="e_wo_entrp">    -24.04825321 </i>
    <i name="e_0_energy">    -24.02432834 </i>
   </energy>
  </scstep>
  <scstep>
   <time name="diag">    0.47    0.47</time>
   <time name="diis">    1.59    1.59</time>
   <time name="orth">    0.01    0.01</time>
   <time name="total">    3.87    3.88</time>
   <energy>
    <i name="e_fr_energy">    -24.01369002 </i>
    <i name="e_wo_entrp">    -24.04966963 </i>
    <i name="e_0_energy">    -24.02568322 </i>
   </energy>
  </scstep>
  <scstep>
   <time name="diag">    0.47    0.48</time>
   <time name="diis">    1.55    1.56</time>
   <time name="orth">    0.01    0.01</time>
   <time name="total">    3.84    3.85</time>
   <energy>
    <i name="e_fr_energy">    -24.01493783 </i>
    <i name="e_wo_entrp">    -24.05087014 </i>
    <i name="e_0_energy">    -24.02691526 </i>
   </energy>
  </scstep>
  <scstep>
   <time name="diag">    0.47    0.47</time>
   <time name="diis">    1.52    1.52</time>
   <time name="orth">    0.01    0.01</time>
   <time name="total">    3.78    3.79</time>
   <energy>
    <i name="e_fr_energy">    -24.01617343 </i>
    <i name="e_wo_entrp">    -24.05204821 </i>
    <i name="e_0_energy">    -24.02813169 </i>
   </energy>
  </scstep>
  <scstep>
   <time name="diag">    0.47    0.47</time>
   <time name="diis">    1.50    1.50</time>
   <time name="orth">    0.01    0.01</time>
   <time name="total">    3.79    3.79</time>
   <energy>
    <i name="e_fr_energy">    -24.01635523 </i>
    <i name="e_wo_entrp">    -24.05218509 </i>
    <i name="e_0_energy">    -24.02829852 </i>
   </energy>
  </scstep>
  <scstep>
   <time name="diag">    0.44    0.44</time>
   <time name="diis">    1.50    1.50</time>
   <time name="orth">    0.01    0.01</time>
   <time name="total">    3.77    3.78</time>
   <energy>
    <i name="e_fr_energy">    -24.01657076 </i>
    <i name="e_wo_entrp">    -24.05241836 </i>
    <i name="e_0_energy">    -24.02851996 </i>
   </energy>
  </scstep>
  <scstep>
   <time name="diag">    0.44    0.44</time>
   <time name="diis">    1.51    1.51</time>
   <time name="orth">    0.01    0.01</time>
   <time name="total">    3.80    3.81</time>
   <energy>
    <i name="e_fr_energy">    -24.01664290 </i>
    <i name="e_wo_entrp">    -24.05249338 </i>
    <i name="e_0_energy">    -24.02859306 </i>
   </energy>
  </scstep>
  <scstep>
   <time name="diag">    0.46    0.46</time>
   <time name="diis">    1.46    1.47</time>
   <time name="orth">    0.01    0.01</time>
   <time name="total">    3.80    3.81</time>
   <energy>
    <i name="e_fr_energy">    -24.01666535 </i>
    <i name="e_wo_entrp">    -24.05250881 </i>
    <i name="e_0_energy">    -24.02861317 </i>
   </energy>
  </scstep>
  <scstep>
   <time name="diag">    0.45    0.45</time>
   <time name="diis">    1.11    1.11</time>
   <time name="orth">    0.01    0.01</time>
   <time name="total">    3.48    3.49</time>
   <energy>
    <i name="e_fr_energy">    -24.01666899 </i>
    <i name="e_wo_entrp">    -24.05251455 </i>
    <i name="e_0_energy">    -24.02861751 </i>
   </energy>
  </scstep>
  <scstep>
   <time name="diag">    0.42    0.42</time>
   <time name="diis">    1.13    1.13</time>
   <time name="orth">    0.01    0.01</time>
   <time name="total">    3.52    3.53</time>
   <energy>
    <i name="e_fr_energy">    -24.01667146 </i>
    <i name="e_wo_entrp">    -24.05251734 </i>
    <i name="e_0_energy">    -24.02862009 </i>
   </energy>
  </scstep>
  <scstep>
   <time name="diag">    0.43    0.43</time>
   <time name="diis">    0.93    0.93</time>
   <time name="orth">    0.01    0.01</time>
   <time name="total">    3.06    3.07</time>
   <energy>
    <i name="alphaZ">      0.24562550 </i>
    <i name="ewald">    129.01004753 </i>
    <i name="hartreedc">   -284.75487893 </i>
    <i name="XCdc">     24.78316358 </i>
    <i name="pawpsdc">    477.45427067 </i>
    <i name="pawaedc">   -478.24633675 </i>
    <i name="eentropy">      0.03584533 </i>
    <i name="bandstr">    -89.58616322 </i>
    <i name="atom">    197.04175453 </i>
    <i name="e_fr_energy">    -24.01667177 </i>
    <i name="e_wo_entrp">    -24.05251710 </i>
    <i name="e_0_energy">    -24.02862021 </i>
   </energy>
  </scstep>
  <structure>
   <crystal>
    <varray name="basis" >
     <v>       9.77932655       0.00000000       0.00000000 </v>
     <v>      -0.08266850       9.89274269       0.00000000 </v>
     <v>       0.12199206      -0.14318704      10.19450395 </v>
    </varray>
    <i name="volume">    986.26077245 </i>
    <varray name="rec_basis" >
     <v>       0.10225653       0.00085450      -0.00121165 </v>
     <v>      -0.00000000       0.10108420       0.00141978 </v>
     <v>       0.00000000      -0.00000000       0.09809207 </v>
    </varray>
   </crystal>
   <varray name="positions" >
    <v>       0.53826984       0.40665551       0.36073236 </v>
    <v>       0.39418974       0.48075695       0.43774560 </v>
    <v>       0.55277368       0.56523567       0.44201593 </v>
    <v>       0.52865907       0.41680913       0.53916690 </v>
    <v>       0.50322369       0.46717978       0.44533263 </v>
   </varray>
  </structure>
  <varray name="forces" >
   <v>       0.37795954      -0.53073790       0.20868567 </v>
   <v>      -0.22583222      -0.00166256      -0.08463394 </v>
   <v>       0.86493525       0.83387238       0.37680513 </v>
   <v>      -0.86961258       0.03647972      -0.41386488 </v>
   <v>      -0.13785963       0.15697122       0.90021030 </v>
  </varray>
  <varray name="stress" >
   <v>       0.78698086       0.67207510       0.20811617 </v>
   <v>       0.67207510       1.30448661       0.81762111 </v>
   <v>       0.20811616       0.81762110      -1.24785399 </v>
  </varray>
  <energy>
   <i name="e_fr_energy">    -24.01667177 </i>
   <i name="e_wo_entrp">    -24.02862021 </i>
   <i name="e_0_energy">      0.03584533 </i>
   <i name="kinetic">      0.03527628 </i>
   <i name="lattice kinetic">      0.00000000 </i>
   <i name="nosepot">      0.00000000 </i>
   <i name="nosekinetic">      0.00001062 </i>
   <i name="total">    -23.98138487 </i>
  </energy>
  <dos>
   <i name="efermi">     -9.12136481 </i>
   <total>
    <array>
     <dimension dim="1">gridpoints</dimension>
     <dimension dim="2">spin</dimension>
     <field>energy</field>
     <field>total</field>
     <field>integrated</field>
     <set>
      <set comment="spin 1">
       <r>   -18.9106     0.0000     0.0000 </r>
       <r>   -18.8385     0.0000     0.0000 </r>
       <r>   -18.7664     0.0000     0.0000 </r>
       <r>   -18.6943     0.0000     0.0000 </r>
       <r>   -18.6222     0.0000     0.0000 </r>
       <r>   -18.5501    -0.0000    -0.0000 </r>
       <r>   -18.4780    -0.0000    -0.0000 </r>
       <r>   -18.4059    -0.0000    -0.0000 </r>
       <r>   -18.3338    -0.0000    -0.0000 </r>
       <r>   -18.2617    -0.0000    -0.0000 </r>
       <r>   -18.1896    -0.0000    -0.0000 </r>
       <r>   -18.1175    -0.0000    -0.0000 </r>
       <r>   -18.0454    -0.0000    -0.0000 </r>
       <r>   -17.9733    -0.0000    -0.0000 </r>
       <r>   -17.9012    -0.0000    -0.0000 </r>
       <r>   -17.8291    -0.0000    -0.0000 </r>
       <r>   -17.7570    -0.0000    -0.0000 </r>
       <r>   -17.6849    -0.0000    -0.0000 </r>
       <r>   -17.6128    -0.0001    -0.0000 </r>
       <r>   -17.5407    -0.0010    -0.0001 </r>
       <r>   -17.4686    -0.0069    -0.0006 </r>
       <r>   -17.3965    -0.0357    -0.0032 </r>
       <r>   -17.3244    -0.1325    -0.0127 </r>
       <r>   -17.2523    -0.3278    -0.0363 </r>
       <r>   -17.1802    -0.4248    -0.0670 </r>
       <r>   -17.1081     0.2686    -0.0476 </r>
       <r>   -17.0360     2.5509     0.1363 </r>
       <r>   -16.9639     5.9584     0.5659 </r>
       <r>   -16.8918     8.2120     1.1580 </r>
       <r>   -16.8197     7.3504     1.6879 </r>
       <r>   -16.7476     4.1544     1.9875 </r>
       <r>   -16.6755     1.1462     2.0701 </r>
       <r>   -16.6034    -0.2503     2.0521 </r>
       <r>   -16.5313    -0.4166     2.0220 </r>
       <r>   -16.4592    -0.2167     2.0064 </r>
       <r>   -16.3871    -0.0701     2.0013 </r>
       <r>   -16.3150    -0.0158     2.0002 </r>
       <r>   -16.2429    -0.0026     2.0000 </r>
       <r>   -16.1708    -0.0003     2.0000 </r>
       <r>   -16.0987    -0.0000     2.0000 </r>
       <r>   -16.0266    -0.0000     2.0000 </r>
       <r>   -15.9545    -0.0000     2.0000 </r>
       <r>   -15.8824    -0.0000     2.0000 </r>
       <r>   -15.8103    -0.0000     2.0000 </r>
       <r>   -15.7382    -0.0000     2.0000 </r>
       <r>   -15.6661    -0.0000     2.0000 </r>
       <r>   -15.5940     0.0000     2.0000 </r>
       <r>   -15.5219     0.0000     2.0000 </r>
       <r>   -15.4498     0.0000     2.0000 </r>
       <r>   -15.3777     0.0000     2.0000 </r>
       <r>   -15.3056     0.0000     2.0000 </r>
       <r>   -15.2335     0.0000     2.0000 </r>
       <r>   -15.1614     0.0000     2.0000 </r>
       <r>   -15.0893     0.0000     2.0000 </r>
       <r>   -15.0172     0.0000     2.0000 </r>
       <r>   -14.9451     0.0000     2.0000 </r>
       <r>   -14.8730     0.0000     2.0000 </r>
       <r>   -14.8009     0.0000     2.0000 </r>
       <r>   -14.7288     0.0000     2.0000 </r>
       <r>   -14.6567     0.0000     2.0000 </r>
       <r>   -14.5846     0.0000     2.0000 </r>
       <r>   -14.5125     0.0000     2.0000 </r>
       <r>   -14.4404     0.0000     2.0000 </r>
       <r>   -14.3683     0.0000     2.0000 </r>
       <r>   -14.2962     0.0000     2.0000 </r>
       <r>   -14.2241     0.0000     2.0000 </r>
       <r>   -14.1520     0.0000     2.0000 </r>
       <r>   -14.0799     0.0000     2.0000 </r>
       <r>   -14.0078     0.0000     2.0000 </r>
       <r>   -13.9357     0.0000     2.0000 </r>
       <r>   -13.8636     0.0000     2.0000 </r>
       <r>   -13.7915     0.0000     2.0000 </r>
       <r>   -13.7194     0.0000     2.0000 </r>
       <r>   -13.6473     0.0000     2.0000 </r>
       <r>   -13.5753     0.0000     2.0000 </r>
       <r>   -13.5032     0.0000     2.0000 </r>
       <r>   -13.4311     0.0000     2.0000 </r>
       <r>   -13.3590     0.0000     2.0000 </r>
       <r>   -13.2869     0.0000     2.0000 </r>
       <r>   -13.2148     0.0000     2.0000 </r>
       <r>   -13.1427     0.0000     2.0000 </r>
       <r>   -13.0706     0.0000     2.0000 </r>
       <r>   -12.9985     0.0000     2.0000 </r>
       <r>   -12.9264     0.0000     2.0000 </r>
       <r>   -12.8543     0.0000     2.0000 </r>
       <r>   -12.7822     0.0000     2.0000 </r>
       <r>   -12.7101     0.0000     2.0000 </r>
       <r>   -12.6380     0.0000     2.0000 </r>
       <r>   -12.5659     0.0000     2.0000 </r>
       <r>   -12.4938     0.0000     2.0000 </r>
       <r>   -12.4217     0.0000     2.0000 </r>
       <r>   -12.3496     0.0000     2.0000 </r>
       <r>   -12.2775     0.0000     2.0000 </r>
       <r>   -12.2054     0.0000     2.0000 </r>
       <r>   -12.1333     0.0000     2.0000 </r>
       <r>   -12.0612     0.0000     2.0000 </r>
       <r>   -11.9891     0.0000     2.0000 </r>
       <r>   -11.9170     0.0000     2.0000 </r>
       <r>   -11.8449     0.0000     2.0000 </r>
       <r>   -11.7728     0.0000     2.0000 </r>
       <r>   -11.7007     0.0000     2.0000 </r>
       <r>   -11.6286     0.0000     2.0000 </r>
       <r>   -11.5565     0.0000     2.0000 </r>
       <r>   -11.4844     0.0000     2.0000 </r>
       <r>   -11.4123     0.0000     2.0000 </r>
       <r>   -11.3402     0.0000     2.0000 </r>
       <r>   -11.2681     0.0000     2.0000 </r>
       <r>   -11.1960     0.0000     2.0000 </r>
       <r>   -11.1239     0.0000     2.0000 </r>
       <r>   -11.0518     0.0000     2.0000 </r>
       <r>   -10.9797    -0.0000     2.0000 </r>
       <r>   -10.9076    -0.0000     2.0000 </r>
       <r>   -10.8355    -0.0000     2.0000 </r>
       <r>   -10.7634    -0.0000     2.0000 </r>
       <r>   -10.6913    -0.0000     2.0000 </r>
       <r>   -10.6192    -0.0000     2.0000 </r>
       <r>   -10.5471    -0.0000     2.0000 </r>
       <r>   -10.4750    -0.0000     2.0000 </r>
       <r>   -10.4029    -0.0000     2.0000 </r>
       <r>   -10.3308    -0.0000     2.0000 </r>
       <r>   -10.2587    -0.0000     2.0000 </r>
       <r>   -10.1866    -0.0000     2.0000 </r>
       <r>   -10.1145    -0.0000     2.0000 </r>
       <r>   -10.0424    -0.0001     2.0000 </r>
       <r>    -9.9703    -0.0009     1.9999 </r>
       <r>    -9.8982    -0.0072     1.9994 </r>
       <r>    -9.8261    -0.0431     1.9963 </r>
       <r>    -9.7540    -0.1901     1.9826 </r>
       <r>    -9.6819    -0.5900     1.9401 </r>
       <r>    -9.6098    -1.1583     1.8565 </r>
       <r>    -9.5377    -0.8021     1.7987 </r>
       <r>    -9.4656     2.8722     2.0058 </r>
       <r>    -9.3935    11.2358     2.8159 </r>
       <r>    -9.3214    20.8146     4.3166 </r>
       <r>    -9.2493    24.4335     6.0782 </r>
       <r>    -9.1772    18.8911     7.4403 </r>
       <r>    -9.1051     8.9746     8.0873 </r>
       <r>    -9.0330     1.5801     8.2013 </r>
       <r>    -8.9609    -1.1001     8.1219 </r>
       <r>    -8.8888    -1.0514     8.0461 </r>
       <r>    -8.8167    -0.4693     8.0123 </r>
       <r>    -8.7446    -0.1373     8.0024 </r>
       <r>    -8.6725    -0.0285     8.0004 </r>
       <r>    -8.6004    -0.0044     8.0000 </r>
       <r>    -8.5283    -0.0005     8.0000 </r>
       <r>    -8.4562    -0.0000     8.0000 </r>
       <r>    -8.3841    -0.0000     8.0000 </r>
       <r>    -8.3120    -0.0000     8.0000 </r>
       <r>    -8.2399    -0.0000     8.0000 </r>
       <r>    -8.1678    -0.0000     8.0000 </r>
       <r>    -8.0957    -0.0000     8.0000 </r>
       <r>    -8.0236    -0.0000     8.0000 </r>
       <r>    -7.9515     0.0000     8.0000 </r>
       <r>    -7.8794     0.0000     8.0000 </r>
       <r>    -7.8073     0.0000     8.0000 </r>
       <r>    -7.7352     0.0000     8.0000 </r>
       <r>    -7.6631     0.0000     8.0000 </r>
       <r>    -7.5910     0.0000     8.0000 </r>
       <r>    -7.5189     0.0000     8.0000 </r>
       <r>    -7.4468     0.0000     8.0000 </r>
       <r>    -7.3747     0.0000     8.0000 </r>
       <r>    -7.3026     0.0000     8.0000 </r>
       <r>    -7.2305     0.0000     8.0000 </r>
       <r>    -7.1584     0.0000     8.0000 </r>
       <r>    -7.0863     0.0000     8.0000 </r>
       <r>    -7.0142     0.0000     8.0000 </r>
       <r>    -6.9421     0.0000     8.0000 </r>
       <r>    -6.8700     0.0000     8.0000 </r>
       <r>    -6.7979     0.0000     8.0000 </r>
       <r>    -6.7258     0.0000     8.0000 </r>
       <r>    -6.6537     0.0000     8.0000 </r>
       <r>    -6.5816     0.0000     8.0000 </r>
       <r>    -6.5095     0.0000     8.0000 </r>
       <r>    -6.4374     0.0000     8.0000 </r>
       <r>    -6.3653     0.0000     8.0000 </r>
       <r>    -6.2932     0.0000     8.0000 </r>
       <r>    -6.2211     0.0000     8.0000 </r>
       <r>    -6.1490     0.0000     8.0000 </r>
       <r>    -6.0769     0.0000     8.0000 </r>
       <r>    -6.0048     0.0000     8.0000 </r>
       <r>    -5.9327     0.0000     8.0000 </r>
       <r>    -5.8606     0.0000     8.0000 </r>
       <r>    -5.7885     0.0000     8.0000 </r>
       <r>    -5.7164     0.0000     8.0000 </r>
       <r>    -5.6443     0.0000     8.0000 </r>
       <r>    -5.5722     0.0000     8.0000 </r>
       <r>    -5.5001     0.0000     8.0000 </r>
       <r>    -5.4280     0.0000     8.0000 </r>
       <r>    -5.3559     0.0000     8.0000 </r>
       <r>    -5.2838     0.0000     8.0000 </r>
       <r>    -5.2117     0.0000     8.0000 </r>
       <r>    -5.1396     0.0000     8.0000 </r>
       <r>    -5.0675     0.0000     8.0000 </r>
       <r>    -4.9954     0.0000     8.0000 </r>
       <r>    -4.9233     0.0000     8.0000 </r>
       <r>    -4.8512     0.0000     8.0000 </r>
       <r>    -4.7791     0.0000     8.0000 </r>
       <r>    -4.7070     0.0000     8.0000 </r>
       <r>    -4.6349     0.0000     8.0000 </r>
       <r>    -4.5628     0.0000     8.0000 </r>
       <r>    -4.4907     0.0000     8.0000 </r>
       <r>    -4.4186     0.0000     8.0000 </r>
       <r>    -4.3465     0.0000     8.0000 </r>
       <r>    -4.2744     0.0000     8.0000 </r>
       <r>    -4.2023     0.0000     8.0000 </r>
       <r>    -4.1302     0.0000     8.0000 </r>
       <r>    -4.0581     0.0000     8.0000 </r>
       <r>    -3.9860     0.0000     8.0000 </r>
       <r>    -3.9139     0.0000     8.0000 </r>
       <r>    -3.8418     0.0000     8.0000 </r>
       <r>    -3.7697     0.0000     8.0000 </r>
       <r>    -3.6976     0.0000     8.0000 </r>
       <r>    -3.6255     0.0000     8.0000 </r>
       <r>    -3.5534     0.0000     8.0000 </r>
       <r>    -3.4813     0.0000     8.0000 </r>
       <r>    -3.4092     0.0000     8.0000 </r>
       <r>    -3.3371     0.0000     8.0000 </r>
       <r>    -3.2650     0.0000     8.0000 </r>
       <r>    -3.1930     0.0000     8.0000 </r>
       <r>    -3.1209     0.0000     8.0000 </r>
       <r>    -3.0488     0.0000     8.0000 </r>
       <r>    -2.9767     0.0000     8.0000 </r>
       <r>    -2.9046     0.0000     8.0000 </r>
       <r>    -2.8325     0.0000     8.0000 </r>
       <r>    -2.7604     0.0000     8.0000 </r>
       <r>    -2.6883     0.0000     8.0000 </r>
       <r>    -2.6162     0.0000     8.0000 </r>
       <r>    -2.5441     0.0000     8.0000 </r>
       <r>    -2.4720     0.0000     8.0000 </r>
       <r>    -2.3999     0.0000     8.0000 </r>
       <r>    -2.3278     0.0000     8.0000 </r>
       <r>    -2.2557     0.0000     8.0000 </r>
       <r>    -2.1836     0.0000     8.0000 </r>
       <r>    -2.1115     0.0000     8.0000 </r>
       <r>    -2.0394     0.0000     8.0000 </r>
       <r>    -1.9673    -0.0000     8.0000 </r>
       <r>    -1.8952    -0.0000     8.0000 </r>
       <r>    -1.8231    -0.0000     8.0000 </r>
       <r>    -1.7510    -0.0000     8.0000 </r>
       <r>    -1.6789    -0.0000     8.0000 </r>
       <r>    -1.6068    -0.0000     8.0000 </r>
       <r>    -1.5347    -0.0000     8.0000 </r>
       <r>    -1.4626    -0.0000     8.0000 </r>
       <r>    -1.3905    -0.0000     8.0000 </r>
       <r>    -1.3184    -0.0000     8.0000 </r>
       <r>    -1.2463    -0.0000     8.0000 </r>
       <r>    -1.1742    -0.0000     8.0000 </r>
       <r>    -1.1021    -0.0000     8.0000 </r>
       <r>    -1.0300    -0.0001     8.0000 </r>
       <r>    -0.9579    -0.0006     8.0000 </r>
       <r>    -0.8858    -0.0044     7.9996 </r>
       <r>    -0.8137    -0.0247     7.9979 </r>
       <r>    -0.7416    -0.0997     7.9907 </r>
       <r>    -0.6695    -0.2750     7.9708 </r>
       <r>    -0.5974    -0.4386     7.9392 </r>
       <r>    -0.5253    -0.0238     7.9375 </r>
       <r>    -0.4532     1.8417     8.0703 </r>
       <r>    -0.3811     5.1311     8.4402 </r>
       <r>    -0.3090     7.9118     9.0107 </r>
       <r>    -0.2369     7.8532     9.5769 </r>
       <r>    -0.1648     5.0088     9.9380 </r>
       <r>    -0.0927     1.7466    10.0639 </r>
       <r>    -0.0206    -0.0616    10.0595 </r>
       <r>     0.0515    -0.4578    10.0265 </r>
       <r>     0.1236    -0.3580    10.0007 </r>
       <r>     0.1957    -0.3911     9.9725 </r>
       <r>     0.2678    -0.6783     9.9236 </r>
       <r>     0.3399    -0.7774     9.8675 </r>
       <r>     0.4120     0.5243     9.9053 </r>
       <r>     0.4841     4.7130    10.2451 </r>
       <r>     0.5562    11.8208    11.0974 </r>
       <r>     0.6283    18.9471    12.4635 </r>
       <r>     0.7004    21.5491    14.0171 </r>
       <r>     0.7725    17.4893    15.2781 </r>
       <r>     0.8446     9.5408    15.9660 </r>
       <r>     0.9167     2.6999    16.1607 </r>
       <r>     0.9888    -0.5008    16.1246 </r>
       <r>     1.0609    -0.9597    16.0554 </r>
       <r>     1.1330    -0.5317    16.0170 </r>
       <r>     1.2051    -0.1831    16.0038 </r>
       <r>     1.2772    -0.0441    16.0006 </r>
       <r>     1.3493    -0.0078    16.0001 </r>
       <r>     1.4214    -0.0010    16.0000 </r>
       <r>     1.4935    -0.0001    16.0000 </r>
       <r>     1.5656    -0.0000    16.0000 </r>
       <r>     1.6377    -0.0000    16.0000 </r>
       <r>     1.7098    -0.0000    16.0000 </r>
       <r>     1.7819    -0.0000    16.0000 </r>
       <r>     1.8540    -0.0000    16.0000 </r>
       <r>     1.9261    -0.0000    16.0000 </r>
       <r>     1.9982    -0.0000    16.0000 </r>
       <r>     2.0703     0.0000    16.0000 </r>
       <r>     2.1424     0.0000    16.0000 </r>
       <r>     2.2145     0.0000    16.0000 </r>
       <r>     2.2866     0.0000    16.0000 </r>
       <r>     2.3587     0.0000    16.0000 </r>
       <r>     2.4308     0.0000    16.0000 </r>
       <r>     2.5029     0.0000    16.0000 </r>
       <r>     2.5750     0.0000    16.0000 </r>
       <r>     2.6471     0.0000    16.0000 </r>
       <r>     2.7192     0.0000    16.0000 </r>
      </set>
     </set>
    </array>
   </total>
  </dos>
  <time name="totalsc">   94.60   94.83</time>
 </calculation>
 <calculation>
  <scstep>
   <time name="dav">    2.00    2.01</time>
   <time name="total">    3.92    3.93</time>
   <energy>
    <i name="alphaZ">      0.24562550 </i>
    <i name="ewald">    129.19064412 </i>
    <i name="hartreedc">   -284.80521619 </i>
    <i name="XCdc">     24.78588793 </i>
    <i name="pawpsdc">    477.44763375 </i>
    <i name="pawaedc">   -478.23969590 </i>
    <i name="eentropy">      0.01938972 </i>
    <i name="bandstr">    -89.70674752 </i>
    <i name="atom">    197.04175453 </i>
    <i name="e_fr_energy">    -24.02072405 </i>
    <i name="e_wo_entrp">    -24.04011378 </i>
    <i name="e_0_energy">    -24.02718729 </i>
   </energy>
  </scstep>
  <scstep>
   <time name="diag">    0.46    0.46</time>
   <time name="diis">    1.53    1.53</time>
   <time name="orth">    0.01    0.01</time>
   <time name="total">    3.78    3.79</time>
   <energy>
    <i name="e_fr_energy">    -24.01861392 </i>
    <i name="e_wo_entrp">    -24.04664834 </i>
    <i name="e_0_energy">    -24.02795873 </i>
   </energy>
  </scstep>
  <scstep>
   <time name="diag">    0.47    0.47</time>
   <time name="diis">    1.58    1.58</time>
   <time name="orth">    0.01    0.01</time>
   <time name="total">    3.82    3.83</time>
   <energy>
    <i name="e_fr_energy">    -24.01839903 </i>
    <i name="e_wo_entrp">    -24.04748529 </i>
    <i name="e_0_energy">    -24.02809445 </i>
   </energy>
  </scstep>
  <scstep>
   <time name="diag">    0.46    0.47</time>
   <time name="diis">    1.57    1.57</time>
   <time name="orth">    0.01    0.01</time>
   <time name="total">    3.85    3.86</time>
   <energy>
    <i name="e_fr_energy">    -24.01770406 </i>
    <i name="e_wo_entrp">    -24.04567149 </i>
    <i name="e_0_energy">    -24.02702654 </i>
   </energy>
  </scstep>
  <scstep>
   <time name="diag">    0.46    0.47</time>
   <time name="diis">    1.54    1.54</time>
   <time name="orth">    0.01    0.01</time>
   <time name="total">    3.89    3.90</time>
   <energy>
    <i name="e_fr_energy">    -24.01448402 </i>
    <i name="e_wo_entrp">    -24.04481132 </i>
    <i name="e_0_energy">    -24.02459312 </i>
   </energy>
  </scstep>
  <scstep>
   <time name="diag">    0.44    0.45</time>
   <time name="diis">    1.53    1.54</time>
   <time name="orth">    0.01    0.01</time>
   <time name="total">    3.88    3.89</time>
   <energy>
    <i name="e_fr_energy">    -24.01378896 </i>
    <i name="e_wo_entrp">    -24.04522849 </i>
    <i name="e_0_energy">    -24.02426880 </i>
   </energy>
  </scstep>
  <scstep>
   <time name="diag">    0.43    0.43</time>
   <time name="diis">    1.55    1.55</time>
   <time name="orth">    0.01    0.01</time>
   <time name="total">    3.90    3.91</time>
   <energy>
    <i name="e_fr_energy">    -24.01333061 </i>
    <i name="e_wo_entrp">    -24.04591795 </i>
    <i name="e_0_energy">    -24.02419306 </i>
   </energy>
  </scstep>
  <scstep>
   <time name="diag">    0.44    0.44</time>
   <time name="diis">    1.58    1.58</time>
   <time name="orth">    0.01    0.01</time>
   <time name="total">    3.95    3.96</time>
   <energy>
    <i name="e_fr_energy">    -24.01322099 </i>
    <i name="e_wo_entrp">    -24.04597893 </i>
    <i name="e_0_energy">    -24.02414030 </i>
   </energy>
  </scstep>
  <scstep>
   <time name="diag">    0.44    0.44</time>
   <time name="diis">    1.55    1.55</time>
   <time name="orth">    0.01    0.01</time>
   <time name="total">    3.89    3.90</time>
   <energy>
    <i name="e_fr_energy">    -24.01251943 </i>
    <i name="e_wo_entrp">    -24.04751732 </i>
    <i name="e_0_energy">    -24.02418540 </i>
   </energy>
  </scstep>
  <scstep>
   <time name="diag">    0.45    0.45</time>
   <time name="diis">    1.49    1.49</time>
   <time name="orth">    0.01    0.01</time>
   <time name="total">    3.82    3.83</time>
   <energy>
    <i name="e_fr_energy">    -24.01158538 </i>
    <i name="e_wo_entrp">    -24.04842210 </i>
    <i name="e_0_energy">    -24.02386428 </i>
   </energy>
  </scstep>
  <scstep>
   <time name="diag">    0.45    0.45</time>
   <time name="diis">    1.47    1.47</time>
   <time name="orth">    0.01    0.01</time>
   <time name="total">    3.85    3.86</time>
   <energy>
    <i name="e_fr_energy">    -24.01123233 </i>
    <i name="e_wo_entrp">    -24.04844667 </i>
    <i name="e_0_energy">    -24.02363711 </i>
   </energy>
  </scstep>
  <scstep>
   <time name="diag">    0.44    0.44</time>
   <time name="diis">    1.45    1.46</time>
   <time name="orth">    0.01    0.01</time>
   <time name="total">    3.82    3.83</time>
   <energy>
    <i name="e_fr_energy">    -24.01141311 </i>
    <i name="e_wo_entrp">    -24.04831167 </i>
    <i name="e_0_energy">    -24.02371263 </i>
   </energy>
  </scstep>
  <scstep>
   <time name="diag">    0.45    0.45</time>
   <time name="diis">    1.49    1.49</time>
   <time name="orth">    0.01    0.01</time>
   <time name="total">    3.84    3.85</time>
   <energy>
    <i name="e_fr_energy">    -24.01000679 </i>
    <i name="e_wo_entrp">    -24.04680584 </i>
    <i name="e_0_energy">    -24.02227314 </i>
   </energy>
  </scstep>
  <scstep>
   <time name="diag">    0.45    0.45</time>
   <time name="diis">    1.47    1.48</time>
   <time name="orth">    0.01    0.01</time>
   <time name="total">    3.82    3.83</time>
   <energy>
    <i name="e_fr_energy">    -24.01087857 </i>
    <i name="e_wo_entrp">    -24.04848943 </i>
    <i name="e_0_energy">    -24.02341552 </i>
   </energy>
  </scstep>
  <scstep>
   <time name="diag">    0.45    0.45</time>
   <time name="diis">    1.47    1.47</time>
   <time name="orth">    0.01    0.01</time>
   <time name="total">    3.79    3.80</time>
   <energy>
    <i name="e_fr_energy">    -24.01017913 </i>
    <i name="e_wo_entrp">    -24.04807219 </i>
    <i name="e_0_energy">    -24.02281015 </i>
   </energy>
  </scstep>
  <scstep>
   <time name="diag">    0.47    0.47</time>
   <time name="diis">    1.43    1.43</time>
   <time name="orth">    0.01    0.01</time>
   <time name="total">    3.78    3.79</time>
   <energy>
    <i name="e_fr_energy">    -24.00994120 </i>
    <i name="e_wo_entrp">    -24.04768076 </i>
    <i name="e_0_energy">    -24.02252105 </i>
   </energy>
  </scstep>
  <scstep>
   <time name="diag">    0.46    0.46</time>
   <time name="diis">    1.44    1.45</time>
   <time name="orth">    0.01    0.01</time>
   <time name="total">    3.78    3.79</time>
   <energy>
    <i name="e_fr_energy">    -24.00996674 </i>
    <i name="e_wo_entrp">    -24.04781911 </i>
    <i name="e_0_energy">    -24.02258419 </i>
   </energy>
  </scstep>
  <scstep>
   <time name="diag">    0.44    0.44</time>
   <time name="diis">    1.50    1.51</time>
   <time name="orth">    0.01    0.01</time>
   <time name="total">    3.87    3.88</time>
   <energy>
    <i name="e_fr_energy">    -24.00991574 </i>
    <i name="e_wo_entrp">    -24.04760083 </i>
    <i name="e_0_energy">    -24.02247744 </i>
   </energy>
  </scstep>
  <scstep>
   <time name="diag">    0.44    0.44</time>
   <time name="diis">    1.54    1.54</time>
   <time name="orth">    0.01    0.01</time>
   <time name="total">    3.95    3.96</time>
   <energy>
    <i name="e_fr_energy">    -24.00990424 </i>
    <i name="e_wo_entrp">    -24.04742254 </i>
    <i name="e_0_energy">    -24.02241034 </i>
   </energy>
  </scstep>
  <scstep>
   <time name="diag">    0.44    0.44</time>
   <time name="diis">    1.52    1.52</time>
   <time name="orth">    0.01    0.01</time>
   <time name="total">    3.95    3.96</time>
   <energy>
    <i name="e_fr_energy">    -24.00991576 </i>
    <i name="e_wo_entrp">    -24.04727008 </i>
    <i name="e_0_energy">    -24.02236720 </i>
   </energy>
  </scstep>
  <scstep>
   <time name="diag">    0.45    0.45</time>
   <time name="diis">    1.33    1.33</time>
   <time name="orth">    0.01    0.01</time>
   <time name="total">    3.74    3.75</time>
   <energy>
    <i name="e_fr_energy">    -24.00991736 </i>
    <i name="e_wo_entrp">    -24.04732112 </i>
    <i name="e_0_energy">    -24.02238528 </i>
   </energy>
  </scstep>
  <scstep>
   <time name="diag">    0.46    0.46</time>
   <time name="diis">    1.18    1.19</time>
   <time name="orth">    0.01    0.01</time>
   <time name="total">    3.63    3.63</time>
   <energy>
    <i name="e_fr_energy">    -24.00991923 </i>
    <i name="e_wo_entrp">    -24.04728945 </i>
    <i name="e_0_energy">    -24.02237597 </i>
   </energy>
  </scstep>
  <scstep>
   <time name="diag">    0.46    0.46</time>
   <time name="diis">    1.14    1.15</time>
   <time name="orth">    0.01    0.01</time>
   <time name="total">    3.32    3.33</time>
   <energy>
    <i name="alphaZ">      0.24562550 </i>
    <i name="ewald">    129.19064412 </i>
    <i name="hartreedc">   -284.91484523 </i>
    <i name="XCdc">     24.79412053 </i>
    <i name="pawpsdc">    478.25163632 </i>
    <i name="pawaedc">   -479.04524837 </i>
    <i name="eentropy">      0.03740499 </i>
    <i name="bandstr">    -89.61101165 </i>
    <i name="atom">    197.04175453 </i>
    <i name="e_fr_energy">    -24.00991928 </i>
    <i name="e_wo_entrp">    -24.04732426 </i>
    <i name="e_0_energy">    -24.02238761 </i>
   </energy>
  </scstep>
  <structure>
   <crystal>
    <varray name="basis" >
     <v>       9.77932655       0.00000000       0.00000000 </v>
     <v>      -0.08266850       9.89274269       0.00000000 </v>
     <v>       0.12199206      -0.14318704      10.19450395 </v>
    </varray>
    <i name="volume">    986.26077245 </i>
    <varray name="rec_basis" >
     <v>       0.10225653       0.00085450      -0.00121165 </v>
     <v>      -0.00000000       0.10108420       0.00141978 </v>
     <v>       0.00000000      -0.00000000       0.09809207 </v>
    </varray>
   </crystal>
   <varray name="positions" >
    <v>       0.54118741       0.40517021       0.36078520 </v>
    <v>       0.39595925       0.47943428       0.43883222 </v>
    <v>       0.55468734       0.56867798       0.44408526 </v>
    <v>       0.52555794       0.41716205       0.53596800 </v>
    <v>       0.50293233       0.46709758       0.44533180 </v>
   </varray>
  </structure>
  <varray name="forces" >
   <v>      -0.15384946      -0.02957718       0.17171307 </v>
   <v>      -1.27421013       0.46335495      -0.21254722 </v>
   <v>      -0.00679013      -0.49190457      -0.33669519 </v>
   <v>      -0.42617261      -1.00761251       0.88432626 </v>
   <v>       0.63110046       1.11608616      -0.02173784 </v>
  </varray>
  <varray name="stress" >
   <v>       2.56359671      -0.30031508       0.77229919 </v>
   <v>      -0.30031508      -0.30989989      -0.85171506 </v>
   <v>       0.77229919      -0.85171505      -0.51917892 </v>
  </varray>
  <energy>
   <i name="e_fr_energy">    -24.00991928 </i>
   <i name="e_wo_entrp">    -24.02238761 </i>
   <i name="e_0_energy">      0.03740499 </i>
   <i name="kinetic">      0.05358507 </i>
   <i name="lattice kinetic">      0.00000000 </i>
   <i name="nosepot">      0.00023227 </i>
   <i name="nosekinetic">      0.00026107 </i>
   <i name="total">    -23.95584087 </i>
  </energy>
  <dos>
   <i name="efermi">     -9.11909699 </i>
   <total>
    <array>
     <dimension dim="1">gridpoints</dimension>
     <dimension dim="2">spin</dimension>
     <field>energy</field>
     <field>total</field>
     <field>integrated</field>
     <set>
      <set comment="spin 1">
       <r>   -18.9117     0.0000     0.0000 </r>
       <r>   -18.8396     0.0000     0.0000 </r>
       <r>   -18.7675     0.0000     0.0000 </r>
       <r>   -18.6954     0.0000     0.0000 </r>
       <r>   -18.6233     0.0000     0.0000 </r>
       <r>   -18.5512    -0.0000    -0.0000 </r>
       <r>   -18.4791    -0.0000    -0.0000 </r>
       <r>   -18.4070    -0.0000    -0.0000 </r>
       <r>   -18.3349    -0.0000    -0.0000 </r>
       <r>   -18.2628    -0.0000    -0.0000 </r>
       <r>   -18.1907    -0.0000    -0.0000 </r>
       <r>   -18.1186    -0.0000    -0.0000 </r>
       <r>   -18.0465    -0.0000    -0.0000 </r>
       <r>   -17.9744    -0.0000    -0.0000 </r>
       <r>   -17.9023    -0.0000    -0.0000 </r>
       <r>   -17.8302    -0.0000    -0.0000 </r>
       <r>   -17.7581    -0.0000    -0.0000 </r>
       <r>   -17.6860    -0.0000    -0.0000 </r>
       <r>   -17.6139    -0.0001    -0.0000 </r>
       <r>   -17.5418    -0.0010    -0.0001 </r>
       <r>   -17.4697    -0.0069    -0.0006 </r>
       <r>   -17.3976    -0.0358    -0.0032 </r>
       <r>   -17.3255    -0.1326    -0.0127 </r>
       <r>   -17.2534    -0.3280    -0.0364 </r>
       <r>   -17.1813    -0.4247    -0.0670 </r>
       <r>   -17.1092     0.2699    -0.0475 </r>
       <r>   -17.0371     2.5538     0.1366 </r>
       <r>   -16.9650     5.9617     0.5665 </r>
       <r>   -16.8929     8.2128     1.1586 </r>
       <r>   -16.8208     7.3478     1.6884 </r>
       <r>   -16.7487     4.1505     1.9877 </r>
       <r>   -16.6766     1.1436     2.0701 </r>
       <r>   -16.6045    -0.2510     2.0520 </r>
       <r>   -16.5324    -0.4164     2.0220 </r>
       <r>   -16.4603    -0.2165     2.0064 </r>
       <r>   -16.3882    -0.0699     2.0013 </r>
       <r>   -16.3161    -0.0158     2.0002 </r>
       <r>   -16.2440    -0.0026     2.0000 </r>
       <r>   -16.1719    -0.0003     2.0000 </r>
       <r>   -16.0998    -0.0000     2.0000 </r>
       <r>   -16.0277    -0.0000     2.0000 </r>
       <r>   -15.9556    -0.0000     2.0000 </r>
       <r>   -15.8835    -0.0000     2.0000 </r>
       <r>   -15.8114    -0.0000     2.0000 </r>
       <r>   -15.7393    -0.0000     2.0000 </r>
       <r>   -15.6672    -0.0000     2.0000 </r>
       <r>   -15.5950     0.0000     2.0000 </r>
       <r>   -15.5229     0.0000     2.0000 </r>
       <r>   -15.4508     0.0000     2.0000 </r>
       <r>   -15.3787     0.0000     2.0000 </r>
       <r>   -15.3066     0.0000     2.0000 </r>
       <r>   -15.2345     0.0000     2.0000 </r>
       <r>   -15.1624     0.0000     2.0000 </r>
       <r>   -15.0903     0.0000     2.0000 </r>
       <r>   -15.0182     0.0000     2.0000 </r>
       <r>   -14.9461     0.0000     2.0000 </r>
       <r>   -14.8740     0.0000     2.0000 </r>
       <r>   -14.8019     0.0000     2.0000 </r>
       <r>   -14.7298     0.0000     2.0000 </r>
       <r>   -14.6577     0.0000     2.0000 </r>
       <r>   -14.5856     0.0000     2.0000 </r>
       <r>   -14.5135     0.0000     2.0000 </r>
       <r>   -14.4414     0.0000     2.0000 </r>
       <r>   -14.3693     0.0000     2.0000 </r>
       <r>   -14.2972     0.0000     2.0000 </r>
       <r>   -14.2251     0.0000     2.0000 </r>
       <r>   -14.1530     0.0000     2.0000 </r>
       <r>   -14.0809     0.0000     2.0000 </r>
       <r>   -14.0088     0.0000     2.0000 </r>
       <r>   -13.9367     0.0000     2.0000 </r>
       <r>   -13.8646     0.0000     2.0000 </r>
       <r>   -13.7925     0.0000     2.0000 </r>
       <r>   -13.7204     0.0000     2.0000 </r>
       <r>   -13.6483     0.0000     2.0000 </r>
       <r>   -13.5762     0.0000     2.0000 </r>
       <r>   -13.5041     0.0000     2.0000 </r>
       <r>   -13.4320     0.0000     2.0000 </r>
       <r>   -13.3599     0.0000     2.0000 </r>
       <r>   -13.2878     0.0000     2.0000 </r>
       <r>   -13.2157     0.0000     2.0000 </r>
       <r>   -13.1436     0.0000     2.0000 </r>
       <r>   -13.0715     0.0000     2.0000 </r>
       <r>   -12.9994     0.0000     2.0000 </r>
       <r>   -12.9273     0.0000     2.0000 </r>
       <r>   -12.8552     0.0000     2.0000 </r>
       <r>   -12.7831     0.0000     2.0000 </r>
       <r>   -12.7110     0.0000     2.0000 </r>
       <r>   -12.6389     0.0000     2.0000 </r>
       <r>   -12.5668     0.0000     2.0000 </r>
       <r>   -12.4947     0.0000     2.0000 </r>
       <r>   -12.4226     0.0000     2.0000 </r>
       <r>   -12.3505     0.0000     2.0000 </r>
       <r>   -12.2783     0.0000     2.0000 </r>
       <r>   -12.2062     0.0000     2.0000 </r>
       <r>   -12.1341     0.0000     2.0000 </r>
       <r>   -12.0620     0.0000     2.0000 </r>
       <r>   -11.9899     0.0000     2.0000 </r>
       <r>   -11.9178     0.0000     2.0000 </r>
       <r>   -11.8457     0.0000     2.0000 </r>
       <r>   -11.7736     0.0000     2.0000 </r>
       <r>   -11.7015     0.0000     2.0000 </r>
       <r>   -11.6294     0.0000     2.0000 </r>
       <r>   -11.5573     0.0000     2.0000 </r>
       <r>   -11.4852     0.0000     2.0000 </r>
       <r>   -11.4131     0.0000     2.0000 </r>
       <r>   -11.3410     0.0000     2.0000 </r>
       <r>   -11.2689     0.0000     2.0000 </r>
       <r>   -11.1968     0.0000     2.0000 </r>
       <r>   -11.1247     0.0000     2.0000 </r>
       <r>   -11.0526     0.0000     2.0000 </r>
       <r>   -10.9805    -0.0000     2.0000 </r>
       <r>   -10.9084    -0.0000     2.0000 </r>
       <r>   -10.8363    -0.0000     2.0000 </r>
       <r>   -10.7642    -0.0000     2.0000 </r>
       <r>   -10.6921    -0.0000     2.0000 </r>
       <r>   -10.6200    -0.0000     2.0000 </r>
       <r>   -10.5479    -0.0000     2.0000 </r>
       <r>   -10.4758    -0.0000     2.0000 </r>
       <r>   -10.4037    -0.0000     2.0000 </r>
       <r>   -10.3316    -0.0000     2.0000 </r>
       <r>   -10.2595    -0.0000     2.0000 </r>
       <r>   -10.1874    -0.0000     2.0000 </r>
       <r>   -10.1153    -0.0000     2.0000 </r>
       <r>   -10.0432    -0.0001     2.0000 </r>
       <r>    -9.9711    -0.0012     1.9999 </r>
       <r>    -9.8990    -0.0089     1.9993 </r>
       <r>    -9.8269    -0.0507     1.9956 </r>
       <r>    -9.7548    -0.2124     1.9803 </r>
       <r>    -9.6827    -0.6231     1.9354 </r>
       <r>    -9.6106    -1.1347     1.8536 </r>
       <r>    -9.5385    -0.5743     1.8122 </r>
       <r>    -9.4664     3.3555     2.0541 </r>
       <r>    -9.3943    11.6742     2.8958 </r>
       <r>    -9.3222    20.7478     4.3918 </r>
       <r>    -9.2501    23.8571     6.1119 </r>
       <r>    -9.1780    18.3305     7.4336 </r>
       <r>    -9.1059     8.8080     8.0687 </r>
       <r>    -9.0338     1.6880     8.1904 </r>
       <r>    -8.9616    -0.9813     8.1196 </r>
       <r>    -8.8895    -1.0102     8.0468 </r>
       <r>    -8.8174    -0.4695     8.0129 </r>
       <r>    -8.7453    -0.1429     8.0026 </r>
       <r>    -8.6732    -0.0310     8.0004 </r>
       <r>    -8.6011    -0.0050     8.0000 </r>
       <r>    -8.5290    -0.0006     8.0000 </r>
       <r>    -8.4569    -0.0001     8.0000 </r>
       <r>    -8.3848    -0.0000     8.0000 </r>
       <r>    -8.3127    -0.0000     8.0000 </r>
       <r>    -8.2406    -0.0000     8.0000 </r>
       <r>    -8.1685    -0.0000     8.0000 </r>
       <r>    -8.0964    -0.0000     8.0000 </r>
       <r>    -8.0243    -0.0000     8.0000 </r>
       <r>    -7.9522     0.0000     8.0000 </r>
       <r>    -7.8801     0.0000     8.0000 </r>
       <r>    -7.8080     0.0000     8.0000 </r>
       <r>    -7.7359     0.0000     8.0000 </r>
       <r>    -7.6638     0.0000     8.0000 </r>
       <r>    -7.5917     0.0000     8.0000 </r>
       <r>    -7.5196     0.0000     8.0000 </r>
       <r>    -7.4475     0.0000     8.0000 </r>
       <r>    -7.3754     0.0000     8.0000 </r>
       <r>    -7.3033     0.0000     8.0000 </r>
       <r>    -7.2312     0.0000     8.0000 </r>
       <r>    -7.1591     0.0000     8.0000 </r>
       <r>    -7.0870     0.0000     8.0000 </r>
       <r>    -7.0149     0.0000     8.0000 </r>
       <r>    -6.9428     0.0000     8.0000 </r>
       <r>    -6.8707     0.0000     8.0000 </r>
       <r>    -6.7986     0.0000     8.0000 </r>
       <r>    -6.7265     0.0000     8.0000 </r>
       <r>    -6.6544     0.0000     8.0000 </r>
       <r>    -6.5823     0.0000     8.0000 </r>
       <r>    -6.5102     0.0000     8.0000 </r>
       <r>    -6.4381     0.0000     8.0000 </r>
       <r>    -6.3660     0.0000     8.0000 </r>
       <r>    -6.2939     0.0000     8.0000 </r>
       <r>    -6.2218     0.0000     8.0000 </r>
       <r>    -6.1497     0.0000     8.0000 </r>
       <r>    -6.0776     0.0000     8.0000 </r>
       <r>    -6.0055     0.0000     8.0000 </r>
       <r>    -5.9334     0.0000     8.0000 </r>
       <r>    -5.8613     0.0000     8.0000 </r>
       <r>    -5.7892     0.0000     8.0000 </r>
       <r>    -5.7171     0.0000     8.0000 </r>
       <r>    -5.6450     0.0000     8.0000 </r>
       <r>    -5.5728     0.0000     8.0000 </r>
       <r>    -5.5007     0.0000     8.0000 </r>
       <r>    -5.4286     0.0000     8.0000 </r>
       <r>    -5.3565     0.0000     8.0000 </r>
       <r>    -5.2844     0.0000     8.0000 </r>
       <r>    -5.2123     0.0000     8.0000 </r>
       <r>    -5.1402     0.0000     8.0000 </r>
       <r>    -5.0681     0.0000     8.0000 </r>
       <r>    -4.9960     0.0000     8.0000 </r>
       <r>    -4.9239     0.0000     8.0000 </r>
       <r>    -4.8518     0.0000     8.0000 </r>
       <r>    -4.7797     0.0000     8.0000 </r>
       <r>    -4.7076     0.0000     8.0000 </r>
       <r>    -4.6355     0.0000     8.0000 </r>
       <r>    -4.5634     0.0000     8.0000 </r>
       <r>    -4.4913     0.0000     8.0000 </r>
       <r>    -4.4192     0.0000     8.0000 </r>
       <r>    -4.3471     0.0000     8.0000 </r>
       <r>    -4.2750     0.0000     8.0000 </r>
       <r>    -4.2029     0.0000     8.0000 </r>
       <r>    -4.1308     0.0000     8.0000 </r>
       <r>    -4.0587     0.0000     8.0000 </r>
       <r>    -3.9866     0.0000     8.0000 </r>
       <r>    -3.9145     0.0000     8.0000 </r>
       <r>    -3.8424     0.0000     8.0000 </r>
       <r>    -3.7703     0.0000     8.0000 </r>
       <r>    -3.6982     0.0000     8.0000 </r>
       <r>    -3.6261     0.0000     8.0000 </r>
       <r>    -3.5540     0.0000     8.0000 </r>
       <r>    -3.4819     0.0000     8.0000 </r>
       <r>    -3.4098     0.0000     8.0000 </r>
       <r>    -3.3377     0.0000     8.0000 </r>
       <r>    -3.2656     0.0000     8.0000 </r>
       <r>    -3.1935     0.0000     8.0000 </r>
       <r>    -3.1214     0.0000     8.0000 </r>
       <r>    -3.0493     0.0000     8.0000 </r>
       <r>    -2.9772     0.0000     8.0000 </r>
       <r>    -2.9051     0.0000     8.0000 </r>
       <r>    -2.8330     0.0000     8.0000 </r>
       <r>    -2.7609     0.0000     8.0000 </r>
       <r>    -2.6888     0.0000     8.0000 </r>
       <r>    -2.6167     0.0000     8.0000 </r>
       <r>    -2.5446     0.0000     8.0000 </r>
       <r>    -2.4725     0.0000     8.0000 </r>
       <r>    -2.4004     0.0000     8.0000 </r>
       <r>    -2.3283     0.0000     8.0000 </r>
       <r>    -2.2561     0.0000     8.0000 </r>
       <r>    -2.1840     0.0000     8.0000 </r>
       <r>    -2.1119     0.0000     8.0000 </r>
       <r>    -2.0398     0.0000     8.0000 </r>
       <r>    -1.9677    -0.0000     8.0000 </r>
       <r>    -1.8956    -0.0000     8.0000 </r>
       <r>    -1.8235    -0.0000     8.0000 </r>
       <r>    -1.7514    -0.0000     8.0000 </r>
       <r>    -1.6793    -0.0000     8.0000 </r>
       <r>    -1.6072    -0.0000     8.0000 </r>
       <r>    -1.5351    -0.0000     8.0000 </r>
       <r>    -1.4630    -0.0000     8.0000 </r>
       <r>    -1.3909    -0.0000     8.0000 </r>
       <r>    -1.3188    -0.0000     8.0000 </r>
       <r>    -1.2467    -0.0000     8.0000 </r>
       <r>    -1.1746    -0.0000     8.0000 </r>
       <r>    -1.1025    -0.0000     8.0000 </r>
       <r>    -1.0304    -0.0001     8.0000 </r>
       <r>    -0.9583    -0.0006     8.0000 </r>
       <r>    -0.8862    -0.0042     7.9997 </r>
       <r>    -0.8141    -0.0237     7.9979 </r>
       <r>    -0.7420    -0.0967     7.9910 </r>
       <r>    -0.6699    -0.2695     7.9715 </r>
       <r>    -0.5978    -0.4379     7.9400 </r>
       <r>    -0.5257    -0.0487     7.9365 </r>
       <r>    -0.4536     1.7732     8.0643 </r>
       <r>    -0.3815     5.0424     8.4279 </r>
       <r>    -0.3094     7.8689     8.9952 </r>
       <r>    -0.2373     7.8950     9.5645 </r>
       <r>    -0.1652     5.0970     9.9320 </r>
       <r>    -0.0931     1.8151    10.0629 </r>
       <r>    -0.0210    -0.0364    10.0602 </r>
       <r>     0.0511    -0.4576    10.0272 </r>
       <r>     0.1232    -0.3599    10.0013 </r>
       <r>     0.1953    -0.3826     9.9737 </r>
       <r>     0.2674    -0.6556     9.9264 </r>
       <r>     0.3395    -0.7620     9.8715 </r>
       <r>     0.4116     0.4540     9.9042 </r>
       <r>     0.4837     4.4503    10.2251 </r>
       <r>     0.5558    11.3768    11.0454 </r>
       <r>     0.6279    18.5653    12.3840 </r>
       <r>     0.7000    21.5314    13.9364 </r>
       <r>     0.7721    17.8553    15.2239 </r>
       <r>     0.8442     9.9980    15.9447 </r>
       <r>     0.9163     2.9789    16.1595 </r>
       <r>     0.9884    -0.4261    16.1288 </r>
       <r>     1.0605    -0.9772    16.0583 </r>
       <r>     1.1327    -0.5569    16.0182 </r>
       <r>     1.2048    -0.1949    16.0041 </r>
       <r>     1.2769    -0.0476    16.0007 </r>
       <r>     1.3490    -0.0084    16.0001 </r>
       <r>     1.4211    -0.0011    16.0000 </r>
       <r>     1.4932    -0.0001    16.0000 </r>
       <r>     1.5653    -0.0000    16.0000 </r>
       <r>     1.6374    -0.0000    16.0000 </r>
       <r>     1.7095    -0.0000    16.0000 </r>
       <r>     1.7816    -0.0000    16.0000 </r>
       <r>     1.8537    -0.0000    16.0000 </r>
       <r>     1.9258    -0.0000    16.0000 </r>
       <r>     1.9979    -0.0000    16.0000 </r>
       <r>     2.0700     0.0000    16.0000 </r>
       <r>     2.1421     0.0000    16.0000 </r>
       <r>     2.2142     0.0000    16.0000 </r>
       <r>     2.2863     0.0000    16.0000 </r>
       <r>     2.3584     0.0000    16.0000 </r>
       <r>     2.4305     0.0000    16.0000 </r>
       <r>     2.5026     0.0000    16.0000 </r>
       <r>     2.5747     0.0000    16.0000 </r>
       <r>     2.6468     0.0000    16.0000 </r>
       <r>     2.7189     0.0000    16.0000 </r>
      </set>
     </set>
    </array>
   </total>
  </dos>
  <time name="totalsc">   95.68   95.92</time>
 </calculation>
 <calculation>
  <scstep>
   <time name="dav">    2.06    2.06</time>
   <time name="total">    4.02    4.03</time>
   <energy>
    <i name="alphaZ">      0.24562550 </i>
    <i name="ewald">    124.98357819 </i>
    <i name="hartreedc">   -282.53886661 </i>
    <i name="XCdc">     24.67629375 </i>
    <i name="pawpsdc">    478.89786977 </i>
    <i name="pawaedc">   -479.69238220 </i>
    <i name="eentropy">      0.01530380 </i>
    <i name="bandstr">    -87.66871280 </i>
    <i name="atom">    197.04175453 </i>
    <i name="e_fr_energy">    -24.03953607 </i>
    <i name="e_wo_entrp">    -24.05483987 </i>
    <i name="e_0_energy">    -24.04463733 </i>
   </energy>
  </scstep>
  <scstep>
   <time name="diag">    0.45    0.45</time>
   <time name="diis">    1.45    1.45</time>
   <time name="orth">    0.01    0.01</time>
   <time name="total">    3.83    3.84</time>
   <energy>
    <i name="e_fr_energy">    -24.15943167 </i>
    <i name="e_wo_entrp">    -24.17199680 </i>
    <i name="e_0_energy">    -24.16362005 </i>
   </energy>
  </scstep>
  <scstep>
   <time name="diag">    0.47    0.47</time>
   <time name="diis">    1.50    1.50</time>
   <time name="orth">    0.01    0.01</time>
   <time name="total">    3.89    3.90</time>
   <energy>
    <i name="e_fr_energy">    -24.03016649 </i>
    <i name="e_wo_entrp">    -24.04554534 </i>
    <i name="e_0_energy">    -24.03529278 </i>
   </energy>
  </scstep>
  <scstep>
   <time name="diag">    0.48    0.48</time>
   <time name="diis">    1.53    1.54</time>
   <time name="orth">    0.01    0.01</time>
   <time name="total">    3.94    3.95</time>
   <energy>
    <i name="e_fr_energy">    -24.02090708 </i>
    <i name="e_wo_entrp">    -24.03811499 </i>
    <i name="e_0_energy">    -24.02664305 </i>
   </energy>
  </scstep>
  <scstep>
   <time name="diag">    0.47    0.47</time>
   <time name="diis">    1.49    1.50</time>
   <time name="orth">    0.01    0.01</time>
   <time name="total">    3.89    3.90</time>
   <energy>
    <i name="e_fr_energy">    -24.01647560 </i>
    <i name="e_wo_entrp">    -24.03878593 </i>
    <i name="e_0_energy">    -24.02391238 </i>
   </energy>
  </scstep>
  <scstep>
   <time name="diag">    0.45    0.45</time>
   <time name="diis">    1.51    1.51</time>
   <time name="orth">    0.01    0.01</time>
   <time name="total">    3.91    3.92</time>
   <energy>
    <i name="e_fr_energy">    -24.01485809 </i>
    <i name="e_wo_entrp">    -24.03795134 </i>
    <i name="e_0_energy">    -24.02255584 </i>
   </energy>
  </scstep>
  <scstep>
   <time name="diag">    0.45    0.45</time>
   <time name="diis">    1.50    1.51</time>
   <time name="orth">    0.01    0.01</time>
   <time name="total">    3.90    3.91</time>
   <energy>
    <i name="e_fr_energy">    -24.01511339 </i>
    <i name="e_wo_entrp">    -24.03945063 </i>
    <i name="e_0_energy">    -24.02322580 </i>
   </energy>
  </scstep>
  <scstep>
   <time name="diag">    0.42    0.42</time>
   <time name="diis">    1.51    1.51</time>
   <time name="orth">    0.01    0.01</time>
   <time name="total">    3.85    3.86</time>
   <energy>
    <i name="e_fr_energy">    -24.01401304 </i>
    <i name="e_wo_entrp">    -24.04037837 </i>
    <i name="e_0_energy">    -24.02280148 </i>
   </energy>
  </scstep>
  <scstep>
   <time name="diag">    0.43    0.43</time>
   <time name="diis">    1.49    1.50</time>
   <time name="orth">    0.01    0.01</time>
   <time name="total">    3.85    3.86</time>
   <energy>
    <i name="e_fr_energy">    -24.01390019 </i>
    <i name="e_wo_entrp">    -24.04074331 </i>
    <i name="e_0_energy">    -24.02284789 </i>
   </energy>
  </scstep>
  <scstep>
   <time name="diag">    0.44    0.44</time>
   <time name="diis">    1.53    1.54</time>
   <time name="orth">    0.01    0.01</time>
   <time name="total">    3.92    3.93</time>
   <energy>
    <i name="e_fr_energy">    -24.01289059 </i>
    <i name="e_wo_entrp">    -24.03824588 </i>
    <i name="e_0_energy">    -24.02134235 </i>
   </energy>
  </scstep>
  <scstep>
   <time name="diag">    0.45    0.46</time>
   <time name="diis">    1.53    1.54</time>
   <time name="orth">    0.01    0.01</time>
   <time name="total">    3.89    3.90</time>
   <energy>
    <i name="e_fr_energy">    -24.01295979 </i>
    <i name="e_wo_entrp">    -24.03836168 </i>
    <i name="e_0_energy">    -24.02142709 </i>
   </energy>
  </scstep>
  <scstep>
   <time name="diag">    0.46    0.46</time>
   <time name="diis">    1.51    1.51</time>
   <time name="orth">    0.01    0.01</time>
   <time name="total">    3.92    3.93</time>
   <energy>
    <i name="e_fr_energy">    -24.01298755 </i>
    <i name="e_wo_entrp">    -24.03834972 </i>
    <i name="e_0_energy">    -24.02144160 </i>
   </energy>
  </scstep>
  <scstep>
   <time name="diag">    0.46    0.47</time>
   <time name="diis">    1.51    1.51</time>
   <time name="orth">    0.01    0.01</time>
   <time name="total">    3.97    3.98</time>
   <energy>
    <i name="e_fr_energy">    -24.01282024 </i>
    <i name="e_wo_entrp">    -24.03779326 </i>
    <i name="e_0_energy">    -24.02114458 </i>
   </energy>
  </scstep>
  <scstep>
   <time name="diag">    0.46    0.46</time>
   <time name="diis">    1.51    1.52</time>
   <time name="orth">    0.01    0.01</time>
   <time name="total">    4.01    4.02</time>
   <energy>
    <i name="e_fr_energy">    -24.01270985 </i>
    <i name="e_wo_entrp">    -24.03742915 </i>
    <i name="e_0_energy">    -24.02094962 </i>
   </energy>
  </scstep>
  <scstep>
   <time name="diag">    0.45    0.45</time>
   <time name="diis">    1.58    1.59</time>
   <time name="orth">    0.01    0.01</time>
   <time name="total">    4.04    4.05</time>
   <energy>
    <i name="e_fr_energy">    -24.01264504 </i>
    <i name="e_wo_entrp">    -24.03720375 </i>
    <i name="e_0_energy">    -24.02083127 </i>
   </energy>
  </scstep>
  <scstep>
   <time name="diag">    0.46    0.46</time>
   <time name="diis">    1.54    1.54</time>
   <time name="orth">    0.01    0.01</time>
   <time name="total">    3.98    3.99</time>
   <energy>
    <i name="e_fr_energy">    -24.01260922 </i>
    <i name="e_wo_entrp">    -24.03716849 </i>
    <i name="e_0_energy">    -24.02079564 </i>
   </energy>
  </scstep>
  <scstep>
   <time name="diag">    0.46    0.46</time>
   <time name="diis">    1.53    1.54</time>
   <time name="orth">    0.01    0.01</time>
   <time name="total">    3.95    3.96</time>
   <energy>
    <i name="e_fr_energy">    -24.01259215 </i>
    <i name="e_wo_entrp">    -24.03724624 </i>
    <i name="e_0_energy">    -24.02081018 </i>
   </energy>
  </scstep>
  <scstep>
   <time name="diag">    0.45    0.45</time>
   <time name="diis">    1.50    1.50</time>
   <time name="orth">    0.01    0.01</time>
   <time name="total">    3.95    3.96</time>
   <energy>
    <i name="e_fr_energy">    -24.01258131 </i>
    <i name="e_wo_entrp">    -24.03734481 </i>
    <i name="e_0_energy">    -24.02083581 </i>
   </energy>
  </scstep>
  <scstep>
   <time name="diag">    0.44    0.44</time>
   <time name="diis">    1.50    1.50</time>
   <time name="orth">    0.01    0.01</time>
   <time name="total">    3.98    3.99</time>
   <energy>
    <i name="e_fr_energy">    -24.01257722 </i>
    <i name="e_wo_entrp">    -24.03743759 </i>
    <i name="e_0_energy">    -24.02086401 </i>
   </energy>
  </scstep>
  <scstep>
   <time name="diag">    0.45    0.45</time>
   <time name="diis">    1.53    1.53</time>
   <time name="orth">    0.01    0.01</time>
   <time name="total">    4.05    4.06</time>
   <energy>
    <i name="e_fr_energy">    -24.01257851 </i>
    <i name="e_wo_entrp">    -24.03752593 </i>
    <i name="e_0_energy">    -24.02089432 </i>
   </energy>
  </scstep>
  <scstep>
   <time name="diag">    0.46    0.46</time>
   <time name="diis">    1.23    1.23</time>
   <time name="orth">    0.01    0.01</time>
   <time name="total">    3.40    3.40</time>
   <energy>
    <i name="alphaZ">      0.24562550 </i>
    <i name="ewald">    124.98357819 </i>
    <i name="hartreedc">   -281.17572073 </i>
    <i name="XCdc">     24.59451173 </i>
    <i name="pawpsdc">    448.88641974 </i>
    <i name="pawaedc">   -449.66464166 </i>
    <i name="eentropy">      0.02500799 </i>
    <i name="bandstr">    -88.94911479 </i>
    <i name="atom">    197.04175453 </i>
    <i name="e_fr_energy">    -24.01257950 </i>
    <i name="e_wo_entrp">    -24.03758749 </i>
    <i name="e_0_energy">    -24.02091550 </i>
   </energy>
  </scstep>
  <structure>
   <crystal>
    <varray name="basis" >
     <v>       9.77932655       0.00000000       0.00000000 </v>
     <v>      -0.08266850       9.89274269       0.00000000 </v>
     <v>       0.12199206      -0.14318704      10.19450395 </v>
    </varray>
    <i name="volume">    986.26077245 </i>
    <varray name="rec_basis" >
[...]
       <r>     0.2854    -0.7727     9.8925 </r>
       <r>     0.3568    -0.2441     9.8751 </r>
       <r>     0.4283     2.4421    10.0497 </r>
       <r>     0.4998     8.0444    10.6247 </r>
       <r>     0.5713    15.1701    11.7091 </r>
       <r>     0.6428    20.2390    13.1559 </r>
       <r>     0.7143    19.8962    14.5782 </r>
       <r>     0.7857    14.1285    15.5882 </r>
       <r>     0.8572     6.5993    16.0599 </r>
       <r>     0.9287     1.2713    16.1508 </r>
       <r>     1.0002    -0.7536    16.0969 </r>
       <r>     1.0717    -0.8054    16.0394 </r>
       <r>     1.1432    -0.3913    16.0114 </r>
       <r>     1.2147    -0.1252    16.0024 </r>
       <r>     1.2861    -0.0287    16.0004 </r>
       <r>     1.3576    -0.0049    16.0000 </r>
       <r>     1.4291    -0.0006    16.0000 </r>
       <r>     1.5006    -0.0001    16.0000 </r>
       <r>     1.5721    -0.0000    16.0000 </r>
       <r>     1.6436    -0.0000    16.0000 </r>
       <r>     1.7151    -0.0000    16.0000 </r>
       <r>     1.7865    -0.0000    16.0000 </r>
       <r>     1.8580    -0.0000    16.0000 </r>
       <r>     1.9295    -0.0000    16.0000 </r>
       <r>     2.0010    -0.0000    16.0000 </r>
       <r>     2.0725     0.0000    16.0000 </r>
       <r>     2.1440     0.0000    16.0000 </r>
       <r>     2.2154     0.0000    16.0000 </r>
       <r>     2.2869     0.0000    16.0000 </r>
       <r>     2.3584     0.0000    16.0000 </r>
       <r>     2.4299     0.0000    16.0000 </r>
       <r>     2.5014     0.0000    16.0000 </r>
       <r>     2.5729     0.0000    16.0000 </r>
       <r>     2.6444     0.0000    16.0000 </r>
       <r>     2.7158     0.0000    16.0000 </r>
      </set>
     </set>
    </array>
   </total>
  </dos>
  <time name="totalsc">   68.77   68.95</time>
  <eigenvalues>
   <array>
    <dimension dim="1">band</dimension>
    <dimension dim="2">kpoint</dimension>
    <dimension dim="3">spin</dimension>
    <field>eigene</field>
    <field>occ</field>
    <set>
     <set comment="spin 1">
      <set comment="kpoint 1">
       <r>  -17.0046    1.0000 </r>
       <r>   -9.6832    1.0000 </r>
       <r>   -9.2821    1.0318 </r>
       <r>   -9.1472    0.9682 </r>
       <r>   -0.3242    0.0000 </r>
       <r>    0.5669    0.0000 </r>
       <r>    0.6817    0.0000 </r>
       <r>    0.7138    0.0000 </r>
      </set>
      <set comment="kpoint 2">
       <r>  -17.0046    1.0000 </r>
       <r>   -9.6833    1.0000 </r>
       <r>   -9.2822    1.0318 </r>
       <r>   -9.1473    0.9683 </r>
       <r>   -0.3227    0.0000 </r>
       <r>    0.5570    0.0000 </r>
       <r>    0.6661    0.0000 </r>
       <r>    0.7229    0.0000 </r>
      </set>
      <set comment="kpoint 3">
       <r>  -17.0046    1.0000 </r>
       <r>   -9.6833    1.0000 </r>
       <r>   -9.2822    1.0318 </r>
       <r>   -9.1473    0.9682 </r>
       <r>   -0.3274    0.0000 </r>
       <r>    0.5688    0.0000 </r>
       <r>    0.6827    0.0000 </r>
       <r>    0.7289    0.0000 </r>
      </set>
      <set comment="kpoint 4">
       <r>  -17.0046    1.0000 </r>
       <r>   -9.6833    1.0000 </r>
       <r>   -9.2821    1.0318 </r>
       <r>   -9.1472    0.9681 </r>
       <r>   -0.3245    0.0000 </r>
       <r>    0.5778    0.0000 </r>
       <r>    0.6722    0.0000 </r>
       <r>    0.7096    0.0000 </r>
      </set>
     </set>
    </set>
   </array>
  </eigenvalues>
  <separator name="orbital magnetization" >
   <v name="MAGDIPOLOUT">      0.00000000      0.00000000      0.00000000</v>
  </separator>
  <dos>
   <i name="efermi">     -9.00229748 </i>
   <total>
    <array>
     <dimension dim="1">gridpoints</dimension>
     <dimension dim="2">spin</dimension>
     <field>energy</field>
     <field>total</field>
     <field>integrated</field>
     <set>
      <set comment="spin 1">
       <r>   -19.0046     0.0000     0.0000 </r>
       <r>   -18.9322     0.0000     0.0000 </r>
       <r>   -18.8597     0.0000     0.0000 </r>
       <r>   -18.7873     0.0000     0.0000 </r>
       <r>   -18.7148     0.0000     0.0000 </r>
       <r>   -18.6424    -0.0000    -0.0000 </r>
       <r>   -18.5699    -0.0000    -0.0000 </r>
       <r>   -18.4975    -0.0000    -0.0000 </r>
       <r>   -18.4251    -0.0000    -0.0000 </r>
       <r>   -18.3526    -0.0000    -0.0000 </r>
       <r>   -18.2802    -0.0000    -0.0000 </r>
       <r>   -18.2077    -0.0000    -0.0000 </r>
       <r>   -18.1353    -0.0000    -0.0000 </r>
       <r>   -18.0628    -0.0000    -0.0000 </r>
       <r>   -17.9904    -0.0000    -0.0000 </r>
       <r>   -17.9179    -0.0000    -0.0000 </r>
       <r>   -17.8455    -0.0000    -0.0000 </r>
       <r>   -17.7731    -0.0000    -0.0000 </r>
       <r>   -17.7006    -0.0001    -0.0000 </r>
       <r>   -17.6282    -0.0012    -0.0001 </r>
       <r>   -17.5557    -0.0082    -0.0007 </r>
       <r>   -17.4833    -0.0413    -0.0037 </r>
       <r>   -17.4108    -0.1485    -0.0144 </r>
       <r>   -17.3384    -0.3506    -0.0398 </r>
       <r>   -17.2659    -0.4034    -0.0691 </r>
       <r>   -17.1935     0.4465    -0.0367 </r>
       <r>   -17.1210     2.9395     0.1762 </r>
       <r>   -17.0486     6.3662     0.6374 </r>
       <r>   -16.9762     8.2904     1.2380 </r>
       <r>   -16.9037     6.9988     1.7450 </r>
       <r>   -16.8313     3.6625     2.0104 </r>
       <r>   -16.7588     0.8355     2.0709 </r>
       <r>   -16.6864    -0.3307     2.0470 </r>
       <r>   -16.6139    -0.3923     2.0185 </r>
       <r>   -16.5415    -0.1859     2.0051 </r>
       <r>   -16.4690    -0.0561     2.0010 </r>
       <r>   -16.3966    -0.0119     2.0001 </r>
       <r>   -16.3242    -0.0018     2.0000 </r>
       <r>   -16.2517    -0.0002     2.0000 </r>
       <r>   -16.1793    -0.0000     2.0000 </r>
       <r>   -16.1068    -0.0000     2.0000 </r>
       <r>   -16.0344    -0.0000     2.0000 </r>
       <r>   -15.9619    -0.0000     2.0000 </r>
       <r>   -15.8895    -0.0000     2.0000 </r>
       <r>   -15.8170    -0.0000     2.0000 </r>
       <r>   -15.7446    -0.0000     2.0000 </r>
       <r>   -15.6721     0.0000     2.0000 </r>
       <r>   -15.5997     0.0000     2.0000 </r>
       <r>   -15.5273     0.0000     2.0000 </r>
       <r>   -15.4548     0.0000     2.0000 </r>
       <r>   -15.3824     0.0000     2.0000 </r>
       <r>   -15.3099     0.0000     2.0000 </r>
       <r>   -15.2375     0.0000     2.0000 </r>
       <r>   -15.1650     0.0000     2.0000 </r>
       <r>   -15.0926     0.0000     2.0000 </r>
       <r>   -15.0201     0.0000     2.0000 </r>
       <r>   -14.9477     0.0000     2.0000 </r>
       <r>   -14.8753     0.0000     2.0000 </r>
       <r>   -14.8028     0.0000     2.0000 </r>
       <r>   -14.7304     0.0000     2.0000 </r>
       <r>   -14.6579     0.0000     2.0000 </r>
       <r>   -14.5855     0.0000     2.0000 </r>
       <r>   -14.5130     0.0000     2.0000 </r>
       <r>   -14.4406     0.0000     2.0000 </r>
       <r>   -14.3681     0.0000     2.0000 </r>
       <r>   -14.2957     0.0000     2.0000 </r>
       <r>   -14.2232     0.0000     2.0000 </r>
       <r>   -14.1508     0.0000     2.0000 </r>
       <r>   -14.0784     0.0000     2.0000 </r>
       <r>   -14.0059     0.0000     2.0000 </r>
       <r>   -13.9335     0.0000     2.0000 </r>
       <r>   -13.8610     0.0000     2.0000 </r>
       <r>   -13.7886     0.0000     2.0000 </r>
       <r>   -13.7161     0.0000     2.0000 </r>
       <r>   -13.6437     0.0000     2.0000 </r>
       <r>   -13.5712     0.0000     2.0000 </r>
       <r>   -13.4988     0.0000     2.0000 </r>
       <r>   -13.4264     0.0000     2.0000 </r>
       <r>   -13.3539     0.0000     2.0000 </r>
       <r>   -13.2815     0.0000     2.0000 </r>
       <r>   -13.2090     0.0000     2.0000 </r>
       <r>   -13.1366     0.0000     2.0000 </r>
       <r>   -13.0641     0.0000     2.0000 </r>
       <r>   -12.9917     0.0000     2.0000 </r>
       <r>   -12.9192     0.0000     2.0000 </r>
       <r>   -12.8468     0.0000     2.0000 </r>
       <r>   -12.7743     0.0000     2.0000 </r>
       <r>   -12.7019     0.0000     2.0000 </r>
       <r>   -12.6295     0.0000     2.0000 </r>
       <r>   -12.5570     0.0000     2.0000 </r>
       <r>   -12.4846     0.0000     2.0000 </r>
       <r>   -12.4121     0.0000     2.0000 </r>
       <r>   -12.3397     0.0000     2.0000 </r>
       <r>   -12.2672     0.0000     2.0000 </r>
       <r>   -12.1948     0.0000     2.0000 </r>
       <r>   -12.1223     0.0000     2.0000 </r>
       <r>   -12.0499     0.0000     2.0000 </r>
       <r>   -11.9775     0.0000     2.0000 </r>
       <r>   -11.9050     0.0000     2.0000 </r>
       <r>   -11.8326     0.0000     2.0000 </r>
       <r>   -11.7601     0.0000     2.0000 </r>
       <r>   -11.6877     0.0000     2.0000 </r>
       <r>   -11.6152     0.0000     2.0000 </r>
       <r>   -11.5428     0.0000     2.0000 </r>
       <r>   -11.4703     0.0000     2.0000 </r>
       <r>   -11.3979     0.0000     2.0000 </r>
       <r>   -11.3254    -0.0000     2.0000 </r>
       <r>   -11.2530    -0.0000     2.0000 </r>
       <r>   -11.1806    -0.0000     2.0000 </r>
       <r>   -11.1081    -0.0000     2.0000 </r>
       <r>   -11.0357    -0.0000     2.0000 </r>
       <r>   -10.9632    -0.0000     2.0000 </r>
       <r>   -10.8908    -0.0000     2.0000 </r>
       <r>   -10.8183    -0.0000     2.0000 </r>
       <r>   -10.7459    -0.0000     2.0000 </r>
       <r>   -10.6734    -0.0000     2.0000 </r>
       <r>   -10.6010    -0.0000     2.0000 </r>
       <r>   -10.5286    -0.0000     2.0000 </r>
       <r>   -10.4561    -0.0000     2.0000 </r>
       <r>   -10.3837    -0.0001     2.0000 </r>
       <r>   -10.3112    -0.0010     1.9999 </r>
       <r>   -10.2388    -0.0073     1.9994 </r>
       <r>   -10.1663    -0.0378     1.9966 </r>
       <r>   -10.0939    -0.1389     1.9866 </r>
       <r>   -10.0214    -0.3379     1.9621 </r>
       <r>    -9.9490    -0.4164     1.9319 </r>
       <r>    -9.8766     0.3488     1.9572 </r>
       <r>    -9.8041     2.7270     2.1548 </r>
       <r>    -9.7317     6.0973     2.5965 </r>
       <r>    -9.6592     8.0181     3.1774 </r>
       <r>    -9.5868     6.6536     3.6594 </r>
       <r>    -9.5143     3.3969     3.9055 </r>
       <r>    -9.4419     1.7706     4.0337 </r>
       <r>    -9.3694     3.8993     4.3162 </r>
       <r>    -9.2970     8.6520     4.9430 </r>
       <r>    -9.2245    12.7684     5.8680 </r>
       <r>    -9.1521    13.4508     6.8425 </r>
       <r>    -9.0797    10.3214     7.5902 </r>
       <r>    -9.0072     5.4518     7.9852 </r>
       <r>    -8.9348     1.5140     8.0948 </r>
       <r>    -8.8623    -0.2994     8.0731 </r>
       <r>    -8.7899    -0.5591     8.0326 </r>
       <r>    -8.7174    -0.3114     8.0101 </r>
       <r>    -8.6450    -0.1078     8.0023 </r>
       <r>    -8.5725    -0.0261     8.0004 </r>
       <r>    -8.5001    -0.0046     8.0000 </r>
       <r>    -8.4277    -0.0006     8.0000 </r>
       <r>    -8.3552    -0.0001     8.0000 </r>
       <r>    -8.2828    -0.0000     8.0000 </r>
       <r>    -8.2103    -0.0000     8.0000 </r>
       <r>    -8.1379    -0.0000     8.0000 </r>
       <r>    -8.0654    -0.0000     8.0000 </r>
       <r>    -7.9930    -0.0000     8.0000 </r>
       <r>    -7.9205    -0.0000     8.0000 </r>
       <r>    -7.8481     0.0000     8.0000 </r>
       <r>    -7.7756     0.0000     8.0000 </r>
       <r>    -7.7032     0.0000     8.0000 </r>
       <r>    -7.6308     0.0000     8.0000 </r>
       <r>    -7.5583     0.0000     8.0000 </r>
       <r>    -7.4859     0.0000     8.0000 </r>
       <r>    -7.4134     0.0000     8.0000 </r>
       <r>    -7.3410     0.0000     8.0000 </r>
       <r>    -7.2685     0.0000     8.0000 </r>
       <r>    -7.1961     0.0000     8.0000 </r>
       <r>    -7.1236     0.0000     8.0000 </r>
       <r>    -7.0512     0.0000     8.0000 </r>
       <r>    -6.9788     0.0000     8.0000 </r>
       <r>    -6.9063     0.0000     8.0000 </r>
       <r>    -6.8339     0.0000     8.0000 </r>
       <r>    -6.7614     0.0000     8.0000 </r>
       <r>    -6.6890     0.0000     8.0000 </r>
       <r>    -6.6165     0.0000     8.0000 </r>
       <r>    -6.5441     0.0000     8.0000 </r>
       <r>    -6.4716     0.0000     8.0000 </r>
       <r>    -6.3992     0.0000     8.0000 </r>
       <r>    -6.3267     0.0000     8.0000 </r>
       <r>    -6.2543     0.0000     8.0000 </r>
       <r>    -6.1819     0.0000     8.0000 </r>
       <r>    -6.1094     0.0000     8.0000 </r>
       <r>    -6.0370     0.0000     8.0000 </r>
       <r>    -5.9645     0.0000     8.0000 </r>
       <r>    -5.8921     0.0000     8.0000 </r>
       <r>    -5.8196     0.0000     8.0000 </r>
       <r>    -5.7472     0.0000     8.0000 </r>
       <r>    -5.6747     0.0000     8.0000 </r>
       <r>    -5.6023     0.0000     8.0000 </r>
       <r>    -5.5299     0.0000     8.0000 </r>
       <r>    -5.4574     0.0000     8.0000 </r>
       <r>    -5.3850     0.0000     8.0000 </r>
       <r>    -5.3125     0.0000     8.0000 </r>
       <r>    -5.2401     0.0000     8.0000 </r>
       <r>    -5.1676     0.0000     8.0000 </r>
       <r>    -5.0952     0.0000     8.0000 </r>
       <r>    -5.0227     0.0000     8.0000 </r>
       <r>    -4.9503     0.0000     8.0000 </r>
       <r>    -4.8778     0.0000     8.0000 </r>
       <r>    -4.8054     0.0000     8.0000 </r>
       <r>    -4.7330     0.0000     8.0000 </r>
       <r>    -4.6605     0.0000     8.0000 </r>
       <r>    -4.5881     0.0000     8.0000 </r>
       <r>    -4.5156     0.0000     8.0000 </r>
       <r>    -4.4432     0.0000     8.0000 </r>
       <r>    -4.3707     0.0000     8.0000 </r>
       <r>    -4.2983     0.0000     8.0000 </r>
       <r>    -4.2258     0.0000     8.0000 </r>
       <r>    -4.1534     0.0000     8.0000 </r>
       <r>    -4.0810     0.0000     8.0000 </r>
       <r>    -4.0085     0.0000     8.0000 </r>
       <r>    -3.9361     0.0000     8.0000 </r>
       <r>    -3.8636     0.0000     8.0000 </r>
       <r>    -3.7912     0.0000     8.0000 </r>
       <r>    -3.7187     0.0000     8.0000 </r>
       <r>    -3.6463     0.0000     8.0000 </r>
       <r>    -3.5738     0.0000     8.0000 </r>
       <r>    -3.5014     0.0000     8.0000 </r>
       <r>    -3.4289     0.0000     8.0000 </r>
       <r>    -3.3565     0.0000     8.0000 </r>
       <r>    -3.2841     0.0000     8.0000 </r>
       <r>    -3.2116     0.0000     8.0000 </r>
       <r>    -3.1392     0.0000     8.0000 </r>
       <r>    -3.0667     0.0000     8.0000 </r>
       <r>    -2.9943     0.0000     8.0000 </r>
       <r>    -2.9218     0.0000     8.0000 </r>
       <r>    -2.8494     0.0000     8.0000 </r>
       <r>    -2.7769     0.0000     8.0000 </r>
       <r>    -2.7045     0.0000     8.0000 </r>
       <r>    -2.6321     0.0000     8.0000 </r>
       <r>    -2.5596     0.0000     8.0000 </r>
       <r>    -2.4872     0.0000     8.0000 </r>
       <r>    -2.4147     0.0000     8.0000 </r>
       <r>    -2.3423     0.0000     8.0000 </r>
       <r>    -2.2698     0.0000     8.0000 </r>
       <r>    -2.1974     0.0000     8.0000 </r>
       <r>    -2.1249     0.0000     8.0000 </r>
       <r>    -2.0525     0.0000     8.0000 </r>
       <r>    -1.9801    -0.0000     8.0000 </r>
       <r>    -1.9076    -0.0000     8.0000 </r>
       <r>    -1.8352    -0.0000     8.0000 </r>
       <r>    -1.7627    -0.0000     8.0000 </r>
       <r>    -1.6903    -0.0000     8.0000 </r>
       <r>    -1.6178    -0.0000     8.0000 </r>
       <r>    -1.5454    -0.0000     8.0000 </r>
       <r>    -1.4729    -0.0000     8.0000 </r>
       <r>    -1.4005    -0.0000     8.0000 </r>
       <r>    -1.3280    -0.0000     8.0000 </r>
       <r>    -1.2556    -0.0000     8.0000 </r>
       <r>    -1.1832    -0.0000     8.0000 </r>
       <r>    -1.1107    -0.0000     8.0000 </r>
       <r>    -1.0383    -0.0001     8.0000 </r>
       <r>    -0.9658    -0.0007     7.9999 </r>
       <r>    -0.8934    -0.0053     7.9996 </r>
       <r>    -0.8209    -0.0288     7.9975 </r>
       <r>    -0.7485    -0.1128     7.9893 </r>
       <r>    -0.6760    -0.2984     7.9677 </r>
       <r>    -0.6036    -0.4366     7.9361 </r>
       <r>    -0.5312     0.1059     7.9437 </r>
       <r>    -0.4587     2.1871     8.1022 </r>
       <r>    -0.3863     5.5677     8.5055 </r>
       <r>    -0.3138     8.0962     9.0921 </r>
       <r>    -0.2414     7.5900     9.6419 </r>
       <r>    -0.1689     4.5130     9.9689 </r>
       <r>    -0.0965     1.3748    10.0684 </r>
       <r>    -0.0240    -0.1891    10.0547 </r>
       <r>     0.0484    -0.4456    10.0225 </r>
       <r>     0.1209    -0.3201     9.9993 </r>
       <r>     0.1933    -0.3621     9.9730 </r>
       <r>     0.2657    -0.6501     9.9259 </r>
       <r>     0.3382    -0.7472     9.8718 </r>
       <r>     0.4106     0.5201     9.9095 </r>
       <r>     0.4831     4.5782    10.2412 </r>
       <r>     0.5555    11.4614    11.0715 </r>
       <r>     0.6280    18.4457    12.4078 </r>
       <r>     0.7004    21.2131    13.9446 </r>
       <r>     0.7729    17.5547    15.2163 </r>
       <r>     0.8453     9.8880    15.9326 </r>
       <r>     0.9177     3.0222    16.1516 </r>
       <r>     0.9902    -0.3549    16.1259 </r>
       <r>     1.0626    -0.9394    16.0578 </r>
       <r>     1.1351    -0.5465    16.0182 </r>
       <r>     1.2075    -0.1939    16.0042 </r>
       <r>     1.2800    -0.0479    16.0007 </r>
       <r>     1.3524    -0.0086    16.0001 </r>
       <r>     1.4249    -0.0011    16.0000 </r>
       <r>     1.4973    -0.0001    16.0000 </r>
       <r>     1.5698    -0.0000    16.0000 </r>
       <r>     1.6422    -0.0000    16.0000 </r>
       <r>     1.7146    -0.0000    16.0000 </r>
       <r>     1.7871    -0.0000    16.0000 </r>
       <r>     1.8595    -0.0000    16.0000 </r>
       <r>     1.9320    -0.0000    16.0000 </r>
       <r>     2.0044    -0.0000    16.0000 </r>
       <r>     2.0769     0.0000    16.0000 </r>
       <r>     2.1493     0.0000    16.0000 </r>
       <r>     2.2218     0.0000    16.0000 </r>
       <r>     2.2942     0.0000    16.0000 </r>
       <r>     2.3666     0.0000    16.0000 </r>
       <r>     2.4391     0.0000    16.0000 </r>
       <r>     2.5115     0.0000    16.0000 </r>
       <r>     2.5840     0.0000    16.0000 </r>
       <r>     2.6564     0.0000    16.0000 </r>
       <r>     2.7289     0.0000    16.0000 </r>
      </set>
     </set>
    </array>
   </total>
  </dos>
 </calculation>
 <structure name="finalpos" >
  <crystal>
   <varray name="basis" >
    <v>       9.77932655       0.00000000       0.00000000 </v>
    <v>      -0.08266850       9.89274269       0.00000000 </v>
    <v>       0.12199206      -0.14318704      10.19450395 </v>
   </varray>
   <i name="volume">    986.26077245 </i>
   <varray name="rec_basis" >
    <v>       0.10225653       0.00085450      -0.00121165 </v>
    <v>      -0.00000000       0.10108420       0.00141978 </v>
    <v>       0.00000000      -0.00000000       0.09809207 </v>
   </varray>
  </crystal>
  <varray name="positions" >
   <v>       0.54143333       0.40351168       0.36068668 </v>
   <v>       0.39680141       0.49011549       0.42859625 </v>
   <v>       0.55991033       0.55964884       0.44916829 </v>
   <v>       0.52379473       0.41662328       0.54266604 </v>
   <v>       0.50255368       0.46714298       0.44521136 </v>
  </varray>
  <varray name="velocities" >
   <v>      -0.00018369      -0.00029819       0.00084806 </v>
   <v>       0.00110989      -0.00079165       0.00217226 </v>
   <v>      -0.00071107      -0.00146781       0.00098397 </v>
   <v>      -0.00094300       0.00152489      -0.00322566 </v>
   <v>       0.00006060       0.00008598      -0.00006483 </v>
  </varray>
 </structure>
</modeling>
