unknown system                          
           1
     9.779327    0.000000    0.000000
    -0.082668    9.892743    0.000000
     0.121992   -0.143187   10.194504
   H    C 
   4   1
Direct configuration=     1
   0.53826984  0.40665551  0.36073236
   0.39418974  0.48075695  0.43774560
   0.55277368  0.56523567  0.44201593
   0.52865907  0.41680913  0.53916690
   0.50322369  0.46717978  0.44533263
Direct configuration=     2
   0.54118741  0.40517021  0.36078520
   0.39595925  0.47943428  0.43883222
   0.55468734  0.56867798  0.44408526
   0.52555794  0.41716205  0.53596800
   0.50293233  0.46709758  0.44533180
Direct configuration=     3
   0.54376262  0.40358215  0.36136987
   0.39303621  0.47989849  0.43899253
   0.55685541  0.57014148  0.44474999
   0.52104729  0.41363625  0.53601983
   0.50315632  0.46736285  0.44521012
Direct configuration=     4
   0.54238289  0.40305735  0.36306805
   0.39203317  0.48107475  0.43759572
   0.55574526  0.56824536  0.44536272
   0.51882072  0.40918628  0.53790080
   0.50363251  0.46783697  0.44497741
Direct configuration=     5
   0.53904790  0.40131578  0.36426123
   0.39552832  0.48199607  0.43444059
   0.55497218  0.56640355  0.44573940
   0.51682019  0.40815116  0.53973975
   0.50385010  0.46814479  0.44495629
Direct configuration=     6
   0.53670831  0.40084890  0.36341825
   0.39567828  0.48564522  0.43112308
   0.55538305  0.56510062  0.44627807
   0.51650967  0.40898769  0.53914296
   0.50402404  0.46791867  0.44530752
Direct configuration=     7
   0.53521775  0.40154768  0.36222926
   0.39622078  0.48896726  0.42690096
   0.55837098  0.56580260  0.44784940
   0.51810478  0.41173266  0.53626453
   0.50372141  0.46729693  0.44586685
Direct configuration=     8
   0.53720589  0.40294978  0.36152925
   0.39552807  0.49075353  0.42538510
   0.56185040  0.56724106  0.44803420
   0.51986332  0.41590206  0.53423764
   0.50317746  0.46656458  0.44620471
Direct configuration=     9
   0.54046071  0.40495374  0.36246596
   0.39393905  0.49116242  0.42571320
   0.56121025  0.56453071  0.44805879
   0.52299928  0.41559815  0.54010420
   0.50283097  0.46661465  0.44560892
Direct configuration=    10
   0.54161701  0.40380987  0.35983862
   0.39569152  0.49090714  0.42642400
   0.56062140  0.56111665  0.44818433
   0.52473773  0.41509838  0.54589171
   0.50249308  0.46705699  0.44527619
