   5   5   0   0
  0.2034715E+03  0.9774718E-09  0.1011370E-08  0.1029816E-08  0.2000000E-14
   50.000000000000000     
  CAR 
 unknown system                          
      2.71745421    -18.85638490  301     -9.06275881      1.00000000
    -18.856  0.0000E+00  0.0000E+00
    -18.784  0.0000E+00  0.0000E+00
    -18.713  0.0000E+00  0.0000E+00
    -18.641  0.0000E+00  0.0000E+00
    -18.569  0.0000E+00  0.0000E+00
    -18.497 -0.3893E-27 -0.2800E-28
    -18.425 -0.1188E-24 -0.8574E-26
    -18.353 -0.2801E-22 -0.2023E-23
    -18.281 -0.5086E-20 -0.3678E-21
    -18.209 -0.7109E-18 -0.5149E-19
    -18.137 -0.7647E-16 -0.5551E-17
    -18.065 -0.6328E-14 -0.4606E-15
    -17.993 -0.3902E-12 -0.2852E-13
    -17.922 -0.1899E-10 -0.1394E-11
    -17.850 -0.7082E-09 -0.5232E-10
    -17.778 -0.2023E-07 -0.1507E-08
    -17.706 -0.4413E-06 -0.3324E-07
    -17.634 -0.7337E-05 -0.5609E-06
    -17.562 -0.9259E-04 -0.7219E-05
    -17.490 -0.8819E-03 -0.7064E-04
    -17.418 -0.6284E-02 -0.5225E-03
    -17.346 -0.3301E-01 -0.2896E-02
    -17.274 -0.1244E+00 -0.1184E-01
    -17.202 -0.3152E+00 -0.3451E-01
    -17.130 -0.4321E+00 -0.6558E-01
    -17.059  0.1824E+00 -0.5246E-01
    -16.987  0.2349E+01  0.1165E+00
    -16.915  0.5730E+01  0.5285E+00
    -16.843  0.8145E+01  0.1114E+01
    -16.771  0.7521E+01  0.1655E+01
    -16.699  0.4423E+01  0.1973E+01
    -16.627  0.1330E+01  0.2069E+01
    -16.555 -0.1953E+00  0.2055E+01
    -16.483 -0.4267E+00  0.2024E+01
    -16.411 -0.2344E+00  0.2007E+01
    -16.339 -0.7870E-01  0.2002E+01
    -16.268 -0.1835E-01  0.2000E+01
    -16.196 -0.3107E-02  0.2000E+01
    -16.124 -0.3903E-03  0.2000E+01
    -16.052 -0.3683E-04  0.2000E+01
    -15.980 -0.2630E-05  0.2000E+01
    -15.908 -0.1427E-06  0.2000E+01
    -15.836 -0.5909E-08  0.2000E+01
    -15.764 -0.1871E-09  0.2000E+01
    -15.692 -0.4537E-11  0.2000E+01
    -15.620 -0.8646E-13  0.2000E+01
    -15.548  0.0000E+00  0.2000E+01
    -15.476  0.0000E+00  0.2000E+01
    -15.405  0.0000E+00  0.2000E+01
    -15.333  0.0000E+00  0.2000E+01
    -15.261  0.0000E+00  0.2000E+01
    -15.189  0.0000E+00  0.2000E+01
    -15.117  0.0000E+00  0.2000E+01
    -15.045  0.0000E+00  0.2000E+01
    -14.973  0.0000E+00  0.2000E+01
    -14.901  0.0000E+00  0.2000E+01
    -14.829  0.0000E+00  0.2000E+01
    -14.757  0.0000E+00  0.2000E+01
    -14.685  0.0000E+00  0.2000E+01
    -14.614  0.0000E+00  0.2000E+01
    -14.542  0.0000E+00  0.2000E+01
    -14.470  0.0000E+00  0.2000E+01
    -14.398  0.0000E+00  0.2000E+01
    -14.326  0.0000E+00  0.2000E+01
    -14.254  0.0000E+00  0.2000E+01
    -14.182  0.0000E+00  0.2000E+01
    -14.110  0.0000E+00  0.2000E+01
    -14.038  0.0000E+00  0.2000E+01
    -13.966  0.0000E+00  0.2000E+01
    -13.894  0.0000E+00  0.2000E+01
    -13.822  0.0000E+00  0.2000E+01
    -13.751  0.0000E+00  0.2000E+01
    -13.679  0.0000E+00  0.2000E+01
    -13.607  0.0000E+00  0.2000E+01
    -13.535  0.0000E+00  0.2000E+01
    -13.463  0.0000E+00  0.2000E+01
    -13.391  0.0000E+00  0.2000E+01
    -13.319  0.0000E+00  0.2000E+01
    -13.247  0.0000E+00  0.2000E+01
    -13.175  0.0000E+00  0.2000E+01
    -13.103  0.0000E+00  0.2000E+01
    -13.031  0.0000E+00  0.2000E+01
    -12.960  0.0000E+00  0.2000E+01
    -12.888  0.0000E+00  0.2000E+01
    -12.816  0.0000E+00  0.2000E+01
    -12.744  0.0000E+00  0.2000E+01
    -12.672  0.0000E+00  0.2000E+01
    -12.600  0.0000E+00  0.2000E+01
    -12.528  0.0000E+00  0.2000E+01
    -12.456  0.0000E+00  0.2000E+01
    -12.384  0.0000E+00  0.2000E+01
    -12.312  0.0000E+00  0.2000E+01
    -12.240  0.0000E+00  0.2000E+01
    -12.168  0.0000E+00  0.2000E+01
    -12.097  0.0000E+00  0.2000E+01
    -12.025  0.0000E+00  0.2000E+01
    -11.953  0.0000E+00  0.2000E+01
    -11.881  0.0000E+00  0.2000E+01
    -11.809  0.0000E+00  0.2000E+01
    -11.737  0.0000E+00  0.2000E+01
    -11.665  0.0000E+00  0.2000E+01
    -11.593  0.0000E+00  0.2000E+01
    -11.521  0.0000E+00  0.2000E+01
    -11.449  0.0000E+00  0.2000E+01
    -11.377  0.0000E+00  0.2000E+01
    -11.306  0.0000E+00  0.2000E+01
    -11.234  0.0000E+00  0.2000E+01
    -11.162  0.0000E+00  0.2000E+01
    -11.090  0.0000E+00  0.2000E+01
    -11.018  0.0000E+00  0.2000E+01
    -10.946 -0.7499E-27  0.2000E+01
    -10.874 -0.2271E-24  0.2000E+01
    -10.802 -0.5316E-22  0.2000E+01
    -10.730 -0.9590E-20  0.2000E+01
    -10.658 -0.1333E-17  0.2000E+01
    -10.586 -0.1427E-15  0.2000E+01
    -10.515 -0.1176E-13  0.2000E+01
    -10.443 -0.7227E-12  0.2000E+01
    -10.371 -0.3510E-10  0.2000E+01
    -10.299 -0.1308E-08  0.2000E+01
    -10.227 -0.3737E-07  0.2000E+01
    -10.155 -0.8166E-06  0.2000E+01
    -10.083 -0.1362E-04  0.2000E+01
    -10.011 -0.1728E-03  0.2000E+01
     -9.939 -0.1659E-02  0.2000E+01
     -9.867 -0.1197E-01  0.1999E+01
     -9.795 -0.6402E-01  0.1994E+01
     -9.723 -0.2483E+00  0.1977E+01
     -9.652 -0.6635E+00  0.1929E+01
     -9.580 -0.1044E+01  0.1854E+01
     -9.508 -0.1229E+00  0.1845E+01
     -9.436  0.4078E+01  0.2138E+01
     -9.364  0.1186E+02  0.2991E+01
     -9.292  0.1962E+02  0.4402E+01
     -9.220  0.2206E+02  0.5988E+01
     -9.148  0.1751E+02  0.7247E+01
     -9.076  0.9516E+01  0.7932E+01
     -9.004  0.2903E+01  0.8140E+01
     -8.932 -0.2677E+00  0.8121E+01
     -8.861 -0.8693E+00  0.8059E+01
     -8.789 -0.5404E+00  0.8020E+01
     -8.717 -0.2069E+00  0.8005E+01
     -8.645 -0.5567E-01  0.8001E+01
     -8.573 -0.1099E-01  0.8000E+01
     -8.501 -0.1619E-02  0.8000E+01
     -8.429 -0.1800E-03  0.8000E+01
     -8.357 -0.1517E-04  0.8000E+01
     -8.285 -0.9739E-06  0.8000E+01
     -8.213 -0.4772E-07  0.8000E+01
     -8.141 -0.1788E-08  0.8000E+01
     -8.069 -0.5136E-10  0.8000E+01
     -7.998 -0.1129E-11  0.8000E+01
     -7.926 -0.1853E-13  0.8000E+01
     -7.854  0.0000E+00  0.8000E+01
     -7.782  0.0000E+00  0.8000E+01
     -7.710  0.0000E+00  0.8000E+01
     -7.638  0.0000E+00  0.8000E+01
     -7.566  0.0000E+00  0.8000E+01
     -7.494  0.0000E+00  0.8000E+01
     -7.422  0.0000E+00  0.8000E+01
     -7.350  0.0000E+00  0.8000E+01
     -7.278  0.0000E+00  0.8000E+01
     -7.207  0.0000E+00  0.8000E+01
     -7.135  0.0000E+00  0.8000E+01
     -7.063  0.0000E+00  0.8000E+01
     -6.991  0.0000E+00  0.8000E+01
     -6.919  0.0000E+00  0.8000E+01
     -6.847  0.0000E+00  0.8000E+01
     -6.775  0.0000E+00  0.8000E+01
     -6.703  0.0000E+00  0.8000E+01
     -6.631  0.0000E+00  0.8000E+01
     -6.559  0.0000E+00  0.8000E+01
     -6.487  0.0000E+00  0.8000E+01
     -6.415  0.0000E+00  0.8000E+01
     -6.344  0.0000E+00  0.8000E+01
     -6.272  0.0000E+00  0.8000E+01
     -6.200  0.0000E+00  0.8000E+01
     -6.128  0.0000E+00  0.8000E+01
     -6.056  0.0000E+00  0.8000E+01
     -5.984  0.0000E+00  0.8000E+01
     -5.912  0.0000E+00  0.8000E+01
     -5.840  0.0000E+00  0.8000E+01
     -5.768  0.0000E+00  0.8000E+01
     -5.696  0.0000E+00  0.8000E+01
     -5.624  0.0000E+00  0.8000E+01
     -5.553  0.0000E+00  0.8000E+01
     -5.481  0.0000E+00  0.8000E+01
     -5.409  0.0000E+00  0.8000E+01
     -5.337  0.0000E+00  0.8000E+01
     -5.265  0.0000E+00  0.8000E+01
     -5.193  0.0000E+00  0.8000E+01
     -5.121  0.0000E+00  0.8000E+01
     -5.049  0.0000E+00  0.8000E+01
     -4.977  0.0000E+00  0.8000E+01
     -4.905  0.0000E+00  0.8000E+01
     -4.833  0.0000E+00  0.8000E+01
     -4.761  0.0000E+00  0.8000E+01
     -4.690  0.0000E+00  0.8000E+01
     -4.618  0.0000E+00  0.8000E+01
     -4.546  0.0000E+00  0.8000E+01
     -4.474  0.0000E+00  0.8000E+01
     -4.402  0.0000E+00  0.8000E+01
     -4.330  0.0000E+00  0.8000E+01
     -4.258  0.0000E+00  0.8000E+01
     -4.186  0.0000E+00  0.8000E+01
     -4.114  0.0000E+00  0.8000E+01
     -4.042  0.0000E+00  0.8000E+01
     -3.970  0.0000E+00  0.8000E+01
     -3.899  0.0000E+00  0.8000E+01
     -3.827  0.0000E+00  0.8000E+01
     -3.755  0.0000E+00  0.8000E+01
     -3.683  0.0000E+00  0.8000E+01
     -3.611  0.0000E+00  0.8000E+01
     -3.539  0.0000E+00  0.8000E+01
     -3.467  0.0000E+00  0.8000E+01
     -3.395  0.0000E+00  0.8000E+01
     -3.323  0.0000E+00  0.8000E+01
     -3.251  0.0000E+00  0.8000E+01
     -3.179  0.0000E+00  0.8000E+01
     -3.107  0.0000E+00  0.8000E+01
     -3.036  0.0000E+00  0.8000E+01
     -2.964  0.0000E+00  0.8000E+01
     -2.892  0.0000E+00  0.8000E+01
     -2.820  0.0000E+00  0.8000E+01
     -2.748  0.0000E+00  0.8000E+01
     -2.676  0.0000E+00  0.8000E+01
     -2.604  0.0000E+00  0.8000E+01
     -2.532  0.0000E+00  0.8000E+01
     -2.460  0.0000E+00  0.8000E+01
     -2.388  0.0000E+00  0.8000E+01
     -2.316  0.0000E+00  0.8000E+01
     -2.245  0.0000E+00  0.8000E+01
     -2.173  0.0000E+00  0.8000E+01
     -2.101  0.0000E+00  0.8000E+01
     -2.029  0.0000E+00  0.8000E+01
     -1.957 -0.7882E-27  0.8000E+01
     -1.885 -0.2328E-24  0.8000E+01
     -1.813 -0.5312E-22  0.8000E+01
     -1.741 -0.9335E-20  0.8000E+01
     -1.669 -0.1263E-17  0.8000E+01
     -1.597 -0.1315E-15  0.8000E+01
     -1.525 -0.1054E-13  0.8000E+01
     -1.453 -0.6287E-12  0.8000E+01
     -1.382 -0.2961E-10  0.8000E+01
     -1.310 -0.1069E-08  0.8000E+01
     -1.238 -0.2955E-07  0.8000E+01
     -1.166 -0.6240E-06  0.8000E+01
     -1.094 -0.1004E-04  0.8000E+01
     -1.022 -0.1225E-03  0.8000E+01
     -0.950 -0.1127E-02  0.8000E+01
     -0.878 -0.7754E-02  0.7999E+01
     -0.806 -0.3923E-01  0.7997E+01
     -0.734 -0.1416E+00  0.7986E+01
     -0.662 -0.3399E+00  0.7962E+01
     -0.591 -0.4153E+00  0.7932E+01
     -0.519  0.3449E+00  0.7957E+01
     -0.447  0.2705E+01  0.8151E+01
     -0.375  0.6109E+01  0.8591E+01
     -0.303  0.8242E+01  0.9183E+01
     -0.231  0.7247E+01  0.9705E+01
     -0.159  0.4019E+01  0.9994E+01
     -0.087  0.1066E+01  0.1007E+02
     -0.015 -0.2762E+00  0.1005E+02
      0.057 -0.4479E+00  0.1002E+02
      0.129 -0.3542E+00  0.9993E+01
      0.201 -0.4729E+00  0.9959E+01
      0.272 -0.7554E+00  0.9904E+01
      0.344 -0.5131E+00  0.9868E+01
      0.416  0.1610E+01  0.9983E+01
      0.488  0.6717E+01  0.1047E+02
      0.560  0.1395E+02  0.1147E+02
      0.632  0.1989E+02  0.1290E+02
      0.704  0.2062E+02  0.1438E+02
      0.776  0.1536E+02  0.1549E+02
      0.848  0.7584E+01  0.1603E+02
      0.920  0.1706E+01  0.1616E+02
      0.992 -0.6943E+00  0.1611E+02
      1.063 -0.8584E+00  0.1604E+02
      1.135 -0.4328E+00  0.1601E+02
      1.207 -0.1411E+00  0.1600E+02
      1.279 -0.3268E-01  0.1600E+02
      1.351 -0.5575E-02  0.1600E+02
      1.423 -0.7128E-03  0.1600E+02
      1.495 -0.6900E-04  0.1600E+02
      1.567 -0.5086E-05  0.1600E+02
      1.639 -0.2867E-06  0.1600E+02
      1.711 -0.1239E-07  0.1600E+02
      1.783 -0.4114E-09  0.1600E+02
      1.855 -0.1050E-10  0.1600E+02
      1.926 -0.2084E-12  0.1600E+02
      1.998 -0.3088E-14  0.1600E+02
      2.070  0.0000E+00  0.1600E+02
      2.142  0.0000E+00  0.1600E+02
      2.214  0.0000E+00  0.1600E+02
      2.286  0.0000E+00  0.1600E+02
      2.358  0.0000E+00  0.1600E+02
      2.430  0.0000E+00  0.1600E+02
      2.502  0.0000E+00  0.1600E+02
      2.574  0.0000E+00  0.1600E+02
      2.646  0.0000E+00  0.1600E+02
      2.717  0.0000E+00  0.1600E+02
      2.73089764    -18.99797102  301     -8.86902485      1.00000000
    -18.998  0.0000E+00  0.0000E+00
    -18.926  0.0000E+00  0.0000E+00
    -18.853  0.0000E+00  0.0000E+00
    -18.781  0.0000E+00  0.0000E+00
    -18.708  0.0000E+00  0.0000E+00
    -18.636 -0.4770E-27 -0.3455E-28
    -18.563 -0.1502E-24 -0.1091E-25
    -18.491 -0.3637E-22 -0.2645E-23
    -18.419 -0.6758E-20 -0.4921E-21
    -18.346 -0.9632E-18 -0.7025E-19
    -18.274 -0.1052E-15 -0.7693E-17
    -18.201 -0.8812E-14 -0.6459E-15
    -18.129 -0.5467E-12 -0.4024E-13
    -18.056 -0.2675E-10 -0.1978E-11
    -17.984 -0.9980E-09 -0.7426E-10
    -17.912 -0.2839E-07 -0.2131E-08
    -17.839 -0.6146E-06 -0.4664E-07
    -17.767 -0.1009E-04 -0.7777E-06
    -17.694 -0.1252E-03 -0.9849E-05
    -17.622 -0.1167E-02 -0.9439E-04
    -17.549 -0.8093E-02 -0.6805E-03
    -17.477 -0.4106E-01 -0.3655E-02
    -17.405 -0.1478E+00 -0.1436E-01
    -17.332 -0.3496E+00 -0.3968E-01
    -17.260 -0.4046E+00 -0.6899E-01
    -17.187  0.4380E+00 -0.3727E-01
    -17.115  0.2922E+01  0.1744E+00
    -17.042  0.6348E+01  0.6342E+00
    -16.970  0.8288E+01  0.1234E+01
    -16.898  0.7015E+01  0.1743E+01
    -16.825  0.3684E+01  0.2009E+01
    -16.753  0.8486E+00  0.2071E+01
    -16.680 -0.3276E+00  0.2047E+01
    -16.608 -0.3935E+00  0.2019E+01
    -16.535 -0.1872E+00  0.2005E+01
    -16.463 -0.5666E-01  0.2001E+01
    -16.391 -0.1203E-01  0.2000E+01
    -16.318 -0.1859E-02  0.2000E+01
    -16.246 -0.2130E-03  0.2000E+01
    -16.173 -0.1831E-04  0.2000E+01
    -16.101 -0.1187E-05  0.2000E+01
    -16.028 -0.5838E-07  0.2000E+01
    -15.956 -0.2183E-08  0.2000E+01
    -15.883 -0.6220E-10  0.2000E+01
    -15.811 -0.1355E-11  0.2000E+01
    -15.739 -0.2453E-13  0.2000E+01
    -15.666  0.0000E+00  0.2000E+01
    -15.594  0.0000E+00  0.2000E+01
    -15.521  0.0000E+00  0.2000E+01
    -15.449  0.0000E+00  0.2000E+01
    -15.376  0.0000E+00  0.2000E+01
    -15.304  0.0000E+00  0.2000E+01
    -15.232  0.0000E+00  0.2000E+01
    -15.159  0.0000E+00  0.2000E+01
    -15.087  0.0000E+00  0.2000E+01
    -15.014  0.0000E+00  0.2000E+01
    -14.942  0.0000E+00  0.2000E+01
    -14.869  0.0000E+00  0.2000E+01
    -14.797  0.0000E+00  0.2000E+01
    -14.725  0.0000E+00  0.2000E+01
    -14.652  0.0000E+00  0.2000E+01
    -14.580  0.0000E+00  0.2000E+01
    -14.507  0.0000E+00  0.2000E+01
    -14.435  0.0000E+00  0.2000E+01
    -14.362  0.0000E+00  0.2000E+01
    -14.290  0.0000E+00  0.2000E+01
    -14.218  0.0000E+00  0.2000E+01
    -14.145  0.0000E+00  0.2000E+01
    -14.073  0.0000E+00  0.2000E+01
    -14.000  0.0000E+00  0.2000E+01
    -13.928  0.0000E+00  0.2000E+01
    -13.855  0.0000E+00  0.2000E+01
    -13.783  0.0000E+00  0.2000E+01
    -13.711  0.0000E+00  0.2000E+01
    -13.638  0.0000E+00  0.2000E+01
    -13.566  0.0000E+00  0.2000E+01
    -13.493  0.0000E+00  0.2000E+01
    -13.421  0.0000E+00  0.2000E+01
    -13.348  0.0000E+00  0.2000E+01
    -13.276  0.0000E+00  0.2000E+01
    -13.204  0.0000E+00  0.2000E+01
    -13.131  0.0000E+00  0.2000E+01
    -13.059  0.0000E+00  0.2000E+01
    -12.986  0.0000E+00  0.2000E+01
    -12.914  0.0000E+00  0.2000E+01
    -12.841  0.0000E+00  0.2000E+01
    -12.769  0.0000E+00  0.2000E+01
    -12.697  0.0000E+00  0.2000E+01
    -12.624  0.0000E+00  0.2000E+01
    -12.552  0.0000E+00  0.2000E+01
    -12.479  0.0000E+00  0.2000E+01
    -12.407  0.0000E+00  0.2000E+01
    -12.334  0.0000E+00  0.2000E+01
    -12.262  0.0000E+00  0.2000E+01
    -12.190  0.0000E+00  0.2000E+01
    -12.117  0.0000E+00  0.2000E+01
    -12.045  0.0000E+00  0.2000E+01
    -11.972  0.0000E+00  0.2000E+01
    -11.900  0.0000E+00  0.2000E+01
    -11.827  0.0000E+00  0.2000E+01
    -11.755  0.0000E+00  0.2000E+01
    -11.683  0.0000E+00  0.2000E+01
    -11.610  0.0000E+00  0.2000E+01
    -11.538  0.0000E+00  0.2000E+01
    -11.465  0.0000E+00  0.2000E+01
    -11.393  0.0000E+00  0.2000E+01
    -11.320  0.0000E+00  0.2000E+01
    -11.248 -0.6913E-28  0.2000E+01
    -11.176 -0.2372E-25  0.2000E+01
    -11.103 -0.6263E-23  0.2000E+01
    -11.031 -0.1269E-20  0.2000E+01
    -10.958 -0.1972E-18  0.2000E+01
    -10.886 -0.2349E-16  0.2000E+01
    -10.813 -0.2145E-14  0.2000E+01
    -10.741 -0.1455E-12  0.2000E+01
    -10.669 -0.7764E-11  0.2000E+01
    -10.596 -0.3163E-09  0.2000E+01
    -10.524 -0.9831E-08  0.2000E+01
    -10.451 -0.2327E-06  0.2000E+01
    -10.379 -0.4183E-05  0.2000E+01
    -10.306 -0.5692E-04  0.2000E+01
    -10.234 -0.5832E-03  0.2000E+01
    -10.162 -0.4465E-02  0.2000E+01
    -10.089 -0.2522E-01  0.1998E+01
    -10.017 -0.1027E+00  0.1990E+01
     -9.944 -0.2879E+00  0.1970E+01
     -9.872 -0.4832E+00  0.1935E+01
     -9.799 -0.1515E+00  0.1924E+01
     -9.727  0.1570E+01  0.2037E+01
     -9.655  0.4867E+01  0.2390E+01
     -9.582  0.8492E+01  0.3005E+01
     -9.510  0.1082E+02  0.3789E+01
     -9.437  0.1118E+02  0.4598E+01
     -9.365  0.9539E+01  0.5289E+01
     -9.292  0.6373E+01  0.5751E+01
     -9.220  0.3648E+01  0.6015E+01
     -9.148  0.3693E+01  0.6283E+01
     -9.075  0.6172E+01  0.6730E+01
     -9.003  0.7905E+01  0.7302E+01
     -8.930  0.6596E+01  0.7780E+01
     -8.858  0.3340E+01  0.8022E+01
     -8.785  0.6729E+00  0.8071E+01
     -8.713 -0.3642E+00  0.8044E+01
     -8.641 -0.3782E+00  0.8017E+01
     -8.568 -0.1718E+00  0.8005E+01
     -8.496 -0.5033E-01  0.8001E+01
     -8.423 -0.1039E-01  0.8000E+01
     -8.351 -0.1564E-02  0.8000E+01
     -8.278 -0.1749E-03  0.8000E+01
     -8.206 -0.1467E-04  0.8000E+01
     -8.134 -0.9294E-06  0.8000E+01
     -8.061 -0.4464E-07  0.8000E+01
     -7.989 -0.1631E-08  0.8000E+01
     -7.916 -0.4542E-10  0.8000E+01
     -7.844 -0.9657E-12  0.8000E+01
     -7.771 -0.1839E-13  0.8000E+01
     -7.699  0.0000E+00  0.8000E+01
     -7.627  0.0000E+00  0.8000E+01
     -7.554  0.0000E+00  0.8000E+01
     -7.482  0.0000E+00  0.8000E+01
     -7.409  0.0000E+00  0.8000E+01
     -7.337  0.0000E+00  0.8000E+01
     -7.264  0.0000E+00  0.8000E+01
     -7.192  0.0000E+00  0.8000E+01
     -7.120  0.0000E+00  0.8000E+01
     -7.047  0.0000E+00  0.8000E+01
     -6.975  0.0000E+00  0.8000E+01
     -6.902  0.0000E+00  0.8000E+01
     -6.830  0.0000E+00  0.8000E+01
     -6.757  0.0000E+00  0.8000E+01
     -6.685  0.0000E+00  0.8000E+01
     -6.613  0.0000E+00  0.8000E+01
     -6.540  0.0000E+00  0.8000E+01
     -6.468  0.0000E+00  0.8000E+01
     -6.395  0.0000E+00  0.8000E+01
     -6.323  0.0000E+00  0.8000E+01
     -6.250  0.0000E+00  0.8000E+01
     -6.178  0.0000E+00  0.8000E+01
     -6.106  0.0000E+00  0.8000E+01
     -6.033  0.0000E+00  0.8000E+01
     -5.961  0.0000E+00  0.8000E+01
     -5.888  0.0000E+00  0.8000E+01
     -5.816  0.0000E+00  0.8000E+01
     -5.743  0.0000E+00  0.8000E+01
     -5.671  0.0000E+00  0.8000E+01
     -5.599  0.0000E+00  0.8000E+01
     -5.526  0.0000E+00  0.8000E+01
     -5.454  0.0000E+00  0.8000E+01
     -5.381  0.0000E+00  0.8000E+01
     -5.309  0.0000E+00  0.8000E+01
     -5.236  0.0000E+00  0.8000E+01
     -5.164  0.0000E+00  0.8000E+01
     -5.091  0.0000E+00  0.8000E+01
     -5.019  0.0000E+00  0.8000E+01
     -4.947  0.0000E+00  0.8000E+01
     -4.874  0.0000E+00  0.8000E+01
     -4.802  0.0000E+00  0.8000E+01
     -4.729  0.0000E+00  0.8000E+01
     -4.657  0.0000E+00  0.8000E+01
     -4.584  0.0000E+00  0.8000E+01
     -4.512  0.0000E+00  0.8000E+01
     -4.440  0.0000E+00  0.8000E+01
     -4.367  0.0000E+00  0.8000E+01
     -4.295  0.0000E+00  0.8000E+01
     -4.222  0.0000E+00  0.8000E+01
     -4.150  0.0000E+00  0.8000E+01
     -4.077  0.0000E+00  0.8000E+01
     -4.005  0.0000E+00  0.8000E+01
     -3.933  0.0000E+00  0.8000E+01
     -3.860  0.0000E+00  0.8000E+01
     -3.788  0.0000E+00  0.8000E+01
     -3.715  0.0000E+00  0.8000E+01
     -3.643  0.0000E+00  0.8000E+01
     -3.570  0.0000E+00  0.8000E+01
     -3.498  0.0000E+00  0.8000E+01
     -3.426  0.0000E+00  0.8000E+01
     -3.353  0.0000E+00  0.8000E+01
     -3.281  0.0000E+00  0.8000E+01
     -3.208  0.0000E+00  0.8000E+01
     -3.136  0.0000E+00  0.8000E+01
     -3.063  0.0000E+00  0.8000E+01
     -2.991  0.0000E+00  0.8000E+01
     -2.919  0.0000E+00  0.8000E+01
     -2.846  0.0000E+00  0.8000E+01
     -2.774  0.0000E+00  0.8000E+01
     -2.701  0.0000E+00  0.8000E+01
     -2.629  0.0000E+00  0.8000E+01
     -2.556  0.0000E+00  0.8000E+01
     -2.484  0.0000E+00  0.8000E+01
     -2.412  0.0000E+00  0.8000E+01
     -2.339  0.0000E+00  0.8000E+01
     -2.267  0.0000E+00  0.8000E+01
     -2.194  0.0000E+00  0.8000E+01
     -2.122  0.0000E+00  0.8000E+01
     -2.049  0.0000E+00  0.8000E+01
     -1.977  0.0000E+00  0.8000E+01
     -1.905 -0.6149E-26  0.8000E+01
     -1.832 -0.1721E-23  0.8000E+01
     -1.760 -0.3705E-21  0.8000E+01
     -1.687 -0.6121E-19  0.8000E+01
     -1.615 -0.7756E-17  0.8000E+01
     -1.542 -0.7535E-15  0.8000E+01
     -1.470 -0.5455E-13  0.8000E+01
     -1.398 -0.3091E-11  0.8000E+01
     -1.325 -0.1341E-09  0.8000E+01
     -1.253 -0.4442E-08  0.8000E+01
     -1.180 -0.1121E-06  0.8000E+01
     -1.108 -0.2150E-05  0.8000E+01
     -1.035 -0.3125E-04  0.8000E+01
     -0.963 -0.3424E-03  0.8000E+01
     -0.891 -0.2808E-02  0.8000E+01
     -0.818 -0.1703E-01  0.7999E+01
     -0.746 -0.7482E-01  0.7993E+01
     -0.673 -0.2276E+00  0.7977E+01
     -0.601 -0.4231E+00  0.7946E+01
     -0.528 -0.2068E+00  0.7931E+01
     -0.456  0.1304E+01  0.8025E+01
     -0.384  0.4405E+01  0.8345E+01
     -0.311  0.7521E+01  0.8889E+01
     -0.239  0.8129E+01  0.9478E+01
     -0.166  0.5673E+01  0.9889E+01
     -0.094  0.2281E+01  0.1005E+02
     -0.021  0.1428E+00  0.1006E+02
      0.051 -0.4560E+00  0.1003E+02
      0.123 -0.4039E+00  0.1000E+02
      0.196 -0.4349E+00  0.9971E+01
      0.268 -0.7163E+00  0.9919E+01
      0.341 -0.7540E+00  0.9864E+01
      0.413  0.7605E+00  0.9919E+01
      0.486  0.5290E+01  0.1030E+02
      0.558  0.1258E+02  0.1121E+02
      0.630  0.1937E+02  0.1262E+02
      0.703  0.2124E+02  0.1415E+02
      0.775  0.1662E+02  0.1536E+02
      0.848  0.8714E+01  0.1599E+02
      0.920  0.2292E+01  0.1616E+02
      0.993 -0.5586E+00  0.1612E+02
      1.065 -0.8986E+00  0.1605E+02
      1.137 -0.4818E+00  0.1602E+02
      1.210 -0.1630E+00  0.1600E+02
      1.282 -0.3883E-01  0.1600E+02
      1.355 -0.6776E-02  0.1600E+02
      1.427 -0.8826E-03  0.1600E+02
      1.500 -0.8670E-04  0.1600E+02
      1.572 -0.6464E-05  0.1600E+02
      1.644 -0.3672E-06  0.1600E+02
      1.717 -0.1594E-07  0.1600E+02
      1.789 -0.5299E-09  0.1600E+02
      1.862 -0.1349E-10  0.1600E+02
      1.934 -0.2667E-12  0.1600E+02
      2.007 -0.3066E-14  0.1600E+02
      2.079  0.0000E+00  0.1600E+02
      2.151  0.0000E+00  0.1600E+02
      2.224  0.0000E+00  0.1600E+02
      2.296  0.0000E+00  0.1600E+02
      2.369  0.0000E+00  0.1600E+02
      2.441  0.0000E+00  0.1600E+02
      2.514  0.0000E+00  0.1600E+02
      2.586  0.0000E+00  0.1600E+02
      2.658  0.0000E+00  0.1600E+02
      2.731  0.0000E+00  0.1600E+02
      2.72210898    -18.95824576  301     -8.82143588      1.00000000
    -18.958  0.0000E+00  0.0000E+00
    -18.886  0.0000E+00  0.0000E+00
    -18.814  0.0000E+00  0.0000E+00
    -18.741  0.0000E+00  0.0000E+00
    -18.669  0.0000E+00  0.0000E+00
    -18.597 -0.4476E-27 -0.3235E-28
    -18.525 -0.1396E-24 -0.1012E-25
    -18.452 -0.3352E-22 -0.2432E-23
    -18.380 -0.6183E-20 -0.4493E-21
    -18.308 -0.8759E-18 -0.6375E-19
    -18.236 -0.9524E-16 -0.6946E-17
    -18.163 -0.7945E-14 -0.5811E-15
    -18.091 -0.4928E-12 -0.3620E-13
    -18.019 -0.2403E-10 -0.1773E-11
    -17.946 -0.8966E-09 -0.6657E-10
    -17.874 -0.2554E-07 -0.1912E-08
    -17.802 -0.5542E-06 -0.4197E-07
    -17.730 -0.9138E-05 -0.7023E-06
    -17.657 -0.1140E-03 -0.8941E-05
    -17.585 -0.1070E-02 -0.8625E-04
    -17.513 -0.7481E-02 -0.6269E-03
    -17.441 -0.3838E-01 -0.3401E-02
    -17.368 -0.1402E+00 -0.1353E-01
    -17.296 -0.3391E+00 -0.3803E-01
    -17.224 -0.4157E+00 -0.6807E-01
    -17.152  0.3523E+00 -0.4262E-01
    -17.079  0.2738E+01  0.1553E+00
    -17.007  0.6160E+01  0.6004E+00
    -16.935  0.8258E+01  0.1197E+01
    -16.862  0.7184E+01  0.1716E+01
    -16.790  0.3913E+01  0.1999E+01
    -16.718  0.9900E+00  0.2071E+01
    -16.646 -0.2928E+00  0.2050E+01
    -16.573 -0.4055E+00  0.2020E+01
    -16.501 -0.2014E+00  0.2006E+01
    -16.429 -0.6294E-01  0.2001E+01
    -16.357 -0.1376E-01  0.2000E+01
    -16.284 -0.2187E-02  0.2000E+01
    -16.212 -0.2581E-03  0.2000E+01
    -16.140 -0.2284E-04  0.2000E+01
    -16.068 -0.1526E-05  0.2000E+01
    -15.995 -0.7741E-07  0.2000E+01
    -15.923 -0.2989E-08  0.2000E+01
    -15.851 -0.8803E-10  0.2000E+01
    -15.778 -0.1980E-11  0.2000E+01
    -15.706 -0.3687E-13  0.2000E+01
    -15.634  0.0000E+00  0.2000E+01
    -15.562  0.0000E+00  0.2000E+01
    -15.489  0.0000E+00  0.2000E+01
    -15.417  0.0000E+00  0.2000E+01
    -15.345  0.0000E+00  0.2000E+01
    -15.273  0.0000E+00  0.2000E+01
    -15.200  0.0000E+00  0.2000E+01
    -15.128  0.0000E+00  0.2000E+01
    -15.056  0.0000E+00  0.2000E+01
    -14.984  0.0000E+00  0.2000E+01
    -14.911  0.0000E+00  0.2000E+01
    -14.839  0.0000E+00  0.2000E+01
    -14.767  0.0000E+00  0.2000E+01
    -14.694  0.0000E+00  0.2000E+01
    -14.622  0.0000E+00  0.2000E+01
    -14.550  0.0000E+00  0.2000E+01
    -14.478  0.0000E+00  0.2000E+01
    -14.405  0.0000E+00  0.2000E+01
    -14.333  0.0000E+00  0.2000E+01
    -14.261  0.0000E+00  0.2000E+01
    -14.189  0.0000E+00  0.2000E+01
    -14.116  0.0000E+00  0.2000E+01
    -14.044  0.0000E+00  0.2000E+01
    -13.972  0.0000E+00  0.2000E+01
    -13.899  0.0000E+00  0.2000E+01
    -13.827  0.0000E+00  0.2000E+01
    -13.755  0.0000E+00  0.2000E+01
    -13.683  0.0000E+00  0.2000E+01
    -13.610  0.0000E+00  0.2000E+01
    -13.538  0.0000E+00  0.2000E+01
    -13.466  0.0000E+00  0.2000E+01
    -13.394  0.0000E+00  0.2000E+01
    -13.321  0.0000E+00  0.2000E+01
    -13.249  0.0000E+00  0.2000E+01
    -13.177  0.0000E+00  0.2000E+01
    -13.105  0.0000E+00  0.2000E+01
    -13.032  0.0000E+00  0.2000E+01
    -12.960  0.0000E+00  0.2000E+01
    -12.888  0.0000E+00  0.2000E+01
    -12.815  0.0000E+00  0.2000E+01
    -12.743  0.0000E+00  0.2000E+01
    -12.671  0.0000E+00  0.2000E+01
    -12.599  0.0000E+00  0.2000E+01
    -12.526  0.0000E+00  0.2000E+01
    -12.454  0.0000E+00  0.2000E+01
    -12.382  0.0000E+00  0.2000E+01
    -12.310  0.0000E+00  0.2000E+01
    -12.237  0.0000E+00  0.2000E+01
    -12.165  0.0000E+00  0.2000E+01
    -12.093  0.0000E+00  0.2000E+01
    -12.021  0.0000E+00  0.2000E+01
    -11.948  0.0000E+00  0.2000E+01
    -11.876  0.0000E+00  0.2000E+01
    -11.804  0.0000E+00  0.2000E+01
    -11.731  0.0000E+00  0.2000E+01
    -11.659  0.0000E+00  0.2000E+01
    -11.587  0.0000E+00  0.2000E+01
    -11.515  0.0000E+00  0.2000E+01
    -11.442  0.0000E+00  0.2000E+01
    -11.370  0.0000E+00  0.2000E+01
    -11.298  0.0000E+00  0.2000E+01
    -11.226  0.0000E+00  0.2000E+01
    -11.153 -0.9645E-26  0.2000E+01
    -11.081 -0.2615E-23  0.2000E+01
    -11.009 -0.5464E-21  0.2000E+01
    -10.937 -0.8766E-19  0.2000E+01
    -10.864 -0.1080E-16  0.2000E+01
    -10.792 -0.1021E-14  0.2000E+01
    -10.720 -0.7247E-13  0.2000E+01
    -10.647 -0.3977E-11  0.2000E+01
    -10.575 -0.1684E-09  0.2000E+01
    -10.503 -0.5451E-08  0.2000E+01
    -10.431 -0.1346E-06  0.2000E+01
    -10.358 -0.2528E-05  0.2000E+01
    -10.286 -0.3603E-04  0.2000E+01
    -10.214 -0.3878E-03  0.2000E+01
    -10.142 -0.3131E-02  0.2000E+01
    -10.069 -0.1877E-01  0.1998E+01
     -9.997 -0.8206E-01  0.1992E+01
     -9.925 -0.2522E+00  0.1974E+01
     -9.852 -0.4957E+00  0.1938E+01
     -9.780 -0.3881E+00  0.1910E+01
     -9.708  0.9870E+00  0.1982E+01
     -9.636  0.4276E+01  0.2291E+01
     -9.563  0.8697E+01  0.2919E+01
     -9.491  0.1216E+02  0.3798E+01
     -9.419  0.1277E+02  0.4721E+01
     -9.347  0.1013E+02  0.5453E+01
     -9.274  0.5670E+01  0.5863E+01
     -9.202  0.2158E+01  0.6019E+01
     -9.130  0.1924E+01  0.6158E+01
     -9.058  0.4731E+01  0.6500E+01
     -8.985  0.7620E+01  0.7050E+01
     -8.913  0.7636E+01  0.7602E+01
     -8.841  0.4809E+01  0.7950E+01
     -8.768  0.1611E+01  0.8066E+01
     -8.696 -0.1069E+00  0.8058E+01
     -8.624 -0.4354E+00  0.8027E+01
     -8.552 -0.2554E+00  0.8008E+01
     -8.479 -0.8885E-01  0.8002E+01
     -8.407 -0.2123E-01  0.8000E+01
     -8.335 -0.3664E-02  0.8000E+01
     -8.263 -0.4671E-03  0.8000E+01
     -8.190 -0.4457E-04  0.8000E+01
     -8.118 -0.3207E-05  0.8000E+01
     -8.046 -0.1749E-06  0.8000E+01
     -7.974 -0.7254E-08  0.8000E+01
     -7.901 -0.2295E-09  0.8000E+01
     -7.829 -0.5544E-11  0.8000E+01
     -7.757 -0.1045E-12  0.8000E+01
     -7.684  0.0000E+00  0.8000E+01
     -7.612  0.0000E+00  0.8000E+01
     -7.540  0.0000E+00  0.8000E+01
     -7.468  0.0000E+00  0.8000E+01
     -7.395  0.0000E+00  0.8000E+01
     -7.323  0.0000E+00  0.8000E+01
     -7.251  0.0000E+00  0.8000E+01
     -7.179  0.0000E+00  0.8000E+01
     -7.106  0.0000E+00  0.8000E+01
     -7.034  0.0000E+00  0.8000E+01
     -6.962  0.0000E+00  0.8000E+01
     -6.890  0.0000E+00  0.8000E+01
     -6.817  0.0000E+00  0.8000E+01
     -6.745  0.0000E+00  0.8000E+01
     -6.673  0.0000E+00  0.8000E+01
     -6.600  0.0000E+00  0.8000E+01
     -6.528  0.0000E+00  0.8000E+01
     -6.456  0.0000E+00  0.8000E+01
     -6.384  0.0000E+00  0.8000E+01
     -6.311  0.0000E+00  0.8000E+01
     -6.239  0.0000E+00  0.8000E+01
     -6.167  0.0000E+00  0.8000E+01
     -6.095  0.0000E+00  0.8000E+01
     -6.022  0.0000E+00  0.8000E+01
     -5.950  0.0000E+00  0.8000E+01
     -5.878  0.0000E+00  0.8000E+01
     -5.805  0.0000E+00  0.8000E+01
     -5.733  0.0000E+00  0.8000E+01
     -5.661  0.0000E+00  0.8000E+01
     -5.589  0.0000E+00  0.8000E+01
     -5.516  0.0000E+00  0.8000E+01
     -5.444  0.0000E+00  0.8000E+01
     -5.372  0.0000E+00  0.8000E+01
     -5.300  0.0000E+00  0.8000E+01
     -5.227  0.0000E+00  0.8000E+01
     -5.155  0.0000E+00  0.8000E+01
     -5.083  0.0000E+00  0.8000E+01
     -5.011  0.0000E+00  0.8000E+01
     -4.938  0.0000E+00  0.8000E+01
     -4.866  0.0000E+00  0.8000E+01
     -4.794  0.0000E+00  0.8000E+01
     -4.721  0.0000E+00  0.8000E+01
     -4.649  0.0000E+00  0.8000E+01
     -4.577  0.0000E+00  0.8000E+01
     -4.505  0.0000E+00  0.8000E+01
     -4.432  0.0000E+00  0.8000E+01
     -4.360  0.0000E+00  0.8000E+01
     -4.288  0.0000E+00  0.8000E+01
     -4.216  0.0000E+00  0.8000E+01
     -4.143  0.0000E+00  0.8000E+01
     -4.071  0.0000E+00  0.8000E+01
     -3.999  0.0000E+00  0.8000E+01
     -3.927  0.0000E+00  0.8000E+01
     -3.854  0.0000E+00  0.8000E+01
     -3.782  0.0000E+00  0.8000E+01
     -3.710  0.0000E+00  0.8000E+01
     -3.637  0.0000E+00  0.8000E+01
     -3.565  0.0000E+00  0.8000E+01
     -3.493  0.0000E+00  0.8000E+01
     -3.421  0.0000E+00  0.8000E+01
     -3.348  0.0000E+00  0.8000E+01
     -3.276  0.0000E+00  0.8000E+01
     -3.204  0.0000E+00  0.8000E+01
     -3.132  0.0000E+00  0.8000E+01