    5    5    1    1
  0.2034715E+03  0.9774718E-09  0.1011370E-08  0.1029816E-08  0.2000000E-14
   50.000000000000000     
  CAR 
 unknown system                          
      8      4      8

  0.2500000E+00  0.2500000E+00  0.2500000E+00  0.2500000E+00
    1      -16.748377   1.000000
    2       -9.442774   1.000000
    3       -9.212700   1.000204
    4       -8.809623   0.999856
    5       -0.312481   0.000000
    6        0.535704   0.000000
    7        0.658763   0.000000
    8        0.673987   0.000000

 -0.2500000E+00  0.2500000E+00  0.2500000E+00  0.2500000E+00
    1      -16.748422   1.000000
    2       -9.442673   1.000000
    3       -9.212841   1.000203
    4       -8.809475   0.999693
    5       -0.320641   0.000000
    6        0.535625   0.000000
    7        0.671405   0.000000
    8        0.714327   0.000000

  0.2500000E+00 -0.2500000E+00  0.2500000E+00  0.2500000E+00
    1      -16.748442   1.000000
    2       -9.442953   1.000000
    3       -9.212883   1.000203
    4       -8.809633   0.999868
    5       -0.321295   0.000000
    6        0.566263   0.000000
    7        0.646378   0.000000
    8        0.708782   0.000000

 -0.2500000E+00 -0.2500000E+00  0.2500000E+00  0.2500000E+00
    1      -16.748434   1.000000
    2       -9.442906   1.000000
    3       -9.212761   1.000203
    4       -8.809546   0.999771
    5       -0.320618   0.000000
    6        0.573035   0.000000
    7        0.647759   0.000000
    8        0.696117   0.000000
