       N       E                     dE             d eps       ncg     rms          rms(c)
DAV:   1     0.108401226138E+02    0.10840E+02   -0.19851E+03    96   0.408E+02
DAV:   2    -0.235034423501E+02   -0.34344E+02   -0.34340E+02    64   0.112E+02
DAV:   3    -0.273569990658E+02   -0.38536E+01   -0.38615E+01    64   0.427E+01
DAV:   4    -0.275114201266E+02   -0.15442E+00   -0.15437E+00   128   0.942E+00
DAV:   5    -0.275114690383E+02   -0.48912E-04   -0.48910E-04    96   0.185E-01    0.864E+00
RMM:   6    -0.246534570080E+02    0.28580E+01   -0.52505E+00    64   0.140E+01    0.425E+00
RMM:   7    -0.241670330305E+02    0.48642E+00   -0.11665E+00    64   0.624E+00    0.227E+00
RMM:   8    -0.240189390797E+02    0.14809E+00   -0.16647E-01    64   0.291E+00    0.285E-01
RMM:   9    -0.240128742406E+02    0.60648E-02   -0.11361E-02    64   0.716E-01    0.216E-01
RMM:  10    -0.240117944258E+02    0.10798E-02   -0.47312E-03    64   0.368E-01    0.137E-01
RMM:  11    -0.240076238045E+02    0.41706E-02   -0.26505E-03    64   0.351E-01    0.958E-02
RMM:  12    -0.240108996037E+02   -0.32758E-02   -0.25461E-03    64   0.347E-01    0.127E-01
RMM:  13    -0.240157015295E+02   -0.48019E-02   -0.19037E-03    64   0.254E-01    0.305E-02
RMM:  14    -0.240169558167E+02   -0.12543E-02   -0.27497E-04    64   0.122E-01    0.401E-02
RMM:  15    -0.240195632966E+02   -0.26075E-02   -0.10249E-03    64   0.185E-01    0.451E-02
RMM:  16    -0.240197239884E+02   -0.16069E-03   -0.37797E-05    64   0.402E-02    0.202E-02
RMM:  17    -0.240201942659E+02   -0.47028E-03   -0.19506E-04    64   0.838E-02    0.161E-02
RMM:  18    -0.240202401507E+02   -0.45885E-04   -0.21047E-05    64   0.283E-02    0.579E-03
RMM:  19    -0.240202930129E+02   -0.52862E-04   -0.99246E-06    64   0.209E-02    0.367E-03
RMM:  20    -0.240203058770E+02   -0.12864E-04   -0.48289E-06    64   0.125E-02    0.168E-03
RMM:  21    -0.240203100643E+02   -0.41873E-05   -0.37976E-07    48   0.409E-03    0.631E-04
RMM:  22    -0.240203111385E+02   -0.10742E-05   -0.21834E-07    48   0.310E-03    0.650E-04
RMM:  23    -0.240203118923E+02   -0.75376E-06   -0.68649E-08    44   0.185E-03
    1 T=   108. E= -.23964188E+02 F= -.24020312E+02 E0= -.24034087E+02  EK= 0.56015E-01 SP= 0.00E+00 SK= 0.11E-03
       N       E                     dE             d eps       ncg     rms          rms(c)
DAV:   1    -0.239880690607E+02    0.32242E-01   -0.39295E+00    64   0.182E+01    0.960E-01
RMM:   2    -0.239895812904E+02   -0.15122E-02   -0.11083E-01    64   0.277E+00    0.870E-01
RMM:   3    -0.239830966066E+02    0.64847E-02   -0.34880E-02    64   0.124E+00    0.569E-01
RMM:   4    -0.239785325457E+02    0.45641E-02   -0.89424E-03    64   0.623E-01    0.334E-01
RMM:   5    -0.239766865352E+02    0.18460E-02   -0.51545E-03    64   0.469E-01    0.181E-01
RMM:   6    -0.239770674318E+02   -0.38090E-03   -0.30809E-03    64   0.336E-01    0.153E-01
RMM:   7    -0.239765052878E+02    0.56214E-03   -0.46027E-03    64   0.391E-01    0.644E-02
RMM:   8    -0.239764540358E+02    0.51252E-04   -0.15349E-04    64   0.951E-02    0.443E-02
RMM:   9    -0.239764323528E+02    0.21683E-04   -0.18410E-04    64   0.833E-02    0.190E-02
RMM:  10    -0.239764334770E+02   -0.11242E-05   -0.47723E-05    64   0.457E-02    0.465E-03
RMM:  11    -0.239764950727E+02   -0.61596E-04   -0.20112E-05    64   0.267E-02    0.443E-03
RMM:  12    -0.239765039712E+02   -0.88985E-05   -0.54130E-06    64   0.144E-02    0.221E-03
RMM:  13    -0.239765182046E+02   -0.14233E-04   -0.11942E-06    48   0.673E-03    0.101E-03
RMM:  14    -0.239765199372E+02   -0.17326E-05   -0.34025E-07    48   0.372E-03    0.264E-04
RMM:  15    -0.239765231501E+02   -0.32130E-05   -0.17904E-07    44   0.252E-03    0.332E-04
RMM:  16    -0.239765233250E+02   -0.17485E-06    0.00000E+00    32   0.134E-03
    2 T=    80. E= -.23933820E+02 F= -.23976523E+02 E0= -.23980552E+02  EK= 0.41276E-01 SP= 0.74E-03 SK= 0.69E-03
       N       E                     dE             d eps       ncg     rms          rms(c)
DAV:   1    -0.239967340489E+02   -0.20211E-01   -0.35312E+00    64   0.181E+01    0.387E-01
RMM:   2    -0.240044883982E+02   -0.77543E-02   -0.92999E-02    64   0.208E+00    0.486E-01
RMM:   3    -0.239984826327E+02    0.60058E-02   -0.25982E-02    64   0.947E-01    0.255E-01
RMM:   4    -0.239976571441E+02    0.82549E-03   -0.91378E-03    64   0.625E-01    0.151E-01
RMM:   5    -0.239971380315E+02    0.51911E-03   -0.93282E-04    64   0.205E-01    0.767E-02
RMM:   6    -0.239970644320E+02    0.73600E-04   -0.52010E-04    64   0.141E-01    0.337E-02
RMM:   7    -0.239970736101E+02   -0.91782E-05   -0.15068E-04    64   0.798E-02    0.124E-02
RMM:   8    -0.239971006635E+02   -0.27053E-04   -0.32913E-05    64   0.393E-02    0.710E-03
RMM:   9    -0.239971085619E+02   -0.78985E-05   -0.63830E-06    64   0.167E-02    0.203E-03
RMM:  10    -0.239971161653E+02   -0.76033E-05   -0.28929E-06    56   0.111E-02    0.142E-03
RMM:  11    -0.239971193234E+02   -0.31581E-05   -0.46652E-07    48   0.554E-03    0.166E-03
RMM:  12    -0.239971205771E+02   -0.12537E-05   -0.26865E-07    48   0.350E-03    0.616E-04
RMM:  13    -0.239971213991E+02   -0.82206E-06   -0.23080E-07    48   0.337E-03
    3 T=   107. E= -.23938445E+02 F= -.23997121E+02 E0= -.24001038E+02  EK= 0.55070E-01 SP= 0.19E-02 SK= 0.17E-02
       N       E                     dE             d eps       ncg     rms          rms(c)
DAV:   1    -0.239713267265E+02    0.25794E-01   -0.75297E-01    64   0.883E+00    0.574E-01
RMM:   2    -0.239861433095E+02   -0.14817E-01   -0.13344E-01    64   0.255E+00    0.840E-01
RMM:   3    -0.239689278741E+02    0.17215E-01   -0.97129E-02    64   0.182E+00    0.131E-01
RMM:   4    -0.239692046947E+02   -0.27682E-03   -0.19576E-03    64   0.374E-01    0.751E-02
RMM:   5    -0.239693159150E+02   -0.11122E-03   -0.66334E-04    64   0.152E-01    0.415E-02
RMM:   6    -0.239693293601E+02   -0.13445E-04   -0.23246E-04    64   0.908E-02    0.116E-02
RMM:   7    -0.239693660438E+02   -0.36684E-04   -0.30318E-05    64   0.340E-02    0.351E-03
RMM:   8    -0.239693970989E+02   -0.31055E-04   -0.97256E-06    64   0.185E-02    0.482E-03
RMM:   9    -0.239694102924E+02   -0.13194E-04   -0.76694E-06    64   0.157E-02    0.333E-03
RMM:  10    -0.239694203438E+02   -0.10051E-04   -0.83094E-06    64   0.163E-02    0.433E-03
RMM:  11    -0.239694234579E+02   -0.31141E-05   -0.21367E-06    48   0.917E-03    0.798E-04
RMM:  12    -0.239694259011E+02   -0.24432E-05   -0.15440E-06    48   0.912E-03    0.127E-03
RMM:  13    -0.239694267552E+02   -0.85408E-06   -0.25185E-07    48   0.416E-03
    4 T=   129. E= -.23894464E+02 F= -.23969427E+02 E0= -.23973380E+02  EK= 0.66864E-01 SP= 0.37E-02 SK= 0.44E-02
       N       E                     dE             d eps       ncg     rms          rms(c)
DAV:   1    -0.239587599374E+02    0.10666E-01   -0.17964E+00    64   0.134E+01    0.546E-01
RMM:   2    -0.239840059337E+02   -0.25246E-01   -0.14835E-01    64   0.272E+00    0.989E-01
RMM:   3    -0.239758736078E+02    0.81323E-02   -0.13443E-02    64   0.802E-01    0.853E-01
RMM:   4    -0.239656692292E+02    0.10204E-01   -0.77546E-02    64   0.160E+00    0.560E-01
RMM:   5    -0.239599919610E+02    0.56773E-02   -0.22464E-02    64   0.926E-01    0.435E-01
RMM:   6    -0.239584815770E+02    0.15104E-02   -0.16605E-02    64   0.756E-01    0.157E-01
RMM:   7    -0.239584360632E+02    0.45514E-04   -0.61347E-04    64   0.192E-01    0.183E-01
RMM:   8    -0.239578360420E+02    0.60002E-03   -0.54564E-04    64   0.140E-01    0.680E-02
RMM:   9    -0.239578830389E+02   -0.46997E-04   -0.75930E-04    64   0.162E-01    0.183E-02
RMM:  10    -0.239581015276E+02   -0.21849E-03   -0.10537E-04    64   0.671E-02    0.339E-02
RMM:  11    -0.239581543070E+02   -0.52779E-04   -0.16503E-05    64   0.246E-02    0.133E-02
RMM:  12    -0.239581931279E+02   -0.38821E-04   -0.13459E-05    64   0.224E-02    0.803E-03
RMM:  13    -0.239582019816E+02   -0.88536E-05   -0.31236E-06    56   0.115E-02    0.823E-03
RMM:  14    -0.239582047653E+02   -0.27838E-05   -0.69443E-07    48   0.557E-03    0.220E-03
RMM:  15    -0.239582062519E+02   -0.14866E-05   -0.21773E-07    48   0.338E-03    0.103E-03
RMM:  16    -0.239582071184E+02   -0.86655E-06   -0.24735E-07    48   0.326E-03
    5 T=   132. E= -.23874573E+02 F= -.23958207E+02 E0= -.23966348E+02  EK= 0.68003E-01 SP= 0.66E-02 SK= 0.91E-02
       N       E                     dE             d eps       ncg     rms          rms(c)
DAV:   1    -0.240154831785E+02   -0.57277E-01   -0.10530E+00    64   0.901E+00    0.517E-01
RMM:   2    -0.240111631876E+02    0.43200E-02   -0.62335E-02    64   0.173E+00    0.332E-01
RMM:   3    -0.240118253486E+02   -0.66216E-03   -0.11795E-02    64   0.755E-01    0.328E-01
RMM:   4    -0.240110408118E+02    0.78454E-03   -0.12247E-03    64   0.248E-01    0.278E-01
RMM:   5    -0.240099403152E+02    0.11005E-02   -0.23220E-02    64   0.873E-01    0.109E-01
RMM:   6    -0.240100027690E+02   -0.62454E-04   -0.47907E-04    64   0.166E-01    0.870E-02
RMM:   7    -0.240102467947E+02   -0.24403E-03   -0.11692E-03    64   0.201E-01    0.966E-02
RMM:   8    -0.240104638597E+02   -0.21707E-03   -0.17531E-03    64   0.237E-01    0.116E-01
RMM:   9    -0.240104436055E+02    0.20254E-04   -0.10574E-04    64   0.716E-02    0.124E-01
RMM:  10    -0.240101458136E+02    0.29779E-03   -0.34927E-04    64   0.111E-01    0.110E-01
RMM:  11    -0.240101196670E+02    0.26147E-04   -0.18586E-05    64   0.314E-02    0.109E-01
RMM:  12    -0.240101083064E+02    0.11361E-04   -0.25411E-06    52   0.120E-02    0.110E-01
RMM:  13    -0.240097956442E+02    0.31266E-03   -0.54071E-04    64   0.147E-01    0.965E-02
RMM:  14    -0.240096244079E+02    0.17124E-03   -0.55926E-04    64   0.148E-01    0.529E-02
RMM:  15    -0.240096098553E+02    0.14553E-04   -0.53143E-05    64   0.509E-02    0.353E-02
RMM:  16    -0.240096186347E+02   -0.87794E-05   -0.12526E-05    64   0.253E-02    0.298E-02
RMM:  17    -0.240096545298E+02   -0.35895E-04   -0.16723E-04    64   0.764E-02    0.183E-02
RMM:  18    -0.240096865578E+02   -0.32028E-04   -0.43897E-05    64   0.430E-02    0.147E-02
RMM:  19    -0.240096912198E+02   -0.46619E-05   -0.16394E-05    64   0.255E-02    0.952E-03
RMM:  20    -0.240096941405E+02   -0.29208E-05   -0.30297E-06    60   0.113E-02    0.917E-03
RMM:  21    -0.240096938160E+02    0.32451E-06   -0.18138E-06    52   0.871E-03
    6 T=   161. E= -.23898830E+02 F= -.24009694E+02 E0= -.24018377E+02  EK= 0.83381E-01 SP= 0.10E-01 SK= 0.17E-01
       N       E                     dE             d eps       ncg     rms          rms(c)
DAV:   1    -0.239660467824E+02    0.43647E-01   -0.84192E-01    64   0.101E+01    0.818E-01
RMM:   2    -0.239771121980E+02   -0.11065E-01   -0.22632E-01    64   0.315E+00    0.949E-01
RMM:   3    -0.239957099914E+02   -0.18598E-01   -0.47835E-01    64   0.406E+00    0.109E+00
RMM:   4    -0.239616089058E+02    0.34101E-01   -0.46618E-02    64   0.153E+00    0.593E-01
RMM:   5    -0.239529028517E+02    0.87061E-02   -0.60343E-02    64   0.152E+00    0.356E-01
RMM:   6    -0.239508886684E+02    0.20142E-02   -0.12591E-02    64   0.705E-01    0.174E-01
RMM:   7    -0.239505000875E+02    0.38858E-03   -0.62674E-03    64   0.525E-01    0.905E-02
RMM:   8    -0.239503438630E+02    0.15622E-03   -0.41072E-04    64   0.144E-01    0.503E-02
RMM:   9    -0.239503358873E+02    0.79757E-05   -0.36409E-04    64   0.118E-01    0.286E-02
RMM:  10    -0.239503944435E+02   -0.58556E-04   -0.89972E-05    64   0.602E-02    0.155E-02
RMM:  11    -0.239504111105E+02   -0.16667E-04   -0.91842E-05    64   0.575E-02    0.100E-02
RMM:  12    -0.239504313812E+02   -0.20271E-04   -0.80665E-06    64   0.197E-02    0.686E-03
RMM:  13    -0.239504487810E+02   -0.17400E-04   -0.27655E-05    64   0.344E-02    0.116E-02
RMM:  14    -0.239504488796E+02   -0.98636E-07   -0.10814E-05    64   0.209E-02    0.538E-03
RMM:  15    -0.239504487269E+02    0.15268E-06   -0.37668E-06    60   0.121E-02
    7 T=    88. E= -.23864696E+02 F= -.23950449E+02 E0= -.23955166E+02  EK= 0.45572E-01 SP= 0.16E-01 SK= 0.24E-01
       N       E                     dE             d eps       ncg     rms          rms(c)
DAV:   1    -0.239655417916E+02   -0.15093E-01   -0.91899E-01    64   0.967E+00    0.684E-01
RMM:   2    -0.239598856650E+02    0.56561E-02   -0.40903E-02    64   0.156E+00    0.590E-01
RMM:   3    -0.239718253434E+02   -0.11940E-01   -0.23219E-02    64   0.102E+00    0.852E-01
RMM:   4    -0.239574685582E+02    0.14357E-01   -0.16806E-02    64   0.867E-01    0.368E-01
RMM:   5    -0.239540248100E+02    0.34437E-02   -0.13241E-02    64   0.729E-01    0.110E-01
RMM:   6    -0.239567128031E+02   -0.26880E-02   -0.29020E-03    64   0.358E-01    0.414E-01
RMM:   7    -0.239545797985E+02    0.21330E-02   -0.59587E-03    64   0.488E-01    0.220E-01
RMM:   8    -0.239543226932E+02    0.25711E-03   -0.30091E-04    64   0.131E-01    0.421E-02
RMM:   9    -0.239545622313E+02   -0.23954E-03   -0.20412E-04    64   0.968E-02    0.800E-02
RMM:  10    -0.239545270539E+02    0.35177E-04   -0.44478E-05    64   0.415E-02    0.312E-02
RMM:  11    -0.239545743726E+02   -0.47319E-04   -0.14040E-04    64   0.741E-02    0.456E-02
RMM:  12    -0.239545734949E+02    0.87769E-06   -0.15105E-05    64   0.273E-02    0.345E-02
RMM:  13    -0.239545733001E+02    0.19477E-06   -0.15298E-05    64   0.237E-02    0.925E-03
RMM:  14    -0.239545815333E+02   -0.82332E-05   -0.60026E-06    64   0.161E-02    0.777E-03
RMM:  15    -0.239545833885E+02   -0.18552E-05   -0.22183E-06    52   0.106E-02    0.112E-02
RMM:  16    -0.239545831643E+02    0.22422E-06   -0.53883E-07    48   0.576E-03
    8 T=    86. E= -.23859494E+02 F= -.23954583E+02 E0= -.23962320E+02  EK= 0.44698E-01 SP= 0.22E-01 SK= 0.29E-01
       N       E                     dE             d eps       ncg     rms          rms(c)
DAV:   1    -0.240099670783E+02   -0.55384E-01   -0.11137E+00    64   0.104E+01    0.494E-01
RMM:   2    -0.240880660514E+02   -0.78099E-01   -0.40705E-01    64   0.416E+00    0.142E+00
RMM:   3    -0.240631039128E+02    0.24962E-01   -0.13601E-02    64   0.954E-01    0.115E+00
RMM:   4    -0.240153704058E+02    0.47734E-01   -0.25771E-01    64   0.314E+00    0.536E-01
RMM:   5    -0.240073659727E+02    0.80044E-02   -0.15996E-02    64   0.852E-01    0.321E-01
RMM:   6    -0.240102988436E+02   -0.29329E-02   -0.10709E-02    64   0.626E-01    0.444E-01
RMM:   7    -0.240052699846E+02    0.50289E-02   -0.44632E-03    64   0.423E-01    0.226E-01
RMM:   8    -0.240052695059E+02    0.47873E-06   -0.21149E-04    64   0.107E-01    0.220E-01
RMM:   9    -0.240047368381E+02    0.53267E-03   -0.35879E-04    64   0.126E-01    0.156E-01
RMM:  10    -0.240049769897E+02   -0.24015E-03   -0.43098E-03    64   0.388E-01    0.144E-01
RMM:  11    -0.240043277452E+02    0.64924E-03   -0.12174E-03    64   0.218E-01    0.928E-02
RMM:  12    -0.240042666344E+02    0.61111E-04   -0.25893E-04    64   0.995E-02    0.274E-02
RMM:  13    -0.240044157014E+02   -0.14907E-03   -0.62970E-05    64   0.490E-02    0.121E-02
RMM:  14    -0.240044954541E+02   -0.79753E-04   -0.33813E-05    64   0.367E-02    0.803E-03
RMM:  15    -0.240045139361E+02   -0.18482E-04   -0.38140E-06    60   0.128E-02    0.541E-03
RMM:  16    -0.240045214234E+02   -0.74872E-05   -0.12644E-06    48   0.784E-03    0.514E-03
RMM:  17    -0.240045250614E+02   -0.36381E-05   -0.72496E-07    48   0.610E-03    0.420E-03
RMM:  18    -0.240045265664E+02   -0.15050E-05   -0.21646E-07    48   0.342E-03    0.243E-03
RMM:  19    -0.240045274441E+02   -0.87770E-06   -0.24969E-07    48   0.349E-03
    9 T=   131. E= -.23871870E+02 F= -.24004527E+02 E0= -.24013182E+02  EK= 0.67848E-01 SP= 0.28E-01 SK= 0.37E-01
       N       E                     dE             d eps       ncg     rms          rms(c)
DAV:   1    -0.239374558061E+02    0.67071E-01   -0.10778E+00    64   0.103E+01    0.541E-01
RMM:   2    -0.239338818765E+02    0.35739E-02   -0.26108E-02    64   0.124E+00    0.437E-01
RMM:   3    -0.239318835201E+02    0.19984E-02   -0.10153E-02    64   0.631E-01    0.272E-01
RMM:   4    -0.239345275993E+02   -0.26441E-02   -0.49838E-03    64   0.454E-01    0.309E-01
RMM:   5    -0.239325772213E+02    0.19504E-02   -0.62152E-03    64   0.456E-01    0.190E-01
RMM:   6    -0.239322604672E+02    0.31675E-03   -0.74033E-04    64   0.182E-01    0.133E-01
RMM:   7    -0.239322367377E+02    0.23730E-04   -0.11798E-03    64   0.212E-01    0.849E-02
RMM:   8    -0.239321992552E+02    0.37483E-04   -0.18500E-04    64   0.844E-02    0.690E-02
RMM:   9    -0.239321692457E+02    0.30009E-04   -0.69979E-05    64   0.561E-02    0.568E-02
RMM:  10    -0.239321222572E+02    0.46988E-04   -0.50085E-05    64   0.445E-02    0.422E-02
RMM:  11    -0.239320915469E+02    0.30710E-04   -0.32327E-05    64   0.357E-02    0.299E-02
RMM:  12    -0.239320762089E+02    0.15338E-04   -0.18018E-05    64   0.267E-02    0.211E-02
RMM:  13    -0.239320700949E+02    0.61140E-05   -0.10664E-05    64   0.208E-02    0.146E-02
RMM:  14    -0.239320682248E+02    0.18701E-05   -0.67889E-06    64   0.169E-02    0.880E-03
RMM:  15    -0.239320675699E+02    0.65497E-06   -0.37996E-06    56   0.126E-02
   10 T=    81. E= -.23810422E+02 F= -.23932068E+02 E0= -.23936138E+02  EK= 0.41729E-01 SP= 0.35E-01 SK= 0.45E-01
