 vasp.5.4.4.18Apr17-6-g9f103f2a35 (build Jul 12 2018 13:43:46) complex           
 executed on             LinuxGNU date 2019.06.22  02:17:35
 running on    1 total cores
 distrk:  each k-point on    1 cores,    1 groups
 distr:  one band on NCORES_PER_BAND=   1 cores,    1 groups


--------------------------------------------------------------------------------------------------------


 INCAR:
 POTCAR:    PAW_PBE H 15Jun2001                   
 POTCAR:    PAW_PBE C 08Apr2002                   
 POTCAR:    PAW_PBE H 15Jun2001                   
   VRHFIN =H: ultrasoft test                                                    
   LEXCH  = PE                                                                  
   EATOM  =    12.4884 eV,    0.9179 Ry                                         
                                                                                
   TITEL  = PAW_PBE H 15Jun2001                                                 
   LULTRA =        F    use ultrasoft PP ?                                      
   IUNSCR =        0    unscreen: 0-lin 1-nonlin 2-no                           
   RPACOR =    0.000    partial core radius                                     
   POMASS =    1.000; ZVAL   =    1.000    mass and valenz                      
   RCORE  =    1.100    outmost cutoff radius                                   
   RWIGS  =    0.700; RWIGS  =    0.370    wigner-seitz radius (au A)           
   ENMAX  =  250.000; ENMIN  =  200.000 eV                                      
   RCLOC  =    0.701    cutoff for local pot                                    
   LCOR   =        T    correct aug charges                                     
   LPAW   =        T    paw PP                                                  
   EAUG   =  400.000                                                            
   RMAX   =    1.123    core radius for proj-oper                               
   RAUG   =    1.200    factor for augmentation sphere                          
   RDEP   =    1.112    radius for radial grids                                 
   RDEPT  =    0.926    core radius for aug-charge                              
                                                                                
   Atomic configuration                                                         
    2 entries                                                                   
     n  l   j            E        occ.                                          
     1  0  0.50        -6.4927   1.0000                                         
     2  1  0.50        -3.4015   0.0000                                         
   Description                                                                  
     l       E           TYP  RCUT    TYP  RCUT                                 
     0     -6.4927494     23  1.100                                             
     0      6.8029130     23  1.100                                             
     1     -4.0817478     23  1.100                                             
  local pseudopotential read in
  atomic valenz-charges read in
  non local Contribution for L=           0  read in
    real space projection operators read in
  non local Contribution for L=           0  read in
    real space projection operators read in
  non local Contribution for L=           1  read in
    real space projection operators read in
    PAW grid and wavefunctions read in

   number of l-projection  operators is LMAX  =           3
   number of lm-projection operators is LMMAX =           5

 POTCAR:    PAW_PBE C 08Apr2002                   
   VRHFIN =C: s2p2                                                              
   LEXCH  = PE                                                                  
   EATOM  =   147.1560 eV,   10.8157 Ry                                         
                                                                                
   TITEL  = PAW_PBE C 08Apr2002                                                 
   LULTRA =        F    use ultrasoft PP ?                                      
   IUNSCR =        1    unscreen: 0-lin 1-nonlin 2-no                           
   RPACOR =    1.200    partial core radius                                     
   POMASS =   12.011; ZVAL   =    4.000    mass and valenz                      
   RCORE  =    1.500    outmost cutoff radius                                   
   RWIGS  =    1.630; RWIGS  =    0.863    wigner-seitz radius (au A)           
   ENMAX  =  400.000; ENMIN  =  300.000 eV                                      
   ICORE  =        2    local potential                                         
   LCOR   =        T    correct aug charges                                     
   LPAW   =        T    paw PP                                                  
   EAUG   =  644.873                                                            
   DEXC   =    0.000                                                            
   RMAX   =    1.529    core radius for proj-oper                               
   RAUG   =    1.300    factor for augmentation sphere                          
   RDEP   =    1.501    radius for radial grids                                 
   RDEPT  =    1.300    core radius for aug-charge                              
                                                                                
   Atomic configuration                                                         
    4 entries                                                                   
     n  l   j            E        occ.                                          
     1  0  0.50      -273.3789   2.0000                                         
     2  0  0.50       -13.7508   2.0000                                         
     2  1  0.50        -5.2854   2.0000                                         
     3  2  1.50        -5.4423   0.0000                                         
   Description                                                                  
     l       E           TYP  RCUT    TYP  RCUT                                 
     0    -13.7508458     23  1.200                                             
     0     -8.2022199     23  1.200                                             
     1     -5.2854383     23  1.500                                             
     1     34.0145650     23  1.500                                             
     2     -5.4423304      7  1.500                                             
  local pseudopotential read in
  partial core-charges read in
  partial kinetic energy density read in
  atomic valenz-charges read in
  non local Contribution for L=           0  read in
    real space projection operators read in
  non local Contribution for L=           0  read in
    real space projection operators read in
  non local Contribution for L=           1  read in
    real space projection operators read in
  non local Contribution for L=           1  read in
    real space projection operators read in
    PAW grid and wavefunctions read in

   number of l-projection  operators is LMAX  =           4
   number of lm-projection operators is LMMAX =           8


 ----------------------------------------------------------------------------- 
|                                                                             |
|  ADVICE TO THIS USER RUNNING 'VASP/VAMP'   (HEAR YOUR MASTER'S VOICE ...):  |
|                                                                             |
|      You have a (more or less) 'small supercell' and for smaller cells      |
|      it is recommended  to use the reciprocal-space projection scheme!      |
|      The real space optimization is not  efficient for small cells and it   |
|      is also less accurate ...                                              |
|      Therefore set LREAL=.FALSE. in the  INCAR file                         |
|                                                                             |
 ----------------------------------------------------------------------------- 


 ----------------------------------------------------------------------------- 
|                                                                             |
|           W    W    AA    RRRRR   N    N  II  N    N   GGGG   !!!           |
|           W    W   A  A   R    R  NN   N  II  NN   N  G    G  !!!           |
|           W    W  A    A  R    R  N N  N  II  N N  N  G       !!!           |
|           W WW W  AAAAAA  RRRRR   N  N N  II  N  N N  G  GGG   !            |
|           WW  WW  A    A  R   R   N   NN  II  N   NN  G    G                |
|           W    W  A    A  R    R  N    N  II  N    N   GGGG   !!!           |
|                                                                             |
|     The real-space-projection scheme for the treatment of the nonlocal      |
|     pseudopotentials has been switched on -- but on file POTCAR I have      |
|     not found any entries signalling me that you have ever performed a      |
|     real-space optimization of all nonlocal projectors! BE WARNED that      |
|     a calculation using the real-space-projection scheme together with      |
|     nonlocal projectors which were not real-space-optimized (according      |
|     to the plane-wave-cutoff used in this calculation) might give more      |
|     or less inaccurate results                                              |
|     I hope you know what you are doing                                      |
|                                                                             |
 ----------------------------------------------------------------------------- 

  PAW_PBE H 15Jun2001                   :
 energy of atom  1       EATOM=  -12.4884
 kinetic energy error for atom=    0.0098 (will be added to EATOM!!)
  PAW_PBE C 08Apr2002                   :
 energy of atom  2       EATOM= -147.1560
 kinetic energy error for atom=    0.0288 (will be added to EATOM!!)


 POSCAR:  H  C                                   
  positions in cartesian coordinates
  No initial velocities read in
 exchange correlation table for  LEXCH =        8
   RHO(1)=    0.500       N(1)  =     2000
   RHO(2)=  100.500       N(2)  =     4000



--------------------------------------------------------------------------------------------------------


 ion  position               nearest neighbor table
   1  0.538  0.407  0.361-   5 1.12
   2  0.395  0.480  0.439-   5 1.07
   3  0.552  0.565  0.443-   5 1.08
   4  0.528  0.416  0.539-   5 1.13
   5  0.503  0.467  0.445-   2 1.07   3 1.08   1 1.12   4 1.13


IMPORTANT INFORMATION: All symmetrisations will be switched off!
NOSYMM: (Re-)initialisation of all symmetry stuff for point group C_1.




Automatic generation of k-mesh.
 generate k-points for:    2    2    2
Space group operators:
 irot       det(A)        alpha          n_x          n_y          n_z        tau_x        tau_y        tau_z
    1     1.000000     0.000000     1.000000     0.000000     0.000000     0.000000     0.000000     0.000000
 
 Subroutine IBZKPT returns following result:
 ===========================================
 
 Found      4 irreducible k-points:
 
 Following reciprocal coordinates:
            Coordinates               Weight
  0.250000  0.250000  0.250000      2.000000
 -0.250000  0.250000  0.250000      2.000000
  0.250000 -0.250000  0.250000      2.000000
 -0.250000 -0.250000  0.250000      2.000000
 
 Following cartesian coordinates:
            Coordinates               Weight
  0.025576  0.025321  0.025331      2.000000
 -0.025576  0.024130  0.024245      2.000000
  0.025576 -0.024130  0.024328      2.000000
 -0.025576 -0.025321  0.023242      2.000000
 


--------------------------------------------------------------------------------------------------------




 Dimension of arrays:
   k-points           NKPTS =      4   k-points in BZ     NKDIM =      4   number of bands    NBANDS=      8
   number of dos      NEDOS =    301   number of ions     NIONS =      5
   non local maximal  LDIM  =      4   non local SUM 2l+1 LMDIM =      8
   total plane-waves  NPLWV = 313600
   max r-space proj   IRMAX =    733   max aug-charges    IRDMAX=   3837
   dimension x,y,z NGX =    64 NGY =   70 NGZ =   70
   dimension x,y,z NGXF=   128 NGYF=  140 NGZF=  140
   support grid    NGXF=   128 NGYF=  140 NGZF=  140
   ions per type =               4   1
   NGX,Y,Z   is equivalent  to a cutoff of  10.88, 11.51, 11.30 a.u.
   NGXF,Y,Z  is equivalent  to a cutoff of  21.77, 23.01, 22.60 a.u.

 SYSTEM =  unknown system                          
 POSCAR =   H  C                                   

 Startparameter for this run:
   NWRITE =      2    write-flag & timer
   PREC   = a         normal or accurate (medium, high low for compatibility)
   ISTART =      0    job   : 0-new  1-cont  2-samecut
   ICHARG =      2    charge: 1-file 2-atom 10-const
   ISPIN  =      1    spin polarized calculation?
   LNONCOLLINEAR =      F non collinear calculations
   LSORBIT =      F    spin-orbit coupling
   INIWAV =      1    electr: 0-lowe 1-rand  2-diag
   LASPH  =      F    aspherical Exc in radial PAW
   METAGGA=      F    non-selfconsistent MetaGGA calc.

 Electronic Relaxation 1
   ENCUT  =  400.0 eV  29.40 Ry    5.42 a.u.  15.94 16.49 16.79*2*pi/ulx,y,z
   ENINI  =  400.0     initial cutoff
   ENAUG  =  644.9 eV  augmentation charge cutoff
   NELM   =     60;   NELMIN=  2; NELMDL= -5     # of ELM steps 
   EDIFF  = 0.1E-05   stopping-criterion for ELM
   LREAL  =      T    real-space projection
   NLSPLINE    = F    spline interpolate recip. space projectors
   LCOMPAT=      F    compatible to vasp.4.4
   GGA_COMPAT  = T    GGA compatible to vasp.4.4-vasp.4.6
   LMAXPAW     = -100 max onsite density
   LMAXMIX     =    2 max onsite mixed and CHGCAR
   VOSKOWN=      0    Vosko Wilk Nusair interpolation
   ROPT   =    0.00000   0.00000
 Ionic relaxation
   EDIFFG = 0.1E-04   stopping-criterion for IOM
   NSW    =     10    number of steps for IOM
   NBLOCK =      1;   KBLOCK =      1    inner block; outer block 
   IBRION =      0    ionic relax: 0-MD 1-quasi-New 2-CG
   NFREE  =      0    steps in history (QN), initial steepest desc. (CG)
   ISIF   =      2    stress and relaxation
   IWAVPR =     12    prediction:  0-non 1-charg 2-wave 3-comb
   ISYM   =      0    0-nonsym 1-usesym 2-fastsym
   LCORR  =      T    Harris-Foulkes like correction to forces

   POTIM  = 2.0000    time-step for ionic-motion
   TEIN   =   50.0    initial temperature
   TEBEG  =   50.0;   TEEND  =  50.0 temperature during run
   SMASS  =   0.00    Nose mass-parameter (am)
   estimated Nose-frequenzy (Omega)   =  0.79E+14 period in steps = 40.00 mass=   0.123E-29a.u.
   SCALEE = 1.0000    scale energy and forces
   NPACO  =    256;   APACO  = 16.0  distance and # of slots for P.C.
   PSTRESS=    0.0 pullay stress

  Mass of Ions in am
   POMASS =   1.00 12.01
  Ionic Valenz
   ZVAL   =   1.00  4.00
  Atomic Wigner-Seitz radii
   RWIGS  =  -1.00 -1.00
  virtual crystal weights 
   VCA    =   1.00  1.00
   NELECT =       8.0000    total number of electrons
   NUPDOWN=      -1.0000    fix difference up-down

 DOS related values:
   EMIN   =  10.00;   EMAX   =-10.00  energy-range for DOS
   EFERMI =   0.00
   ISMEAR =     1;   SIGMA  =   0.20  broadening in eV -4-tet -1-fermi 0-gaus

 Electronic relaxation 2 (details)
   IALGO  =     68    algorithm
   LDIAG  =      T    sub-space diagonalisation (order eigenvalues)
   LSUBROT=      F    optimize rotation matrix (better conditioning)
   TURBO    =      0    0=normal 1=particle mesh
   IRESTART =      0    0=no restart 2=restart with 2 vectors
   NREBOOT  =      0    no. of reboots
   NMIN     =      0    reboot dimension
   EREF     =   0.00    reference energy to select bands
   IMIX   =      4    mixing-type and parameters
     AMIX     =   0.40;   BMIX     =  1.00
     AMIX_MAG =   1.60;   BMIX_MAG =  1.00
     AMIN     =   0.10
     WC   =   100.;   INIMIX=   1;  MIXPRE=   1;  MAXMIX=  50

 Intra band minimization:
   WEIMIN = 0.0010     energy-eigenvalue tresh-hold
   EBREAK =  0.31E-07  absolut break condition
   DEPER  =   0.30     relativ break condition  

   TIME   =   0.40     timestep for ELM

  volume/ion in A,a.u.               =     203.47      1373.09
  Fermi-wavevector in a.u.,A,eV,Ry     =   0.325547  0.615195  1.441957  0.105981
  Thomas-Fermi vector in A             =   1.216636

 Write flags
   LWAVE        =      F    write WAVECAR
   LDOWNSAMPLE  =      F    k-point downsampling of WAVECAR
   LCHARG       =      F    write CHGCAR
   LVTOT        =      F    write LOCPOT, total local potential
   LVHAR        =      F    write LOCPOT, Hartree potential only
   LELF         =      F    write electronic localiz. function (ELF)
   LORBIT       =      0    0 simple, 1 ext, 2 COOP (PROOUT), +10 PAW based schemes


 Dipole corrections
   LMONO  =      F    monopole corrections only (constant potential shift)
   LDIPOL =      F    correct potential (dipole corrections)
   IDIPOL =      0    1-x, 2-y, 3-z, 4-all directions 
   EPSILON=  1.0000000 bulk dielectric constant

 Exchange correlation treatment:
   GGA     =    --    GGA type
   LEXCH   =     8    internal setting for exchange type
   VOSKOWN=      0    Vosko Wilk Nusair interpolation
   LHFCALC =     F    Hartree Fock is set to
   LHFONE  =     F    Hartree Fock one center treatment
   AEXX    =    0.0000 exact exchange contribution

 Linear response parameters
   LEPSILON=     F    determine dielectric tensor
   LRPA    =     F    only Hartree local field effects (RPA)
   LNABLA  =     F    use nabla operator in PAW spheres
   LVEL    =     F    velocity operator in full k-point grid
   LINTERFAST=   F  fast interpolation
   KINTER  =     0    interpolate to denser k-point grid
   CSHIFT  =0.1000    complex shift for real part using Kramers Kronig
   OMEGAMAX=  -1.0    maximum frequency
   DEG_THRESHOLD= 0.2000000E-02 threshold for treating states as degnerate
   RTIME   =   -0.100 relaxation time in fs
  (WPLASMAI=    0.000 imaginary part of plasma frequency in eV, 0.658/RTIME)
   DFIELD  = 0.0000000 0.0000000 0.0000000 field for delta impulse in time

 Orbital magnetization related:
   ORBITALMAG=     F  switch on orbital magnetization
   LCHIMAG   =     F  perturbation theory with respect to B field
   DQ        =  0.001000  dq finite difference perturbation B field
   LLRAUG    =     F  two centre corrections for induced B field



--------------------------------------------------------------------------------------------------------


 molecular dynamics for ions
   using nose mass (canonical ensemble)
 charge density and potential will be updated during run
 non-spin polarized calculation
 RMM-DIIS sequential band-by-band and
  variant of blocked Davidson during initial phase
 perform sub-space diagonalisation
    before iterative eigenvector-optimisation
 modified Broyden-mixing scheme, WC =      100.0
 initial mixing is a Kerker type mixing with AMIX =  0.4000 and BMIX =      1.0000
 Hartree-type preconditioning will be used
 using additional bands            4
 real space projection scheme for non local part
 use partial core corrections
 calculate Harris-corrections to forces   (improved forces if not selfconsistent)
 use gradient corrections 
 use of overlap-Matrix (Vanderbilt PP)
 Methfessel and Paxton  Order N= 1 SIGMA  =   0.20


--------------------------------------------------------------------------------------------------------


  energy-cutoff  :      400.00
  volume of cell :     1017.36
      direct lattice vectors                 reciprocal lattice vectors
     9.774718206  0.000000000  0.000000000     0.102304740  0.002381447  0.002170971
    -0.235362698 10.110963033  0.000000000    -0.000000000  0.098902547  0.002006042
    -0.213581230 -0.208789818 10.293823979     0.000000000 -0.000000000  0.097145628

  length of vectors
     9.774718206 10.113702045 10.298156254     0.102355479  0.098922890  0.097145628



 k-points in units of 2pi/SCALE and weight: read from INCAR                         
   0.02557618  0.02532100  0.02533066       0.250
  -0.02557618  0.02413028  0.02424517       0.250
   0.02557618 -0.02413028  0.02432764       0.250
  -0.02557618 -0.02532100  0.02324215       0.250

 k-points in reciprocal lattice and weights: read from INCAR                         
   0.25000000  0.25000000  0.25000000       0.250
  -0.25000000  0.25000000  0.25000000       0.250
   0.25000000 -0.25000000  0.25000000       0.250
  -0.25000000 -0.25000000  0.25000000       0.250

 position of ions in fractional coordinates (direct lattice) 
   0.53849861  0.40672304  0.36086799
   0.39478738  0.48018414  0.43864300
   0.55163667  0.56502520  0.44308287
   0.52805619  0.41630554  0.53929108
   0.50339426  0.46743030  0.44521021

 position of ions in cartesian coordinates  (Angst):
   5.09087009  4.03701602  3.71471153
   3.65223208  4.76353990  4.51531379
   5.16447301  5.62043777  4.56101709
   4.94843517  4.09665140  5.55136744
   4.71543284  4.63321512  4.58291549



--------------------------------------------------------------------------------------------------------


 k-point  1 :   0.2500 0.2500 0.2500  plane waves:   18482
 k-point  2 :  -0.2500 0.2500 0.2500  plane waves:   18476
 k-point  3 :   0.2500-0.2500 0.2500  plane waves:   18501
 k-point  4 :  -0.2500-0.2500 0.2500  plane waves:   18482

 maximum and minimum number of plane-waves per node :     18501    18476

 maximum number of plane-waves:     18501
 maximum index in each direction: 
   IXMAX=   16   IYMAX=   16   IZMAX=   16
   IXMIN=  -16   IYMIN=  -16   IZMIN=  -17


 serial   3D FFT for wavefunctions
 parallel 3D FFT for charge:
    minimum data exchange during FFTs selected (reduces bandwidth)


 total amount of memory used by VASP MPI-rank0   280776. kBytes
=======================================================================

   base      :      30000. kBytes
   nonlr-proj:        149. kBytes
   fftplans  :      86584. kBytes
   grid      :     154542. kBytes
   one-center:         15. kBytes
   wavefun   :       9486. kBytes

     INWAV:  cpu time    0.0000: real time    0.0000
 Broyden mixing: mesh for mixing (old mesh)
   NGX = 31   NGY = 33   NGZ = 33
  (NGX  =128   NGY  =140   NGZ  =140)
  gives a total of  33759 points

 initial charge density was supplied:
 charge density of overlapping atoms calculated
 number of electron       8.0000000 magnetization 
 keeping initial charge density in first step


--------------------------------------------------------------------------------------------------------


 Maximum index for non-local projection operator          658
 Maximum index for augmentation-charges         3524 (set IRDMAX)


--------------------------------------------------------------------------------------------------------


 First call to EWALD:  gamma=   0.176
 Maximum number of real-space cells 3x 3x 3
 Maximum number of reciprocal cells 3x 3x 3

    FEWALD:  cpu time    0.0007: real time    0.0007


--------------------------------------- Iteration      1(   1)  ---------------------------------------


    POTLOK:  cpu time    1.7526: real time    1.7570
    SETDIJ:  cpu time    0.0067: real time    0.0067
     EDDAV:  cpu time    2.9801: real time    2.9872
       DOS:  cpu time    0.0003: real time    0.0003
    --------------------------------------------
      LOOP:  cpu time    4.7398: real time    4.7513

 eigenvalue-minimisations  :    96
 total energy-change (2. order) : 0.1084012E+02  (-0.1985145E+03)
 number of electron       8.0000000 magnetization 
 augmentation part        8.0000000 magnetization 

 Free energy of the ion-electron system (eV)
  ---------------------------------------------------
  alpha Z        PSCENC =         0.23811771
  Ewald energy   TEWEN  =       128.45799505
  -Hartree energ DENC   =      -244.16736304
  -exchange      EXHF   =         0.00000000
  -V(xc)+E(xc)   XCENC  =        21.98326296
  PAW double counting   =       117.05815612     -117.66307307
  entropy T*S    EENTRO =         0.00457154
  eigenvalues    EBANDS =       -92.11329919
  atomic energy  EATOM  =       197.04175453
  Solvation  Ediel_sol  =         0.00000000
  ---------------------------------------------------
  free energy    TOTEN  =        10.84012261 eV

  energy without entropy =       10.83555108  energy(sigma->0) =       10.83859877


--------------------------------------------------------------------------------------------------------




--------------------------------------- Iteration      1(   2)  ---------------------------------------


     EDDAV:  cpu time    2.1501: real time    2.1553
       DOS:  cpu time    0.0002: real time    0.0002
    --------------------------------------------
      LOOP:  cpu time    2.1503: real time    2.1555

 eigenvalue-minimisations  :    64
 total energy-change (2. order) :-0.3434356E+02  (-0.3434048E+02)
 number of electron       8.0000000 magnetization 
 augmentation part        8.0000000 magnetization 

 Free energy of the ion-electron system (eV)
  ---------------------------------------------------
  alpha Z        PSCENC =         0.23811771
  Ewald energy   TEWEN  =       128.45799505
  -Hartree energ DENC   =      -244.16736304
  -exchange      EXHF   =         0.00000000
  -V(xc)+E(xc)   XCENC  =        21.98326296
  PAW double counting   =       117.05815612     -117.66307307
  entropy T*S    EENTRO =         0.00388723
  eigenvalues    EBANDS =      -126.45617985
  atomic energy  EATOM  =       197.04175453
  Solvation  Ediel_sol  =         0.00000000
  ---------------------------------------------------
  free energy    TOTEN  =       -23.50344235 eV

  energy without entropy =      -23.50732958  energy(sigma->0) =      -23.50473809


--------------------------------------------------------------------------------------------------------




--------------------------------------- Iteration      1(   3)  ---------------------------------------


     EDDAV:  cpu time    2.1341: real time    2.1392
       DOS:  cpu time    0.0002: real time    0.0002
    --------------------------------------------
      LOOP:  cpu time    2.1343: real time    2.1394

 eigenvalue-minimisations  :    64
 total energy-change (2. order) :-0.3853557E+01  (-0.3861535E+01)
 number of electron       8.0000000 magnetization 
 augmentation part        8.0000000 magnetization 

 Free energy of the ion-electron system (eV)
  ---------------------------------------------------
  alpha Z        PSCENC =         0.23811771
  Ewald energy   TEWEN  =       128.45799505
  -Hartree energ DENC   =      -244.16736304
  -exchange      EXHF   =         0.00000000
  -V(xc)+E(xc)   XCENC  =        21.98326296
  PAW double counting   =       117.05815612     -117.66307307
  entropy T*S    EENTRO =         0.01462867
  eigenvalues    EBANDS =      -130.32047801
  atomic energy  EATOM  =       197.04175453
  Solvation  Ediel_sol  =         0.00000000
  ---------------------------------------------------
  free energy    TOTEN  =       -27.35699907 eV

  energy without entropy =      -27.37162774  energy(sigma->0) =      -27.36187529


--------------------------------------------------------------------------------------------------------




--------------------------------------- Iteration      1(   4)  ---------------------------------------


     EDDAV:  cpu time    3.7704: real time    3.7793
       DOS:  cpu time    0.0002: real time    0.0002
    --------------------------------------------
      LOOP:  cpu time    3.7706: real time    3.7795

 eigenvalue-minimisations  :   128
 total energy-change (2. order) :-0.1544211E+00  (-0.1543660E+00)
 number of electron       8.0000000 magnetization 
 augmentation part        8.0000000 magnetization 

 Free energy of the ion-electron system (eV)
  ---------------------------------------------------
  alpha Z        PSCENC =         0.23811771
  Ewald energy   TEWEN  =       128.45799505
  -Hartree energ DENC   =      -244.16736304
  -exchange      EXHF   =         0.00000000
  -V(xc)+E(xc)   XCENC  =        21.98326296
  PAW double counting   =       117.05815612     -117.66307307
  entropy T*S    EENTRO =         0.01426926
  eigenvalues    EBANDS =      -130.47453965
  atomic energy  EATOM  =       197.04175453
  Solvation  Ediel_sol  =         0.00000000
  ---------------------------------------------------
  free energy    TOTEN  =       -27.51142013 eV

  energy without entropy =      -27.52568938  energy(sigma->0) =      -27.51617654


--------------------------------------------------------------------------------------------------------




--------------------------------------- Iteration      1(   5)  ---------------------------------------


     EDDAV:  cpu time    2.8754: real time    2.8821
       DOS:  cpu time    0.0002: real time    0.0002
    CHARGE:  cpu time    0.1958: real time    0.1963
    MIXING:  cpu time    0.0395: real time    0.0396
    --------------------------------------------
      LOOP:  cpu time    3.1110: real time    3.1183

 eigenvalue-minimisations  :    96
 total energy-change (2. order) :-0.4891179E-04  (-0.4890998E-04)
 number of electron       8.0000002 magnetization 
 augmentation part        0.2242756 magnetization 

 Broyden mixing:
  rms(total) = 0.86429E+00    rms(broyden)= 0.86402E+00
  rms(prec ) = 0.12171E+01
  weight for this iteration     100.00

 Free energy of the ion-electron system (eV)
  ---------------------------------------------------
  alpha Z        PSCENC =         0.23811771
  Ewald energy   TEWEN  =       128.45799505
  -Hartree energ DENC   =      -244.16736304
  -exchange      EXHF   =         0.00000000
  -V(xc)+E(xc)   XCENC  =        21.98326296
  PAW double counting   =       117.05815612     -117.66307307
  entropy T*S    EENTRO =         0.01426914
  eigenvalues    EBANDS =      -130.47458845
  atomic energy  EATOM  =       197.04175453
  Solvation  Ediel_sol  =         0.00000000
  ---------------------------------------------------
  free energy    TOTEN  =       -27.51146904 eV

  energy without entropy =      -27.52573818  energy(sigma->0) =      -27.51622542


--------------------------------------------------------------------------------------------------------




--------------------------------------- Iteration      1(   6)  ---------------------------------------


    POTLOK:  cpu time    1.7754: real time    1.7796
    SETDIJ:  cpu time    0.0066: real time    0.0066
    EDDIAG:  cpu time    0.4500: real time    0.4511
  RMM-DIIS:  cpu time    1.5172: real time    1.5208
    ORTHCH:  cpu time    0.0122: real time    0.0122
       DOS:  cpu time    0.0002: real time    0.0002
    CHARGE:  cpu time    0.1896: real time    0.1900
    MIXING:  cpu time    0.0416: real time    0.0417
    --------------------------------------------
      LOOP:  cpu time    3.9928: real time    4.0022

 eigenvalue-minimisations  :    64
 total energy-change (2. order) : 0.2858012E+01  (-0.5250519E+00)
 number of electron       8.0000002 magnetization 
 augmentation part        0.1976735 magnetization 

 Broyden mixing:
  rms(total) = 0.42497E+00    rms(broyden)= 0.42486E+00
  rms(prec ) = 0.54905E+00
  weight for this iteration     100.00

 eigenvalues of (default mixing * dielectric matrix)
  average eigenvalue GAMMA=   1.3000
  1.3000

 Free energy of the ion-electron system (eV)
  ---------------------------------------------------
  alpha Z        PSCENC =         0.23811771
  Ewald energy   TEWEN  =       128.45799505
  -Hartree energ DENC   =      -263.75790005
  -exchange      EXHF   =         0.00000000
  -V(xc)+E(xc)   XCENC  =        23.17284202
  PAW double counting   =       235.62849315     -236.40649864
  entropy T*S    EENTRO =         0.02232838
  eigenvalues    EBANDS =      -109.05058917
  atomic energy  EATOM  =       197.04175453
  Solvation  Ediel_sol  =         0.00000000
  ---------------------------------------------------
  free energy    TOTEN  =       -24.65345701 eV

  energy without entropy =      -24.67578539  energy(sigma->0) =      -24.66089980


--------------------------------------------------------------------------------------------------------




--------------------------------------- Iteration      1(   7)  ---------------------------------------


    POTLOK:  cpu time    1.7630: real time    1.7672
    SETDIJ:  cpu time    0.0064: real time    0.0064
    EDDIAG:  cpu time    0.4638: real time    0.4649
  RMM-DIIS:  cpu time    1.5388: real time    1.5424
    ORTHCH:  cpu time    0.0119: real time    0.0119
       DOS:  cpu time    0.0002: real time    0.0002
    CHARGE:  cpu time    0.1915: real time    0.1919
    MIXING:  cpu time    0.0403: real time    0.0404
    --------------------------------------------
      LOOP:  cpu time    4.0159: real time    4.0254

 eigenvalue-minimisations  :    64
 total energy-change (2. order) : 0.4864240E+00  (-0.1166505E+00)
 number of electron       8.0000002 magnetization 
 augmentation part        0.1873489 magnetization 

 Broyden mixing:
  rms(total) = 0.22706E+00    rms(broyden)= 0.22699E+00
  rms(prec ) = 0.27414E+00
  weight for this iteration     100.00

 eigenvalues of (default mixing * dielectric matrix)
  average eigenvalue GAMMA=   1.8328
  1.4522  2.2135

 Free energy of the ion-electron system (eV)
  ---------------------------------------------------
  alpha Z        PSCENC =         0.23811771
  Ewald energy   TEWEN  =       128.45799505
  -Hartree energ DENC   =      -275.25367191
  -exchange      EXHF   =         0.00000000
  -V(xc)+E(xc)   XCENC  =        24.01858589
  PAW double counting   =       357.43973935     -358.25608738
  entropy T*S    EENTRO =         0.03371890
  eigenvalues    EBANDS =       -97.88718518
  atomic energy  EATOM  =       197.04175453
  Solvation  Ediel_sol  =         0.00000000
  ---------------------------------------------------
  free energy    TOTEN  =       -24.16703303 eV

  energy without entropy =      -24.20075193  energy(sigma->0) =      -24.17827266


--------------------------------------------------------------------------------------------------------




--------------------------------------- Iteration      1(   8)  ---------------------------------------


    POTLOK:  cpu time    1.7436: real time    1.7477
    SETDIJ:  cpu time    0.0065: real time    0.0065
    EDDIAG:  cpu time    0.4951: real time    0.4963
  RMM-DIIS:  cpu time    1.5431: real time    1.5467
    ORTHCH:  cpu time    0.0119: real time    0.0120
       DOS:  cpu time    0.0002: real time    0.0002
    CHARGE:  cpu time    0.1816: real time    0.1820
    MIXING:  cpu time    0.0406: real time    0.0407
    --------------------------------------------
      LOOP:  cpu time    4.0226: real time    4.0321

 eigenvalue-minimisations  :    64
 total energy-change (2. order) : 0.1480940E+00  (-0.1664715E-01)
 number of electron       8.0000002 magnetization 
 augmentation part        0.1859071 magnetization 

 Broyden mixing:
  rms(total) = 0.28488E-01    rms(broyden)= 0.28439E-01
  rms(prec ) = 0.56407E-01
  weight for this iteration     100.00

 eigenvalues of (default mixing * dielectric matrix)
  average eigenvalue GAMMA=   1.5633
  2.2273  1.0627  1.4000

 Free energy of the ion-electron system (eV)
  ---------------------------------------------------
  alpha Z        PSCENC =         0.23811771
  Ewald energy   TEWEN  =       128.45799505
  -Hartree energ DENC   =      -280.66378786
  -exchange      EXHF   =         0.00000000
  -V(xc)+E(xc)   XCENC  =        24.55394202
  PAW double counting   =       461.78327469     -462.56873525
  entropy T*S    EENTRO =         0.04077267
  eigenvalues    EBANDS =       -92.90227263
  atomic energy  EATOM  =       197.04175453
  Solvation  Ediel_sol  =         0.00000000
  ---------------------------------------------------
  free energy    TOTEN  =       -24.01893908 eV

  energy without entropy =      -24.05971175  energy(sigma->0) =      -24.03252997


--------------------------------------------------------------------------------------------------------




--------------------------------------- Iteration      1(   9)  ---------------------------------------


    POTLOK:  cpu time    1.7563: real time    1.7606
    SETDIJ:  cpu time    0.0066: real time    0.0066
    EDDIAG:  cpu time    0.5027: real time    0.5039
  RMM-DIIS:  cpu time    1.5306: real time    1.5342
    ORTHCH:  cpu time    0.0116: real time    0.0116
       DOS:  cpu time    0.0002: real time    0.0002
    CHARGE:  cpu time    0.1770: real time    0.1774
    MIXING:  cpu time    0.0418: real time    0.0419
    --------------------------------------------
      LOOP:  cpu time    4.0267: real time    4.0364

 eigenvalue-minimisations  :    64
 total energy-change (2. order) : 0.6064839E-02  (-0.1136068E-02)
 number of electron       8.0000002 magnetization 
 augmentation part        0.1854025 magnetization 

 Broyden mixing:
  rms(total) = 0.21553E-01    rms(broyden)= 0.21534E-01
  rms(prec ) = 0.41961E-01
  weight for this iteration     100.00

 eigenvalues of (default mixing * dielectric matrix)
  average eigenvalue GAMMA=   1.4344
  2.0831  1.5045  1.4159  0.7343

 Free energy of the ion-electron system (eV)
  ---------------------------------------------------
  alpha Z        PSCENC =         0.23811771
  Ewald energy   TEWEN  =       128.45799505
  -Hartree energ DENC   =      -281.89312593
  -exchange      EXHF   =         0.00000000
  -V(xc)+E(xc)   XCENC  =        24.62206085
  PAW double counting   =       464.80187033     -465.58974641
  entropy T*S    EENTRO =         0.04110428
  eigenvalues    EBANDS =       -91.73290466
  atomic energy  EATOM  =       197.04175453
  Solvation  Ediel_sol  =         0.00000000
  ---------------------------------------------------
  free energy    TOTEN  =       -24.01287424 eV

  energy without entropy =      -24.05397852  energy(sigma->0) =      -24.02657567


--------------------------------------------------------------------------------------------------------




--------------------------------------- Iteration      1(  10)  ---------------------------------------


    POTLOK:  cpu time    1.7563: real time    1.7604
    SETDIJ:  cpu time    0.0068: real time    0.0068
    EDDIAG:  cpu time    0.5002: real time    0.5014
  RMM-DIIS:  cpu time    1.5297: real time    1.5334
    ORTHCH:  cpu time    0.0118: real time    0.0118
       DOS:  cpu time    0.0002: real time    0.0002
    CHARGE:  cpu time    0.1721: real time    0.1725
    MIXING:  cpu time    0.0412: real time    0.0413
    --------------------------------------------
      LOOP:  cpu time    4.0183: real time    4.0278

 eigenvalue-minimisations  :    64
 total energy-change (2. order) : 0.1079815E-02  (-0.4731206E-03)
 number of electron       8.0000002 magnetization 
 augmentation part        0.1847917 magnetization 

 Broyden mixing:
  rms(total) = 0.13661E-01    rms(broyden)= 0.13655E-01
  rms(prec ) = 0.29305E-01
  weight for this iteration     100.00

 eigenvalues of (default mixing * dielectric matrix)
  average eigenvalue GAMMA=   1.6721
  2.6850  2.6850  1.2135  1.1451  0.6319

 Free energy of the ion-electron system (eV)
  ---------------------------------------------------
  alpha Z        PSCENC =         0.23811771
  Ewald energy   TEWEN  =       128.45799505
  -Hartree energ DENC   =      -282.77967264
  -exchange      EXHF   =         0.00000000
  -V(xc)+E(xc)   XCENC  =        24.65573493
  PAW double counting   =       461.23738937     -462.02661557
  entropy T*S    EENTRO =         0.04128594
  eigenvalues    EBANDS =       -90.87778374
  atomic energy  EATOM  =       197.04175453
  Solvation  Ediel_sol  =         0.00000000
  ---------------------------------------------------
  free energy    TOTEN  =       -24.01179443 eV

  energy without entropy =      -24.05308037  energy(sigma->0) =      -24.02555641


--------------------------------------------------------------------------------------------------------




--------------------------------------- Iteration      1(  11)  ---------------------------------------


    POTLOK:  cpu time    1.7056: real time    1.7096
    SETDIJ:  cpu time    0.0066: real time    0.0066
    EDDIAG:  cpu time    0.4937: real time    0.4949
  RMM-DIIS:  cpu time    1.5546: real time    1.5583
    ORTHCH:  cpu time    0.0118: real time    0.0118
       DOS:  cpu time    0.0002: real time    0.0002
    CHARGE:  cpu time    0.1719: real time    0.1723
    MIXING:  cpu time    0.0426: real time    0.0427
    --------------------------------------------
      LOOP:  cpu time    3.9870: real time    3.9965

 eigenvalue-minimisations  :    64
 total energy-change (2. order) : 0.4170621E-02  (-0.2650544E-03)
 number of electron       8.0000002 magnetization 
 augmentation part        0.1847227 magnetization 

 Broyden mixing:
  rms(total) = 0.95776E-02    rms(broyden)= 0.95751E-02
  rms(prec ) = 0.16838E-01
  weight for this iteration     100.00

 eigenvalues of (default mixing * dielectric matrix)
  average eigenvalue GAMMA=   1.6263
  2.8880  2.1819  1.5478  1.5478  0.9815  0.6108

 Free energy of the ion-electron system (eV)
  ---------------------------------------------------
  alpha Z        PSCENC =         0.23811771
  Ewald energy   TEWEN  =       128.45799505
  -Hartree energ DENC   =      -283.69379204
  -exchange      EXHF   =         0.00000000
  -V(xc)+E(xc)   XCENC  =        24.68325066
  PAW double counting   =       453.81130753     -454.59791281
  entropy T*S    EENTRO =         0.04122776
  eigenvalues    EBANDS =       -89.98957220
  atomic energy  EATOM  =       197.04175453
  Solvation  Ediel_sol  =         0.00000000
  ---------------------------------------------------
  free energy    TOTEN  =       -24.00762380 eV

  energy without entropy =      -24.04885157  energy(sigma->0) =      -24.02136639


--------------------------------------------------------------------------------------------------------




--------------------------------------- Iteration      1(  12)  ---------------------------------------


    POTLOK:  cpu time    1.6744: real time    1.6783
    SETDIJ:  cpu time    0.0065: real time    0.0065
    EDDIAG:  cpu time    0.4917: real time    0.4928
  RMM-DIIS:  cpu time    1.5389: real time    1.5425
    ORTHCH:  cpu time    0.0118: real time    0.0118
       DOS:  cpu time    0.0002: real time    0.0002
    CHARGE:  cpu time    0.1823: real time    0.1827
    MIXING:  cpu time    0.0446: real time    0.0447
    --------------------------------------------
      LOOP:  cpu time    3.9502: real time    3.9596

 eigenvalue-minimisations  :    64
 total energy-change (2. order) :-0.3275799E-02  (-0.2546054E-03)
 number of electron       8.0000002 magnetization 
 augmentation part        0.1847564 magnetization 

 Broyden mixing:
  rms(total) = 0.12735E-01    rms(broyden)= 0.12731E-01
  rms(prec ) = 0.17085E-01
  weight for this iteration     100.00

 eigenvalues of (default mixing * dielectric matrix)
  average eigenvalue GAMMA=   1.9323
  4.5042  2.7104  2.4121  0.5922  1.1406  1.1406  1.0260

 Free energy of the ion-electron system (eV)
  ---------------------------------------------------
  alpha Z        PSCENC =         0.23811771
  Ewald energy   TEWEN  =       128.45799505
  -Hartree energ DENC   =      -284.13891862
  -exchange      EXHF   =         0.00000000
  -V(xc)+E(xc)   XCENC  =        24.71258460
  PAW double counting   =       459.18224456     -459.96582378
  entropy T*S    EENTRO =         0.04126346
  eigenvalues    EBANDS =       -89.58011711
  atomic energy  EATOM  =       197.04175453
  Solvation  Ediel_sol  =         0.00000000
  ---------------------------------------------------
  free energy    TOTEN  =       -24.01089960 eV

  energy without entropy =      -24.05216307  energy(sigma->0) =      -24.02465409


--------------------------------------------------------------------------------------------------------




--------------------------------------- Iteration      1(  13)  ---------------------------------------


    POTLOK:  cpu time    1.5853: real time    1.5891
    SETDIJ:  cpu time    0.0065: real time    0.0065
    EDDIAG:  cpu time    0.4917: real time    0.4929
  RMM-DIIS:  cpu time    1.5478: real time    1.5515
    ORTHCH:  cpu time    0.0116: real time    0.0116
       DOS:  cpu time    0.0002: real time    0.0002
    CHARGE:  cpu time    0.1875: real time    0.1880
    MIXING:  cpu time    0.0450: real time    0.0451
    --------------------------------------------
      LOOP:  cpu time    3.8756: real time    3.8848

 eigenvalue-minimisations  :    64
 total energy-change (2. order) :-0.4801926E-02  (-0.1903673E-03)
 number of electron       8.0000002 magnetization 
 augmentation part        0.1845467 magnetization 

 Broyden mixing:
  rms(total) = 0.30520E-02    rms(broyden)= 0.30472E-02
  rms(prec ) = 0.54394E-02
  weight for this iteration     100.00

 eigenvalues of (default mixing * dielectric matrix)
  average eigenvalue GAMMA=   1.8007
  4.5901  2.7049  2.0796  1.3171  1.3171  0.5879  0.9705  0.8381

 Free energy of the ion-electron system (eV)
  ---------------------------------------------------
  alpha Z        PSCENC =         0.23811771
  Ewald energy   TEWEN  =       128.45799505
  -Hartree energ DENC   =      -284.47505377
  -exchange      EXHF   =         0.00000000
  -V(xc)+E(xc)   XCENC  =        24.70932701
  PAW double counting   =       454.30385234     -455.09019203
  entropy T*S    EENTRO =         0.04139503
  eigenvalues    EBANDS =       -89.24289741
  atomic energy  EATOM  =       197.04175453
  Solvation  Ediel_sol  =         0.00000000
  ---------------------------------------------------
  free energy    TOTEN  =       -24.01570153 eV

  energy without entropy =      -24.05709656  energy(sigma->0) =      -24.02949987


--------------------------------------------------------------------------------------------------------




--------------------------------------- Iteration      1(  14)  ---------------------------------------


    POTLOK:  cpu time    1.6096: real time    1.6134
    SETDIJ:  cpu time    0.0066: real time    0.0066
    EDDIAG:  cpu time    0.4657: real time    0.4668
  RMM-DIIS:  cpu time    1.5908: real time    1.5946
    ORTHCH:  cpu time    0.0124: real time    0.0124
       DOS:  cpu time    0.0002: real time    0.0002
    CHARGE:  cpu time    0.2048: real time    0.2053
    MIXING:  cpu time    0.0485: real time    0.0486
    --------------------------------------------
      LOOP:  cpu time    3.9386: real time    3.9479

 eigenvalue-minimisations  :    64
 total energy-change (2. order) :-0.1254287E-02  (-0.2749675E-04)
 number of electron       8.0000002 magnetization 
 augmentation part        0.1845114 magnetization 

 Broyden mixing:
  rms(total) = 0.40131E-02    rms(broyden)= 0.40122E-02
  rms(prec ) = 0.57690E-02
  weight for this iteration     100.00

 eigenvalues of (default mixing * dielectric matrix)
  average eigenvalue GAMMA=   1.9063
  4.6625  2.8583  2.8583  1.8220  1.2375  1.2375  1.0598  0.5906  0.8304

 Free energy of the ion-electron system (eV)
  ---------------------------------------------------
  alpha Z        PSCENC =         0.23811771
  Ewald energy   TEWEN  =       128.45799505
  -Hartree energ DENC   =      -284.41563088
  -exchange      EXHF   =         0.00000000
  -V(xc)+E(xc)   XCENC  =        24.70245126
  PAW double counting   =       453.54176113     -454.32817367
  entropy T*S    EENTRO =         0.04134731
  eigenvalues    EBANDS =       -89.29657826
  atomic energy  EATOM  =       197.04175453
  Solvation  Ediel_sol  =         0.00000000
  ---------------------------------------------------
  free energy    TOTEN  =       -24.01695582 eV

  energy without entropy =      -24.05830312  energy(sigma->0) =      -24.03073825


--------------------------------------------------------------------------------------------------------




--------------------------------------- Iteration      1(  15)  ---------------------------------------


    POTLOK:  cpu time    1.5460: real time    1.5497
    SETDIJ:  cpu time    0.0065: real time    0.0065
    EDDIAG:  cpu time    0.4665: real time    0.4677
  RMM-DIIS:  cpu time    1.5976: real time    1.6014
    ORTHCH:  cpu time    0.0119: real time    0.0119
       DOS:  cpu time    0.0002: real time    0.0002
    CHARGE:  cpu time    0.2171: real time    0.2176
    MIXING:  cpu time    0.0484: real time    0.0486
    --------------------------------------------
      LOOP:  cpu time    3.8943: real time    3.9036

 eigenvalue-minimisations  :    64
 total energy-change (2. order) :-0.2607480E-02  (-0.1024942E-03)
 number of electron       8.0000002 magnetization 
 augmentation part        0.1845990 magnetization 

 Broyden mixing:
  rms(total) = 0.45078E-02    rms(broyden)= 0.45060E-02
  rms(prec ) = 0.55630E-02
  weight for this iteration     100.00

 eigenvalues of (default mixing * dielectric matrix)
  average eigenvalue GAMMA=   1.9257
  5.7224  3.4379  2.4890  1.5236  1.5236  1.3367  1.0176  1.0176  0.5942  0.5942

 Free energy of the ion-electron system (eV)
  ---------------------------------------------------
  alpha Z        PSCENC =         0.23811771
  Ewald energy   TEWEN  =       128.45799505
  -Hartree energ DENC   =      -284.37649304
  -exchange      EXHF   =         0.00000000
  -V(xc)+E(xc)   XCENC  =        24.70100124
  PAW double counting   =       456.12374081     -456.90843361
  entropy T*S    EENTRO =         0.04126411
  eigenvalues    EBANDS =       -89.33851010
  atomic energy  EATOM  =       197.04175453
  Solvation  Ediel_sol  =         0.00000000
  ---------------------------------------------------
  free energy    TOTEN  =       -24.01956330 eV

  energy without entropy =      -24.06082740  energy(sigma->0) =      -24.03331800


--------------------------------------------------------------------------------------------------------




--------------------------------------- Iteration      1(  16)  ---------------------------------------


    POTLOK:  cpu time    1.5276: real time    1.5312
    SETDIJ:  cpu time    0.0064: real time    0.0065
    EDDIAG:  cpu time    0.4567: real time    0.4578
  RMM-DIIS:  cpu time    1.6056: real time    1.6094
    ORTHCH:  cpu time    0.0124: real time    0.0124
       DOS:  cpu time    0.0002: real time    0.0002
    CHARGE:  cpu time    0.2137: real time    0.2142
    MIXING:  cpu time    0.0505: real time    0.0506
    --------------------------------------------
      LOOP:  cpu time    3.8731: real time    3.8823

 eigenvalue-minimisations  :    64
 total energy-change (2. order) :-0.1606919E-03  (-0.3779653E-05)
 number of electron       8.0000002 magnetization 
 augmentation part        0.1845857 magnetization 

 Broyden mixing:
  rms(total) = 0.20208E-02    rms(broyden)= 0.20205E-02
  rms(prec ) = 0.26727E-02
  weight for this iteration     100.00

 eigenvalues of (default mixing * dielectric matrix)
  average eigenvalue GAMMA=   2.1293
  6.8485  4.0989  2.7579  2.4453  1.6121  1.2351  1.0899  1.0899  1.0047  0.5912
  0.6485

 Free energy of the ion-electron system (eV)
  ---------------------------------------------------
  alpha Z        PSCENC =         0.23811771
  Ewald energy   TEWEN  =       128.45799505
  -Hartree energ DENC   =      -284.38380176
  -exchange      EXHF   =         0.00000000
  -V(xc)+E(xc)   XCENC  =        24.69862459
  PAW double counting   =       455.27196318     -456.05726655
  entropy T*S    EENTRO =         0.04130095
  eigenvalues    EBANDS =       -89.32841168
  atomic energy  EATOM  =       197.04175453
  Solvation  Ediel_sol  =         0.00000000
  ---------------------------------------------------
  free energy    TOTEN  =       -24.01972399 eV

  energy without entropy =      -24.06102494  energy(sigma->0) =      -24.03349097


--------------------------------------------------------------------------------------------------------




--------------------------------------- Iteration      1(  17)  ---------------------------------------


    POTLOK:  cpu time    1.5449: real time    1.5487
    SETDIJ:  cpu time    0.0064: real time    0.0064
    EDDIAG:  cpu time    0.4691: real time    0.4703
  RMM-DIIS:  cpu time    1.5781: real time    1.5818
    ORTHCH:  cpu time    0.0125: real time    0.0125
       DOS:  cpu time    0.0002: real time    0.0002
    CHARGE:  cpu time    0.2102: real time    0.2107
    MIXING:  cpu time    0.0507: real time    0.0508
    --------------------------------------------
      LOOP:  cpu time    3.8721: real time    3.8814

 eigenvalue-minimisations  :    64
 total energy-change (2. order) :-0.4702775E-03  (-0.1950620E-04)
 number of electron       8.0000002 magnetization 
 augmentation part        0.1845066 magnetization 

 Broyden mixing:
  rms(total) = 0.16128E-02    rms(broyden)= 0.16122E-02
  rms(prec ) = 0.20394E-02
  weight for this iteration     100.00

 eigenvalues of (default mixing * dielectric matrix)
  average eigenvalue GAMMA=   2.1008
  7.2045  4.3942  2.4580  2.4580  1.6494  1.6494  1.1035  1.1035  0.9799  0.9799
  0.5918  0.6379

 Free energy of the ion-electron system (eV)
  ---------------------------------------------------
  alpha Z        PSCENC =         0.23811771
  Ewald energy   TEWEN  =       128.45799505
  -Hartree energ DENC   =      -284.41698424
  -exchange      EXHF   =         0.00000000
  -V(xc)+E(xc)   XCENC  =        24.69790571
  PAW double counting   =       454.70877430     -455.49476517
  entropy T*S    EENTRO =         0.04131883
  eigenvalues    EBANDS =       -89.29431098
  atomic energy  EATOM  =       197.04175453
  Solvation  Ediel_sol  =         0.00000000
  ---------------------------------------------------
  free energy    TOTEN  =       -24.02019427 eV

  energy without entropy =      -24.06151310  energy(sigma->0) =      -24.03396721


--------------------------------------------------------------------------------------------------------




--------------------------------------- Iteration      1(  18)  ---------------------------------------


    POTLOK:  cpu time    1.5368: real time    1.5404
    SETDIJ:  cpu time    0.0065: real time    0.0065
    EDDIAG:  cpu time    0.4610: real time    0.4621
  RMM-DIIS:  cpu time    1.5716: real time    1.5753
    ORTHCH:  cpu time    0.0121: real time    0.0121
       DOS:  cpu time    0.0002: real time    0.0002
    CHARGE:  cpu time    0.1988: real time    0.1992
    MIXING:  cpu time    0.0527: real time    0.0528
    --------------------------------------------
      LOOP:  cpu time    3.8395: real time    3.8486

 eigenvalue-minimisations  :    64
 total energy-change (2. order) :-0.4588475E-04  (-0.2104716E-05)
 number of electron       8.0000002 magnetization 
 augmentation part        0.1845229 magnetization 

 Broyden mixing:
  rms(total) = 0.57851E-03    rms(broyden)= 0.57744E-03
  rms(prec ) = 0.78244E-03
  weight for this iteration     100.00

 eigenvalues of (default mixing * dielectric matrix)
  average eigenvalue GAMMA=   2.1777
  7.7896  4.7218  2.6064  2.6064  2.3797  1.5107  1.0985  1.0985  1.2283  1.1336
  0.9164  0.5922  0.6285

 Free energy of the ion-electron system (eV)
  ---------------------------------------------------
  alpha Z        PSCENC =         0.23811771
  Ewald energy   TEWEN  =       128.45799505
  -Hartree energ DENC   =      -284.38526195
  -exchange      EXHF   =         0.00000000
  -V(xc)+E(xc)   XCENC  =        24.69672395
  PAW double counting   =       454.76721654     -455.55283679
  entropy T*S    EENTRO =         0.04132816
  eigenvalues    EBANDS =       -89.32527735
  atomic energy  EATOM  =       197.04175453
  Solvation  Ediel_sol  =         0.00000000
  ---------------------------------------------------
  free energy    TOTEN  =       -24.02024015 eV

  energy without entropy =      -24.06156831  energy(sigma->0) =      -24.03401621


--------------------------------------------------------------------------------------------------------




--------------------------------------- Iteration      1(  19)  ---------------------------------------


    POTLOK:  cpu time    1.5555: real time    1.5592
    SETDIJ:  cpu time    0.0065: real time    0.0065
    EDDIAG:  cpu time    0.4660: real time    0.4671
  RMM-DIIS:  cpu time    1.5592: real time    1.5629
    ORTHCH:  cpu time    0.0119: real time    0.0119
       DOS:  cpu time    0.0002: real time    0.0002
    CHARGE:  cpu time    0.2009: real time    0.2014
    MIXING:  cpu time    0.0507: real time    0.0508
    --------------------------------------------
      LOOP:  cpu time    3.8509: real time    3.8600

 eigenvalue-minimisations  :    64
 total energy-change (2. order) :-0.5286227E-04  (-0.9924611E-06)
 number of electron       8.0000002 magnetization 
 augmentation part        0.1845361 magnetization 

 Broyden mixing:
  rms(total) = 0.36662E-03    rms(broyden)= 0.36608E-03
  rms(prec ) = 0.49914E-03
  weight for this iteration     100.00

 eigenvalues of (default mixing * dielectric matrix)
  average eigenvalue GAMMA=   2.2289
  8.2336  5.1139  3.4236  2.4315  2.0412  2.0412  1.5303  1.1160  1.1160  1.0046
  1.0046  0.9292  0.5923  0.6270

 Free energy of the ion-electron system (eV)
  ---------------------------------------------------
  alpha Z        PSCENC =         0.23811771
  Ewald energy   TEWEN  =       128.45799505
  -Hartree energ DENC   =      -284.38875854
  -exchange      EXHF   =         0.00000000
  -V(xc)+E(xc)   XCENC  =        24.69721531
  PAW double counting   =       454.83362698     -455.61912861
  entropy T*S    EENTRO =         0.04132702
  eigenvalues    EBANDS =       -89.32244247
  atomic energy  EATOM  =       197.04175453
  Solvation  Ediel_sol  =         0.00000000
  ---------------------------------------------------
  free energy    TOTEN  =       -24.02029301 eV

  energy without entropy =      -24.06162004  energy(sigma->0) =      -24.03406869


--------------------------------------------------------------------------------------------------------




--------------------------------------- Iteration      1(  20)  ---------------------------------------


    POTLOK:  cpu time    1.6175: real time    1.6214
    SETDIJ:  cpu time    0.0065: real time    0.0065
    EDDIAG:  cpu time    0.4702: real time    0.4713
  RMM-DIIS:  cpu time    1.5323: real time    1.5359
    ORTHCH:  cpu time    0.0117: real time    0.0117
       DOS:  cpu time    0.0002: real time    0.0002
    CHARGE:  cpu time    0.2034: real time    0.2039
    MIXING:  cpu time    0.0540: real time    0.0541
    --------------------------------------------
      LOOP:  cpu time    3.8958: real time    3.9050

 eigenvalue-minimisations  :    64
 total energy-change (2. order) :-0.1286403E-04  (-0.4828913E-06)
 number of electron       8.0000002 magnetization 
 augmentation part        0.1845238 magnetization 

 Broyden mixing:
  rms(total) = 0.16784E-03    rms(broyden)= 0.16779E-03
  rms(prec ) = 0.22461E-03
  weight for this iteration     100.00

 eigenvalues of (default mixing * dielectric matrix)
  average eigenvalue GAMMA=   2.2907
  8.5859  5.3772  3.8345  2.7619  2.4373  1.7607  1.7607  1.5153  1.0876  1.0876
  1.0089  0.9617  0.9617  0.5923  0.6271

 Free energy of the ion-electron system (eV)
  ---------------------------------------------------
  alpha Z        PSCENC =         0.23811771
  Ewald energy   TEWEN  =       128.45799505
  -Hartree energ DENC   =      -284.40483532
  -exchange      EXHF   =         0.00000000
  -V(xc)+E(xc)   XCENC  =        24.69790843
  PAW double counting   =       454.82253752     -455.60819073
  entropy T*S    EENTRO =         0.04132449
  eigenvalues    EBANDS =       -89.30691757
  atomic energy  EATOM  =       197.04175453
  Solvation  Ediel_sol  =         0.00000000
  ---------------------------------------------------
  free energy    TOTEN  =       -24.02030588 eV

  energy without entropy =      -24.06163037  energy(sigma->0) =      -24.03408071


--------------------------------------------------------------------------------------------------------




--------------------------------------- Iteration      1(  21)  ---------------------------------------


    POTLOK:  cpu time    1.6271: real time    1.6309
    SETDIJ:  cpu time    0.0065: real time    0.0065
    EDDIAG:  cpu time    0.4538: real time    0.4549
  RMM-DIIS:  cpu time    1.1631: real time    1.1659
    ORTHCH:  cpu time    0.0118: real time    0.0119
       DOS:  cpu time    0.0002: real time    0.0002
    CHARGE:  cpu time    0.1944: real time    0.1948
    MIXING:  cpu time    0.0572: real time    0.0573
    --------------------------------------------
      LOOP:  cpu time    3.5141: real time    3.5224

 eigenvalue-minimisations  :    48
 total energy-change (2. order) :-0.4187310E-05  (-0.3797552E-07)
 number of electron       8.0000002 magnetization 
 augmentation part        0.1845262 magnetization 

 Broyden mixing:
  rms(total) = 0.63061E-04    rms(broyden)= 0.63029E-04
  rms(prec ) = 0.86590E-04
  weight for this iteration     100.00

 eigenvalues of (default mixing * dielectric matrix)
  average eigenvalue GAMMA=   2.2688
  8.6145  5.5135  3.7341  2.9179  2.1793  2.1793  2.1836  1.3992  1.1038  1.1038
  1.2027  1.0396  0.9551  0.9551  0.5922  0.6274

 Free energy of the ion-electron system (eV)
  ---------------------------------------------------
  alpha Z        PSCENC =         0.23811771
  Ewald energy   TEWEN  =       128.45799505
  -Hartree energ DENC   =      -284.40047024
  -exchange      EXHF   =         0.00000000
  -V(xc)+E(xc)   XCENC  =        24.69774405
  PAW double counting   =       454.85059951     -455.63619839
  entropy T*S    EENTRO =         0.04132513
  eigenvalues    EBANDS =       -89.31117741
  atomic energy  EATOM  =       197.04175453
  Solvation  Ediel_sol  =         0.00000000
  ---------------------------------------------------
  free energy    TOTEN  =       -24.02031006 eV

  energy without entropy =      -24.06163519  energy(sigma->0) =      -24.03408511


--------------------------------------------------------------------------------------------------------




--------------------------------------- Iteration      1(  22)  ---------------------------------------


    POTLOK:  cpu time    1.6418: real time    1.6457
    SETDIJ:  cpu time    0.0065: real time    0.0065
    EDDIAG:  cpu time    0.4520: real time    0.4531
  RMM-DIIS:  cpu time    1.1246: real time    1.1272
    ORTHCH:  cpu time    0.0118: real time    0.0118
       DOS:  cpu time    0.0002: real time    0.0002
    CHARGE:  cpu time    0.1956: real time    0.1960
    MIXING:  cpu time    0.0561: real time    0.0562
    --------------------------------------------
      LOOP:  cpu time    3.4885: real time    3.4968

 eigenvalue-minimisations  :    48
 total energy-change (2. order) :-0.1074213E-05  (-0.2183395E-07)
 number of electron       8.0000002 magnetization 
 augmentation part        0.1845288 magnetization 

 Broyden mixing:
  rms(total) = 0.64999E-04    rms(broyden)= 0.64938E-04
  rms(prec ) = 0.88427E-04
  weight for this iteration     100.00

 eigenvalues of (default mixing * dielectric matrix)
  average eigenvalue GAMMA=   2.2818
  8.6617  5.5400  4.2733  2.7615  2.7615  2.3505  1.8040  1.8040  1.5262  1.0889
  1.0889  0.5922  0.6275  0.9716  0.9716  0.9831  0.9831

 Free energy of the ion-electron system (eV)
  ---------------------------------------------------
  alpha Z        PSCENC =         0.23811771
  Ewald energy   TEWEN  =       128.45799505
  -Hartree energ DENC   =      -284.39815262
  -exchange      EXHF   =         0.00000000
  -V(xc)+E(xc)   XCENC  =        24.69759920
  PAW double counting   =       454.85145207     -455.63703565
  entropy T*S    EENTRO =         0.04132445
  eigenvalues    EBANDS =       -89.31336587
  atomic energy  EATOM  =       197.04175453
  Solvation  Ediel_sol  =         0.00000000
  ---------------------------------------------------
  free energy    TOTEN  =       -24.02031114 eV

  energy without entropy =      -24.06163558  energy(sigma->0) =      -24.03408595


--------------------------------------------------------------------------------------------------------




--------------------------------------- Iteration      1(  23)  ---------------------------------------


    POTLOK:  cpu time    1.6515: real time    1.6554
    SETDIJ:  cpu time    0.0064: real time    0.0064
    EDDIAG:  cpu time    0.4471: real time    0.4482
  RMM-DIIS:  cpu time    1.1115: real time    1.1141
    ORTHCH:  cpu time    0.0122: real time    0.0122
       DOS:  cpu time    0.0002: real time    0.0002
    --------------------------------------------
      LOOP:  cpu time    3.2289: real time    3.2365

 eigenvalue-minimisations  :    44
 total energy-change (2. order) :-0.7537650E-06  (-0.6864861E-08)
 number of electron       8.0000002 magnetization 
 augmentation part        0.1845288 magnetization 

 Free energy of the ion-electron system (eV)
  ---------------------------------------------------
  alpha Z        PSCENC =         0.23811771
  Ewald energy   TEWEN  =       128.45799505
  -Hartree energ DENC   =      -284.40053093
  -exchange      EXHF   =         0.00000000
  -V(xc)+E(xc)   XCENC  =        24.69770241
  PAW double counting   =       454.84957023     -455.63517533
  entropy T*S    EENTRO =         0.04132407
  eigenvalues    EBANDS =       -89.31106963
  atomic energy  EATOM  =       197.04175453
  Solvation  Ediel_sol  =         0.00000000
  ---------------------------------------------------
  free energy    TOTEN  =       -24.02031189 eV

  energy without entropy =      -24.06163596  energy(sigma->0) =      -24.03408658


--------------------------------------------------------------------------------------------------------




 average (electrostatic) potential at core
  the test charge radii are     0.5201  0.6991
  (the norm of the test charge is              1.0000)
       1 -41.3866       2 -41.6075       3 -41.4728       4 -41.3882       5 -57.9796



 E-fermi :  -9.0628     XC(G=0):  -0.6903     alpha+bet : -0.2071


 k-point     1 :       0.2500    0.2500    0.2500
  band No.  band energies     occupation 
      1     -16.8563      2.00000
      2      -9.3111      2.07083
      3      -9.2927      2.06899
      4      -9.1874      1.86010
      5      -0.3190      0.00000
      6       0.5397      0.00000
      7       0.6459      0.00000
      8       0.6799      0.00000

 k-point     2 :      -0.2500    0.2500    0.2500
  band No.  band energies     occupation 
      1     -16.8564      2.00000
      2      -9.3111      2.07083
      3      -9.2926      2.06898
      4      -9.1874      1.86027
      5      -0.3271      0.00000
      6       0.5463      0.00000
      7       0.6543      0.00000
      8       0.7175      0.00000

 k-point     3 :       0.2500   -0.2500    0.2500
  band No.  band energies     occupation 
      1     -16.8564      2.00000
      2      -9.3112      2.07082
      3      -9.2927      2.06900
      4      -9.1874      1.86040
      5      -0.3265      0.00000
      6       0.5459      0.00000
      7       0.6632      0.00000
      8       0.7079      0.00000

 k-point     4 :      -0.2500   -0.2500    0.2500
  band No.  band energies     occupation 
      1     -16.8564      2.00000
      2      -9.3111      2.07083
      3      -9.2926      2.06898
      4      -9.1873      1.85996
      5      -0.3263      0.00000
      6       0.5565      0.00000
      7       0.6678      0.00000
      8       0.6940      0.00000


--------------------------------------------------------------------------------------------------------


 soft charge-density along one line, spin component           1
         0         1         2         3         4         5         6         7         8         9
 total charge-density along one line

 pseudopotential strength for first ion, spin component:           1
 -2.340  -4.032  -0.001  -0.002   0.001
 -4.032  -6.861  -0.003  -0.004   0.002
 -0.001  -0.003  -0.338   0.002  -0.001
 -0.002  -0.004   0.002  -0.337  -0.001
  0.001   0.002  -0.001  -0.001  -0.339
 total augmentation occupancy for first ion, spin component:           1
  3.213  -0.532   0.209   0.387  -0.122
 -0.532   0.101  -0.037  -0.064   0.022
  0.209  -0.037   0.019   0.022  -0.006
  0.387  -0.064   0.022   0.051  -0.013
 -0.122   0.022  -0.006  -0.013   0.013


------------------------ aborting loop because EDIFF is reached ----------------------------------------


    CHARGE:  cpu time    0.1894: real time    0.1899
    FORLOC:  cpu time    0.1111: real time    0.1114
    FORNL :  cpu time    0.6208: real time    0.6223
    STRESS:  cpu time    1.9767: real time    1.9814
    FORCOR:  cpu time    1.7247: real time    1.7288
    FORHAR:  cpu time    0.5555: real time    0.5568
    MIXING:  cpu time    0.0572: real time    0.0574
    OFIELD:  cpu time    0.0000: real time    0.0000

  FORCE on cell =-STRESS in cart. coord.  units (eV):
  Direction    XX          YY          ZZ          XY          YZ          ZX
  --------------------------------------------------------------------------------------
  Alpha Z     0.23812     0.23812     0.23812
  Ewald      46.22697    43.40586    38.82516    -1.07718    -1.14479    -1.99727
  Hartree    97.75765    94.79524    91.84794    -0.80541    -0.84715    -1.21467
  E(xc)     -27.17632   -27.15629   -27.15838    -0.00775    -0.00729    -0.01176
  Local    -202.57581  -197.23512  -189.47529     2.06796     2.26830     3.63519
  n-local   -15.78970   -15.17120   -15.64790    -0.12227     0.24958     0.58169
  augment     0.11801     0.12514     0.12270    -0.00287    -0.00364    -0.00544
  Kinetic   101.92998   101.44922    99.11325    -0.09847    -0.49648    -0.98623
  Fock        0.00000     0.00000     0.00000     0.00000     0.00000     0.00000
  -------------------------------------------------------------------------------------
  Total       0.72890     0.45098    -2.13441    -0.04598     0.01853     0.00151
  in kB       1.14791     0.71022    -3.36136    -0.07241     0.02918     0.00238
  external pressure =       -0.50 kB  Pullay stress =        0.00 kB

  kinetic pressure (ideal gas correction) =      0.03 kB
  total pressure  =     -0.47 kB
  Total+kin.     1.183       0.713      -3.319      -0.075       0.027       0.041

 VOLUME and BASIS-vectors are now :
 -----------------------------------------------------------------------------
  energy-cutoff  :      400.00
  volume of cell :     1017.36
      direct lattice vectors                 reciprocal lattice vectors
     9.774718206  0.000000000  0.000000000     0.102304740  0.002381447  0.002170971
    -0.235362698 10.110963033  0.000000000    -0.000000000  0.098902547  0.002006042
    -0.213581230 -0.208789818 10.293823979     0.000000000 -0.000000000  0.097145628

  length of vectors
     9.774718206 10.113702045 10.298156254     0.102355479  0.098922890  0.097145628


 FORCES acting on ions
    electron-ion (+dipol)            ewald-force                    non-local-force                 convergence-correction
 -----------------------------------------------------------------------------------------------
   -.171E+02 0.277E+02 0.404E+02   0.190E+02 -.302E+02 -.437E+02   -.177E+01 0.247E+01 0.434E+01   0.236E-04 -.114E-05 -.332E-04
   0.533E+02 -.631E+01 0.371E+01   -.599E+02 0.714E+01 -.388E+01   0.607E+01 -.587E+00 0.228E+00   -.394E-04 0.332E-04 0.760E-05
   -.223E+02 -.485E+02 0.736E+00   0.249E+02 0.539E+02 -.107E+01   -.225E+01 -.502E+01 0.224E+00   -.206E-05 0.506E-04 -.258E-04
   -.108E+02 0.240E+02 -.440E+02   0.116E+02 -.262E+02 0.473E+02   -.129E+01 0.262E+01 -.424E+01   -.134E-04 -.180E-04 0.241E-04
   -.396E+01 0.426E+01 -.137E+01   0.451E+01 -.471E+01 0.140E+01   0.380E+00 0.406E+00 -.251E+00   -.134E-03 0.380E-03 -.137E-03
 -----------------------------------------------------------------------------------------------
   -.881E+00 0.117E+01 -.487E+00   0.178E-14 -.355E-14 0.711E-14   0.114E+01 -.111E+00 0.301E+00   -.165E-03 0.445E-03 -.164E-03


 POSITION                                       TOTAL-FORCE (eV/Angst)
 -----------------------------------------------------------------------------------
      5.09087      4.03702      3.71471         0.090473     -0.023920      1.041902
      3.65223      4.76354      4.51531        -0.501937      0.239027      0.054703
      5.16447      5.62044      4.56102         0.286126      0.452651     -0.113173
      4.94844      4.09665      5.55137        -0.551241      0.430963     -0.948836
      4.71543      4.63322      4.58292         0.933846     -0.034761     -0.220579
 -----------------------------------------------------------------------------------
    total drift:                                0.257267      1.063960     -0.185985


--------------------------------------------------------------------------------------------------------



  FREE ENERGIE OF THE ION-ELECTRON SYSTEM (eV)
  ---------------------------------------------------
  free  energy   TOTEN  =       -24.02031189 eV

  energy  without entropy=      -24.06163596  energy(sigma->0) =      -24.03408658



--------------------------------------------------------------------------------------------------------


    POTLOK:  cpu time    1.7341: real time    1.7382


--------------------------------------------------------------------------------------------------------


           RANDOM_SEED =         578495953                0                0
           RANDOM_SEED =         578495953               30                0
   IONSTEP:  cpu time    0.0017: real time    0.0018

  ENERGY OF THE ELECTRON-ION-THERMOSTAT SYSTEM (eV)
  ---------------------------------------------------
% ion-electron   TOTEN  =       -24.020312  see above
  kinetic energy EKIN   =         0.056015
  kin. lattice  EKIN_LAT=         0.000000  (temperature  108.34 K)
  nose potential ES     =         0.000000
  nose kinetic   EPS    =         0.000109
  ---------------------------------------------------
  total energy   ETOTAL =       -23.964188 eV

  maximum distance moved by ions :      0.79E-02


 mean value of Nose-termostat <S>:     1.014 mean value of <T> :   108.336
 mean temperature <T/S>/<1/S>  :   108.336

    WAVPRE:  cpu time    0.4477: real time    0.4535
    FEWALD:  cpu time    0.0004: real time    0.0004
    ORTHCH:  cpu time    0.2204: real time    0.2210
     LOOP+:  cpu time   92.8410: real time   93.0677


--------------------------------------- Iteration      2(   1)  ---------------------------------------


    POTLOK:  cpu time    1.6696: real time    1.6738
    SETDIJ:  cpu time    0.0064: real time    0.0064
     EDDAV:  cpu time    2.2144: real time    2.2198
       DOS:  cpu time    0.0002: real time    0.0002
    CHARGE:  cpu time    0.1858: real time    0.1863
    MIXING:  cpu time    0.0415: real time    0.0416
    --------------------------------------------
      LOOP:  cpu time    4.1179: real time    4.1281

 eigenvalue-minimisations  :    64
 total energy-change (2. order) : 0.3224208E-01  (-0.3929516E+00)
 number of electron       7.9999999 magnetization 
 augmentation part        0.1901745 magnetization 

 Broyden mixing:
  rms(total) = 0.95971E-01    rms(broyden)= 0.95843E-01
  rms(prec ) = 0.11434E+00
  weight for this iteration     100.00

 Free energy of the ion-electron system (eV)
  ---------------------------------------------------
  alpha Z        PSCENC =         0.23811771
  Ewald energy   TEWEN  =       132.79544310
  -Hartree energ DENC   =      -286.91504320
  -exchange      EXHF   =         0.00000000
  -V(xc)+E(xc)   XCENC  =        24.82358760
  PAW double counting   =       454.84819535     -455.63380657
  entropy T*S    EENTRO =         0.01195100
  eigenvalues    EBANDS =       -91.19826859
  atomic energy  EATOM  =       197.04175453
  Solvation  Ediel_sol  =         0.00000000
  ---------------------------------------------------
  free energy    TOTEN  =       -23.98806906 eV

  energy without entropy =      -24.00002006  energy(sigma->0) =      -23.99205273


--------------------------------------------------------------------------------------------------------




--------------------------------------- Iteration      2(   2)  ---------------------------------------


    POTLOK:  cpu time    1.5167: real time    1.5203
    SETDIJ:  cpu time    0.0064: real time    0.0064
    EDDIAG:  cpu time    0.4686: real time    0.4697
  RMM-DIIS:  cpu time    1.5926: real time    1.5963
    ORTHCH:  cpu time    0.0122: real time    0.0122
       DOS:  cpu time    0.0002: real time    0.0002
    CHARGE:  cpu time    0.2083: real time    0.2088
    MIXING:  cpu time    0.0573: real time    0.0574
    --------------------------------------------
      LOOP:  cpu time    3.8623: real time    3.8714

 eigenvalue-minimisations  :    64
 total energy-change (2. order) :-0.1512230E-02  (-0.1108263E-01)
 number of electron       7.9999999 magnetization 
 augmentation part        0.1895577 magnetization 

 Broyden mixing:
  rms(total) = 0.87028E-01    rms(broyden)= 0.87003E-01
  rms(prec ) = 0.10427E+00
  weight for this iteration     100.00

 eigenvalues of (default mixing * dielectric matrix)
  average eigenvalue GAMMA=   2.2493
  8.6740  5.6290  4.5176  3.3747  2.4461  2.3336  2.3336  1.7777  1.7777  1.4435
  0.5922  0.6275  1.0973  1.0973  1.1055  0.9620  0.9620  1.0450  0.9407

 Free energy of the ion-electron system (eV)
  ---------------------------------------------------
  alpha Z        PSCENC =         0.23811771
  Ewald energy   TEWEN  =       132.79544310
  -Hartree energ DENC   =      -287.63445561
  -exchange      EXHF   =         0.00000000
  -V(xc)+E(xc)   XCENC  =        24.85257283
  PAW double counting   =       476.69508530     -477.49038929
  entropy T*S    EENTRO =         0.01192046
  eigenvalues    EBANDS =       -90.49963033
  atomic energy  EATOM  =       197.04175453
  Solvation  Ediel_sol  =         0.00000000
  ---------------------------------------------------
  free energy    TOTEN  =       -23.98958129 eV

  energy without entropy =      -24.00150175  energy(sigma->0) =      -23.99355478


--------------------------------------------------------------------------------------------------------




--------------------------------------- Iteration      2(   3)  ---------------------------------------


    POTLOK:  cpu time    1.5104: real time    1.5140
    SETDIJ:  cpu time    0.0064: real time    0.0064
    EDDIAG:  cpu time    0.4783: real time    0.4795
  RMM-DIIS:  cpu time    1.5797: real time    1.5835
    ORTHCH:  cpu time    0.0124: real time    0.0124
       DOS:  cpu time    0.0002: real time    0.0002
    CHARGE:  cpu time    0.2124: real time    0.2129
    MIXING:  cpu time    0.0675: real time    0.0676
    --------------------------------------------
      LOOP:  cpu time    3.8674: real time    3.8765

 eigenvalue-minimisations  :    64
 total energy-change (2. order) : 0.6484684E-02  (-0.3488040E-02)
 number of electron       7.9999999 magnetization 
 augmentation part        0.1883476 magnetization 

 Broyden mixing:
  rms(total) = 0.56915E-01    rms(broyden)= 0.56908E-01
  rms(prec ) = 0.72497E-01
  weight for this iteration     100.00

 eigenvalues of (default mixing * dielectric matrix)
  average eigenvalue GAMMA=   2.2199
  8.6745  5.6262  4.5264  3.3483  2.5168  2.4063  2.2811  2.2811  1.8025  1.4495
  0.5922  0.6275  1.0974  1.0974  0.9620  0.9620  1.0882  1.0882  1.0288  0.9420

 Free energy of the ion-electron system (eV)
  ---------------------------------------------------
  alpha Z        PSCENC =         0.23811771
[...]
  rms(total) = 0.29881E-02    rms(broyden)= 0.29880E-02
  rms(prec ) = 0.39761E-02
  weight for this iteration     100.00

 eigenvalues of (default mixing * dielectric matrix)
  average eigenvalue GAMMA=   2.2577
  6.1632  4.9720  4.2150  0.5611  0.5611  3.5071  3.5071  1.3492  1.3492  0.6768
  0.6768  2.2459  2.2459  0.8295  0.8295  1.6527  1.6527  0.8907  0.9526  1.2121
  1.2121  1.1503  1.4301  1.4301  3.5018  3.3807  3.2975  3.2975  1.8765  1.8765
  2.1691  2.1691  2.6640  2.6640  2.9079  2.3700  2.3700  2.2955  2.2955  2.7589
  2.7589  2.5243  2.5243  2.7196  2.6627  2.6627  2.5651  2.5651  2.4760

 Free energy of the ion-electron system (eV)
  ---------------------------------------------------
  alpha Z        PSCENC =         0.23811771
  Ewald energy   TEWEN  =       126.89079309
  -Hartree energ DENC   =      -282.87180469
  -exchange      EXHF   =         0.00000000
  -V(xc)+E(xc)   XCENC  =        24.61680060
  PAW double counting   =       444.26370595     -445.04241687
  entropy T*S    EENTRO =         0.01219201
  eigenvalues    EBANDS =       -89.08123387
  atomic energy  EATOM  =       197.04175453
  Solvation  Ediel_sol  =         0.00000000
  ---------------------------------------------------
  free energy    TOTEN  =       -23.93209155 eV

  energy without entropy =      -23.94428356  energy(sigma->0) =      -23.93615555


--------------------------------------------------------------------------------------------------------




--------------------------------------- Iteration     10(  12)  ---------------------------------------


    POTLOK:  cpu time    1.6043: real time    1.6081
    SETDIJ:  cpu time    0.0062: real time    0.0062
    EDDIAG:  cpu time    0.3847: real time    0.3857
  RMM-DIIS:  cpu time    1.3193: real time    1.3224
    ORTHCH:  cpu time    0.0112: real time    0.0113
       DOS:  cpu time    0.0002: real time    0.0002
    CHARGE:  cpu time    0.1461: real time    0.1465
    MIXING:  cpu time    0.1306: real time    0.1309
    --------------------------------------------
      LOOP:  cpu time    3.6027: real time    3.6113

 eigenvalue-minimisations  :    64
 total energy-change (2. order) : 0.1533797E-04  (-0.1801771E-05)
 number of electron       8.0000003 magnetization 
 augmentation part        0.1819961 magnetization 

 Broyden mixing:
  rms(total) = 0.21137E-02    rms(broyden)= 0.21136E-02
  rms(prec ) = 0.28022E-02
  weight for this iteration     100.00

 eigenvalues of (default mixing * dielectric matrix)
  average eigenvalue GAMMA=   2.2949
  5.8600  5.3330  4.0926  0.5986  0.5986  3.7453  3.7453  1.7713  1.7713  0.8019
  0.9366  0.9366  0.8915  0.8915  1.3782  1.3782  1.6647  1.6647  1.2374  1.2374
  3.0848  3.0848  3.2506  2.1370  2.1370  2.0279  2.0279  1.8437  2.9787  2.9787
  2.7566  2.7566  2.2395  2.2395  2.1456  2.1456  2.6788  2.6818  2.6818  2.5049
  2.5049  2.4710  2.4710  2.4908  2.4159

 Free energy of the ion-electron system (eV)
  ---------------------------------------------------
  alpha Z        PSCENC =         0.23811771
  Ewald energy   TEWEN  =       126.89079309
  -Hartree energ DENC   =      -282.87254339
  -exchange      EXHF   =         0.00000000
  -V(xc)+E(xc)   XCENC  =        24.61684474
  PAW double counting   =       444.24351228     -445.02221238
  entropy T*S    EENTRO =         0.01219530
  eigenvalues    EBANDS =       -89.08053808
  atomic energy  EATOM  =       197.04175453
  Solvation  Ediel_sol  =         0.00000000
  ---------------------------------------------------
  free energy    TOTEN  =       -23.93207621 eV

  energy without entropy =      -23.94427151  energy(sigma->0) =      -23.93614131


--------------------------------------------------------------------------------------------------------




--------------------------------------- Iteration     10(  13)  ---------------------------------------


    POTLOK:  cpu time    1.5742: real time    1.5780
    SETDIJ:  cpu time    0.0064: real time    0.0064
    EDDIAG:  cpu time    0.3957: real time    0.3967
  RMM-DIIS:  cpu time    1.2727: real time    1.2757
    ORTHCH:  cpu time    0.0111: real time    0.0112
       DOS:  cpu time    0.0002: real time    0.0002
    CHARGE:  cpu time    0.1500: real time    0.1503
    MIXING:  cpu time    0.1305: real time    0.1308
    --------------------------------------------
      LOOP:  cpu time    3.5408: real time    3.5492

 eigenvalue-minimisations  :    64
 total energy-change (2. order) : 0.6113998E-05  (-0.1066443E-05)
 number of electron       8.0000003 magnetization 
 augmentation part        0.1819918 magnetization 

 Broyden mixing:
  rms(total) = 0.14609E-02    rms(broyden)= 0.14608E-02
  rms(prec ) = 0.19322E-02
  weight for this iteration     100.00

 eigenvalues of (default mixing * dielectric matrix)
  average eigenvalue GAMMA=   2.3281
  6.5269  5.9163  4.0863  0.3641  3.8259  3.8259  1.6120  1.6120  0.7275  0.7275
  0.8049  0.8049  1.1547  1.1547  0.9674  1.5741  1.5741  1.2053  1.4759  1.4759
  1.9686  1.9686  2.6214  2.6214  2.0786  2.0786  3.2335  3.0906  3.0906  2.6704
  2.6704  2.9913  2.9913  2.0488  2.0488  2.3232  2.3232  2.4843  2.4843  2.6218
  2.6218  2.6760  2.6203  2.4027  2.4733  2.4733

 Free energy of the ion-electron system (eV)
  ---------------------------------------------------
  alpha Z        PSCENC =         0.23811771
  Ewald energy   TEWEN  =       126.89079309
  -Hartree energ DENC   =      -282.87571828
  -exchange      EXHF   =         0.00000000
  -V(xc)+E(xc)   XCENC  =        24.61697871
  PAW double counting   =       444.22841147     -445.00715639
  entropy T*S    EENTRO =         0.01220519
  eigenvalues    EBANDS =       -89.07745611
  atomic energy  EATOM  =       197.04175453
  Solvation  Ediel_sol  =         0.00000000
  ---------------------------------------------------
  free energy    TOTEN  =       -23.93207009 eV

  energy without entropy =      -23.94427528  energy(sigma->0) =      -23.93613849


--------------------------------------------------------------------------------------------------------




--------------------------------------- Iteration     10(  14)  ---------------------------------------


    POTLOK:  cpu time    1.5744: real time    1.5781
    SETDIJ:  cpu time    0.0062: real time    0.0062
    EDDIAG:  cpu time    0.3983: real time    0.3992
  RMM-DIIS:  cpu time    1.3028: real time    1.3060
    ORTHCH:  cpu time    0.0226: real time    0.0226
       DOS:  cpu time    0.0004: real time    0.0003
    CHARGE:  cpu time    0.1581: real time    0.1585
    MIXING:  cpu time    0.1280: real time    0.1283
    --------------------------------------------
      LOOP:  cpu time    3.5908: real time    3.5994

 eigenvalue-minimisations  :    64
 total energy-change (2. order) : 0.1870086E-05  (-0.6788912E-06)
 number of electron       8.0000003 magnetization 
 augmentation part        0.1819934 magnetization 

 Broyden mixing:
  rms(total) = 0.88030E-03    rms(broyden)= 0.88022E-03
  rms(prec ) = 0.11729E-02
  weight for this iteration     100.00

 eigenvalues of (default mixing * dielectric matrix)
  average eigenvalue GAMMA=   2.3216
  6.0952  6.0952  0.8318  0.8318  4.1166  3.8535  3.8535  3.5369  1.7790  1.7790
  0.7475  0.8084  0.8084  0.8594  0.8594  1.1807  1.1807  0.9622  1.1046  1.3105
  1.3105  2.8849  2.8849  3.2123  3.2123  1.7337  1.9021  1.9021  2.6113  2.6113
  2.0863  2.0863  2.9004  2.8413  2.3807  2.3807  2.5492  2.5492  2.4089  2.4089
  2.6555  2.6555  2.5941  2.5941  2.3084  2.3959  2.4601

 Free energy of the ion-electron system (eV)
  ---------------------------------------------------
  alpha Z        PSCENC =         0.23811771
  Ewald energy   TEWEN  =       126.89079309
  -Hartree energ DENC   =      -282.87391513
  -exchange      EXHF   =         0.00000000
  -V(xc)+E(xc)   XCENC  =        24.61691585
  PAW double counting   =       444.25363638     -445.03236098
  entropy T*S    EENTRO =         0.01221221
  eigenvalues    EBANDS =       -89.07922187
  atomic energy  EATOM  =       197.04175453
  Solvation  Ediel_sol  =         0.00000000
  ---------------------------------------------------
  free energy    TOTEN  =       -23.93206822 eV

  energy without entropy =      -23.94428044  energy(sigma->0) =      -23.93613896


--------------------------------------------------------------------------------------------------------




--------------------------------------- Iteration     10(  15)  ---------------------------------------


    POTLOK:  cpu time    1.6272: real time    1.6310
    SETDIJ:  cpu time    0.0062: real time    0.0062
    EDDIAG:  cpu time    0.4013: real time    0.4023
  RMM-DIIS:  cpu time    1.1368: real time    1.1395
    ORTHCH:  cpu time    0.0136: real time    0.0137
       DOS:  cpu time    0.0003: real time    0.0003
    --------------------------------------------
      LOOP:  cpu time    3.1854: real time    3.1930

 eigenvalue-minimisations  :    56
 total energy-change (2. order) : 0.6549651E-06  (-0.3799633E-06)
 number of electron       8.0000003 magnetization 
 augmentation part        0.1819934 magnetization 

 Free energy of the ion-electron system (eV)
  ---------------------------------------------------
  alpha Z        PSCENC =         0.23811771
  Ewald energy   TEWEN  =       126.89079309
  -Hartree energ DENC   =      -282.87434407
  -exchange      EXHF   =         0.00000000
  -V(xc)+E(xc)   XCENC  =        24.61693473
  PAW double counting   =       444.24600510     -445.02473550
  entropy T*S    EENTRO =         0.01221221
  eigenvalues    EBANDS =       -89.07880536
  atomic energy  EATOM  =       197.04175453
  Solvation  Ediel_sol  =         0.00000000
  ---------------------------------------------------
  free energy    TOTEN  =       -23.93206757 eV

  energy without entropy =      -23.94427978  energy(sigma->0) =      -23.93613831


--------------------------------------------------------------------------------------------------------




 average (electrostatic) potential at core
  the test charge radii are     0.5201  0.6991
  (the norm of the test charge is              1.0000)
       1 -41.5941       2 -41.4720       3 -41.6507       4 -41.0679       5 -58.0434



 E-fermi :  -8.7758     XC(G=0):  -0.6902     alpha+bet : -0.2071


 k-point     1 :       0.2500    0.2500    0.2500
  band No.  band energies     occupation 
      1     -16.8196      2.00000
      2      -9.4835      2.00001
      3      -9.2926      2.00158
      4      -8.9434      1.99840
      5      -0.3323      0.00000
      6       0.5334      0.00000
      7       0.6473      0.00000
      8       0.6803      0.00000

 k-point     2 :      -0.2500    0.2500    0.2500
  band No.  band energies     occupation 
      1     -16.8195      2.00000
      2      -9.4835      2.00001
      3      -9.2926      2.00158
      4      -8.9434      1.99844
      5      -0.3409      0.00000
      6       0.5535      0.00000
      7       0.6520      0.00000
      8       0.7081      0.00000

 k-point     3 :       0.2500   -0.2500    0.2500
  band No.  band energies     occupation 
      1     -16.8196      2.00000
      2      -9.4836      2.00001
      3      -9.2927      2.00158
      4      -8.9435      1.99852
      5      -0.3384      0.00000
      6       0.5319      0.00000
      7       0.6656      0.00000
      8       0.7059      0.00000

 k-point     4 :      -0.2500   -0.2500    0.2500
  band No.  band energies     occupation 
      1     -16.8196      2.00000
      2      -9.4836      2.00001
      3      -9.2926      2.00158
      4      -8.9434      1.99830
      5      -0.3395      0.00000
      6       0.5585      0.00000
      7       0.6641      0.00000
      8       0.6852      0.00000


--------------------------------------------------------------------------------------------------------


 soft charge-density along one line, spin component           1
         0         1         2         3         4         5         6         7         8         9
 total charge-density along one line

 pseudopotential strength for first ion, spin component:           1
 -2.342  -4.036  -0.001  -0.001   0.000
 -4.036  -6.869  -0.004  -0.004   0.002
 -0.001  -0.004  -0.337   0.002  -0.001
 -0.001  -0.004   0.002  -0.335  -0.001
  0.000   0.002  -0.001  -0.001  -0.338
 total augmentation occupancy for first ion, spin component:           1
  3.648  -0.672   0.306   0.296  -0.094
 -0.672   0.139  -0.055  -0.057   0.019
  0.306  -0.055   0.033   0.021  -0.006
  0.296  -0.057   0.021   0.027  -0.005
 -0.094   0.019  -0.006  -0.005   0.011


------------------------ aborting loop because EDIFF is reached ----------------------------------------


    CHARGE:  cpu time    0.1783: real time    0.1788
    FORLOC:  cpu time    0.1077: real time    0.1079
    FORNL :  cpu time    0.6247: real time    0.6262
    STRESS:  cpu time    1.7670: real time    1.7712
    FORCOR:  cpu time    1.7097: real time    1.7138
    FORHAR:  cpu time    0.5327: real time    0.5339
    MIXING:  cpu time    0.1433: real time    0.1437
    OFIELD:  cpu time    0.0000: real time    0.0000

  FORCE on cell =-STRESS in cart. coord.  units (eV):
  Direction    XX          YY          ZZ          XY          YZ          ZX
  --------------------------------------------------------------------------------------
  Alpha Z     0.23812     0.23812     0.23812
  Ewald      45.08509    44.27589    37.52980    -2.58812     2.80631     3.21817
  Hartree    97.38219    93.83955    91.65205    -1.25020    -0.13212     1.16744
  E(xc)     -27.08521   -27.07190   -27.07264    -0.01880     0.00311     0.02741
  Local    -201.38393  -196.13086  -188.86661     3.68205    -1.64881    -4.10544
  n-local   -15.63021   -14.97239   -15.51960    -0.54099     0.10093     0.01282
  augment     0.12161     0.11248     0.12814    -0.00034    -0.00876    -0.00076
  Kinetic   100.89812   100.19524   100.04890     0.94206    -0.09431    -1.27684
  Fock        0.00000     0.00000     0.00000     0.00000     0.00000     0.00000
  -------------------------------------------------------------------------------------
  Total      -0.37422     0.48612    -1.86183     0.22568     1.02636    -0.95720
  in kB      -0.58934     0.76556    -2.93209     0.35540     1.61636    -1.50744
  external pressure =       -0.92 kB  Pullay stress =        0.00 kB

  kinetic pressure (ideal gas correction) =      0.07 kB
  total pressure  =     -0.85 kB
  Total+kin.    -0.541       0.803      -2.820       0.369       1.588      -1.565

 VOLUME and BASIS-vectors are now :
 -----------------------------------------------------------------------------
  energy-cutoff  :      400.00
  volume of cell :     1017.36
      direct lattice vectors                 reciprocal lattice vectors
     9.774718206  0.000000000  0.000000000     0.102304740  0.002381447  0.002170971
    -0.235362698 10.110963033  0.000000000    -0.000000000  0.098902547  0.002006042
    -0.213581230 -0.208789818 10.293823979     0.000000000 -0.000000000  0.097145628

  length of vectors
     9.774718206 10.113702045 10.298156254     0.102355479  0.098922890  0.097145628


 FORCES acting on ions
    electron-ion (+dipol)            ewald-force                    non-local-force                 convergence-correction
 -----------------------------------------------------------------------------------------------
   -.171E+02 0.303E+02 0.400E+02   0.191E+02 -.336E+02 -.445E+02   -.128E+01 0.218E+01 0.358E+01   -.392E-04 0.457E-03 0.282E-03
   0.516E+02 -.695E+01 0.536E+01   -.568E+02 0.745E+01 -.567E+01   0.608E+01 -.583E+00 0.667E+00   0.672E-04 0.551E-03 0.311E-03
   -.222E+02 -.487E+02 0.448E+00   0.251E+02 0.545E+02 -.578E+00   -.224E+01 -.517E+01 -.448E-01   0.756E-04 0.420E-03 0.216E-03
   -.124E+02 0.218E+02 -.428E+02   0.129E+02 -.230E+02 0.451E+02   -.888E+00 0.255E+01 -.415E+01   -.385E-04 0.531E-03 0.180E-03
   0.290E+00 0.461E+01 -.474E+01   -.280E+00 -.530E+01 0.560E+01   0.241E+00 0.787E+00 0.578E+00   0.691E-03 0.100E-01 0.599E-02
 -----------------------------------------------------------------------------------------------
   0.166E+00 0.114E+01 -.169E+01   0.355E-14 0.355E-14 0.000E+00   0.191E+01 -.235E+00 0.630E+00   0.756E-03 0.120E-01 0.698E-02


 POSITION                                       TOTAL-FORCE (eV/Angst)
 -----------------------------------------------------------------------------------
      5.06667      4.01238      3.75712         0.748502     -1.075808     -0.895048
      3.62789      4.78140      4.46604         0.867787     -0.077842      0.361758
      5.16206      5.61301      4.57040         0.610686      0.629564     -0.175120
      5.00866      4.12098      5.58743        -0.404791      1.339192     -1.793629
      4.71466      4.63237      4.57970         0.252275      0.102314      1.446229
 -----------------------------------------------------------------------------------
    total drift:                                2.074460      0.917419     -1.055810


--------------------------------------------------------------------------------------------------------



  FREE ENERGIE OF THE ION-ELECTRON SYSTEM (eV)
  ---------------------------------------------------
  free  energy   TOTEN  =       -23.93206757 eV

  energy  without entropy=      -23.94427978  energy(sigma->0) =      -23.93613831

 d Force =-0.3487522E-01[-0.118E+00, 0.487E-01]  d Energy =-0.7245987E-01 0.376E-01
 d Force =-0.7410772E+00[-0.754E+00,-0.729E+00]  d Ewald  =-0.7422761E+00 0.120E-02


--------------------------------------------------------------------------------------------------------


    POTLOK:  cpu time    1.5639: real time    1.5676


--------------------------------------------------------------------------------------------------------


           RANDOM_SEED =         578495953               30                0
   IONSTEP:  cpu time    0.0001: real time    0.0001

  ENERGY OF THE ELECTRON-ION-THERMOSTAT SYSTEM (eV)
  ---------------------------------------------------
% ion-electron   TOTEN  =       -23.932068  see above
  kinetic energy EKIN   =         0.041729
  kin. lattice  EKIN_LAT=         0.000000  (temperature   80.71 K)
  nose potential ES     =         0.035098
  nose kinetic   EPS    =         0.044819
  ---------------------------------------------------
  total energy   ETOTAL =       -23.810422 eV

  maximum distance moved by ions :      0.56E-02


 mean value of Nose-termostat <S>:     2.288 mean value of <T> :    80.707
 mean temperature <T/S>/<1/S>  :    80.707

    WAVPRE:  cpu time    0.4953: real time    0.5029
    FEWALD:  cpu time    0.0007: real time    0.0007
    ORTHCH:  cpu time    0.2204: real time    0.2209
 Prediction of Wavefunctions ALPHA= 0.549 BETA=-0.737
    POTLOK:  cpu time    1.5335: real time    1.5372
    EDDIAG:  cpu time    0.4283: real time    0.4293
     LOOP+:  cpu time   68.6581: real time   68.9429
    4ORBIT:  cpu time    0.0000: real time    0.0000

 total amount of memory used by VASP MPI-rank0   299748. kBytes
=======================================================================

   base      :      30000. kBytes
   nonlr-proj:        149. kBytes
   fftplans  :      86584. kBytes
   grid      :     154542. kBytes
   one-center:         15. kBytes
   wavefun   :      28458. kBytes

  
  
 General timing and accounting informations for this job:
 ========================================================
  
                  Total CPU time used (sec):      769.968
                            User time (sec):      755.618
                          System time (sec):       14.350
                         Elapsed time (sec):      774.762
  
                   Maximum memory used (kb):      468104.
                   Average memory used (kb):           0.
  
                          Minor page faults:      2345511
                          Major page faults:            0
                 Voluntary context switches:          399
