<?xml version="1.0" encoding="ISO-8859-1"?>
<modeling>
 <generator>
  <i name="program" type="string">vasp </i>
  <i name="version" type="string">5.4.4.18Apr17-6-g9f103f2a35  </i>
  <i name="subversion" type="string">(build Jul 12 2018 13:43:46) complex            parallel </i>
  <i name="platform" type="string">LinuxGNU </i>
  <i name="date" type="string">2019 06 22 </i>
  <i name="time" type="string">02:17:35 </i>
 </generator>
 <incar>
  <i type="int" name="ISTART">     0</i>
  <i type="string" name="PREC">a</i>
  <i type="string" name="ALGO">fast</i>
  <i type="int" name="MAXMIX">    50</i>
  <i type="int" name="ICHARG">     2</i>
  <i type="int" name="IBRION">     0</i>
  <i name="EDIFF">      0.00000100</i>
  <i type="int" name="NSW">    10</i>
  <i type="int" name="ISIF">     2</i>
  <i type="int" name="ISYM">     0</i>
  <i type="int" name="NBLOCK">     1</i>
  <i type="int" name="KBLOCK">   100</i>
  <i name="ENCUT">    400.00000000</i>
  <i name="POTIM">      2.00000000</i>
  <i name="TEBEG">     50.00000000</i>
  <i name="TEEND">     50.00000000</i>
  <i name="SMASS">      0.00000000</i>
  <i type="logical" name="LREAL"> T  </i>
  <i type="int" name="ISMEAR">     1</i>
  <i name="SIGMA">      0.20000000</i>
  <i name="KSPACING">      0.50000000</i>
  <i type="logical" name="KGAMMA"> F  </i>
  <i name="PSTRESS">      0.00000000</i>
  <i type="logical" name="LWAVE"> F  </i>
  <i type="logical" name="LCHARG"> F  </i>
  <v type="int" name="KPOINT_BSE">    -1     0     0     0</v>
 </incar>
 <structure name="primitive_cell" >
  <crystal>
   <varray name="basis" >
    <v>       9.77471821       0.00000000       0.00000000 </v>
    <v>      -0.23536270      10.11096303       0.00000000 </v>
    <v>      -0.21358123      -0.20878982      10.29382398 </v>
   </varray>
   <i name="volume">   1017.35730139 </i>
   <varray name="rec_basis" >
    <v>       0.10230474       0.00238145       0.00217097 </v>
    <v>      -0.00000000       0.09890255       0.00200604 </v>
    <v>       0.00000000      -0.00000000       0.09714563 </v>
   </varray>
  </crystal>
  <varray name="positions" >
   <v>      -0.46150139       0.40672304       0.36086799 </v>
   <v>      -0.49660574       0.46743030       0.44521021 </v>
   <v>      -0.44836333      -0.43497480       0.44308287 </v>
   <v>       0.39478738       0.48018414       0.43864300 </v>
   <v>      -0.47194381       0.41630554      -0.46070892 </v>
  </varray>
 </structure>
 <varray name="primitive_index" >
  <v type="int" >        1 </v>
  <v type="int" >        5 </v>
  <v type="int" >        3 </v>
  <v type="int" >        2 </v>
  <v type="int" >        4 </v>
 </varray>
 <kpoints>
  <generation param="Monkhorst-Pack">
   <v type="int" name="divisions">       2        2        2 </v>
   <v name="usershift">      0.00000000       0.00000000       0.00000000 </v>
   <v name="genvec1">      0.50000000       0.00000000      -0.00000000 </v>
   <v name="genvec2">      0.00000000       0.50000000       0.00000000 </v>
   <v name="genvec3">      0.00000000       0.00000000       0.50000000 </v>
   <v name="shift">      0.50000000       0.50000000       0.50000000 </v>
  </generation>
  <varray name="kpointlist" >
   <v>       0.25000000       0.25000000       0.25000000 </v>
   <v>      -0.25000000       0.25000000       0.25000000 </v>
   <v>       0.25000000      -0.25000000       0.25000000 </v>
   <v>      -0.25000000      -0.25000000       0.25000000 </v>
  </varray>
  <varray name="weights" >
   <v>       0.25000000 </v>
   <v>       0.25000000 </v>
   <v>       0.25000000 </v>
   <v>       0.25000000 </v>
  </varray>
 </kpoints>
 <parameters>
  <separator name="general" >
   <i type="string" name="SYSTEM">unknown system</i>
   <i type="logical" name="LCOMPAT"> F  </i>
  </separator>
  <separator name="electronic" >
   <i type="string" name="PREC">a</i>
   <i name="ENMAX">    400.00000000</i>
   <i name="ENAUG">    644.87300000</i>
   <i name="EDIFF">      0.00000100</i>
   <i type="int" name="IALGO">    68</i>
   <i type="int" name="IWAVPR">    12</i>
   <i type="int" name="NBANDS">     8</i>
   <i name="NELECT">      8.00000000</i>
   <i type="int" name="TURBO">     0</i>
   <i type="int" name="IRESTART">     0</i>
   <i type="int" name="NREBOOT">     0</i>
   <i type="int" name="NMIN">     0</i>
   <i name="EREF">      0.00000000</i>
   <separator name="electronic smearing" >
    <i type="int" name="ISMEAR">     1</i>
    <i name="SIGMA">      0.20000000</i>
    <i name="KSPACING">      0.50000000</i>
    <i type="logical" name="KGAMMA"> F  </i>
   </separator>
   <separator name="electronic projectors" >
    <i type="logical" name="LREAL"> T  </i>
    <v name="ROPT">      0.00000000      0.00000000</v>
    <i type="int" name="LMAXPAW">  -100</i>
    <i type="int" name="LMAXMIX">     2</i>
    <i type="logical" name="NLSPLINE"> F  </i>
   </separator>
   <separator name="electronic startup" >
    <i type="int" name="ISTART">     0</i>
    <i type="int" name="ICHARG">     2</i>
    <i type="int" name="INIWAV">     1</i>
   </separator>
   <separator name="electronic spin" >
    <i type="int" name="ISPIN">     1</i>
    <i type="logical" name="LNONCOLLINEAR"> F  </i>
    <v name="MAGMOM">      1.00000000      1.00000000      1.00000000      1.00000000      1.00000000</v>
    <i name="NUPDOWN">     -1.00000000</i>
    <i type="logical" name="LSORBIT"> F  </i>
    <v name="SAXIS">      0.00000000      0.00000000      1.00000000</v>
    <i type="logical" name="LSPIRAL"> F  </i>
    <v name="QSPIRAL">      0.00000000      0.00000000      0.00000000</v>
    <i type="logical" name="LZEROZ"> F  </i>
   </separator>
   <separator name="electronic exchange-correlation" >
    <i type="logical" name="LASPH"> F  </i>
    <i type="logical" name="LMETAGGA"> F  </i>
   </separator>
   <separator name="electronic convergence" >
    <i type="int" name="NELM">    60</i>
    <i type="int" name="NELMDL">    -5</i>
    <i type="int" name="NELMIN">     2</i>
    <i name="ENINI">    400.00000000</i>
    <separator name="electronic convergence detail" >
     <i type="logical" name="LDIAG"> T  </i>
     <i type="logical" name="LSUBROT"> F  </i>
     <i name="WEIMIN">      0.00100000</i>
     <i name="EBREAK">      0.00000003</i>
     <i name="DEPER">      0.30000000</i>
     <i type="int" name="NRMM">     4</i>
     <i name="TIME">      0.40000000</i>
    </separator>
   </separator>
   <separator name="electronic mixer" >
    <i name="AMIX">      0.40000000</i>
    <i name="BMIX">      1.00000000</i>
    <i name="AMIN">      0.10000000</i>
    <i name="AMIX_MAG">      1.60000000</i>
    <i name="BMIX_MAG">      1.00000000</i>
    <separator name="electronic mixer details" >
     <i type="int" name="IMIX">     4</i>
     <i type="logical" name="MIXFIRST"> F  </i>
     <i type="int" name="MAXMIX">    50</i>
     <i name="WC">    100.00000000</i>
     <i type="int" name="INIMIX">     1</i>
     <i type="int" name="MIXPRE">     1</i>
     <i type="int" name="MREMOVE">     5</i>
    </separator>
   </separator>
   <separator name="electronic dipolcorrection" >
    <i type="logical" name="LDIPOL"> F  </i>
    <i type="logical" name="LMONO"> F  </i>
    <i type="int" name="IDIPOL">     0</i>
    <i name="EPSILON">      1.00000000</i>
    <v name="DIPOL">   -100.00000000   -100.00000000   -100.00000000</v>
    <i name="EFIELD">      0.00000000</i>
   </separator>
  </separator>
  <separator name="grids" >
   <i type="int" name="NGX">    64</i>
   <i type="int" name="NGY">    70</i>
   <i type="int" name="NGZ">    70</i>
   <i type="int" name="NGXF">   128</i>
   <i type="int" name="NGYF">   140</i>
   <i type="int" name="NGZF">   140</i>
   <i type="logical" name="ADDGRID"> F  </i>
  </separator>
  <separator name="ionic" >
   <i type="int" name="NSW">    10</i>
   <i type="int" name="IBRION">     0</i>
   <i type="int" name="MDALGO">     0</i>
   <i type="int" name="ISIF">     2</i>
   <i name="PSTRESS">      0.00000000</i>
   <i name="EDIFFG">      0.00001000</i>
   <i type="int" name="NFREE">     0</i>
   <i name="POTIM">      2.00000000</i>
   <i name="SMASS">      0.00169289</i>
   <i name="SCALEE">      1.00000000</i>
  </separator>
  <separator name="ionic md" >
   <i name="TEBEG">     50.00000000</i>
   <i name="TEEND">     50.00000000</i>
   <i type="int" name="NBLOCK">     1</i>
   <i type="int" name="KBLOCK">     1</i>
   <i type="int" name="NPACO">   256</i>
   <i name="APACO">     16.00000000</i>
  </separator>
  <separator name="symmetry" >
   <i type="int" name="ISYM">     0</i>
   <i name="SYMPREC">      0.00001000</i>
  </separator>
  <separator name="dos" >
   <i type="int" name="LORBIT">     0</i>
   <v name="RWIGS">     -1.00000000     -1.00000000</v>
   <i type="int" name="NEDOS">   301</i>
   <i name="EMIN">     10.00000000</i>
   <i name="EMAX">    -10.00000000</i>
   <i name="EFERMI">      0.00000000</i>
  </separator>
  <separator name="writing" >
   <i type="int" name="NWRITE">     2</i>
   <i type="logical" name="LWAVE"> F  </i>
   <i type="logical" name="LDOWNSAMPLE"> F  </i>
   <i type="logical" name="LCHARG"> F  </i>
   <i type="logical" name="LPARD"> F  </i>
   <i type="logical" name="LVTOT"> F  </i>
   <i type="logical" name="LVHAR"> F  </i>
   <i type="logical" name="LELF"> F  </i>
   <i type="logical" name="LOPTICS"> F  </i>
   <v name="STM">      0.00000000      0.00000000      0.00000000      0.00000000      0.00000000      0.00000000      0.00000000</v>
  </separator>
  <separator name="performance" >
   <i type="int" name="NPAR">     1</i>
   <i type="int" name="NSIM">     4</i>
   <i type="int" name="NBLK">    -1</i>
   <i type="logical" name="LPLANE"> T  </i>
   <i type="logical" name="LSCALAPACK"> T  </i>
   <i type="logical" name="LSCAAWARE"> F  </i>
   <i type="logical" name="LSCALU"> F  </i>
   <i type="logical" name="LASYNC"> F  </i>
   <i type="logical" name="LORBITALREAL"> F  </i>
  </separator>
  <separator name="miscellaneous" >
   <i type="int" name="IDIOT">     3</i>
   <i type="int" name="ISPECIAL">     0</i>
   <i type="logical" name="LMUSIC"> F  </i>
   <v name="POMASS">      1.00000000     12.01100000</v>
   <v name="DARWINR">      0.00000000      0.00000000</v>
   <v name="DARWINV">      1.00000000      1.00000000</v>
   <i type="logical" name="LCORR"> T  </i>
  </separator>
  <i type="logical" name="GGA_COMPAT"> T  </i>
  <i type="logical" name="LBERRY"> F  </i>
  <i type="int" name="ICORELEVEL">     0</i>
  <i type="logical" name="LDAU"> F  </i>
  <i type="int" name="I_CONSTRAINED_M">     0</i>
  <separator name="electronic exchange-correlation" >
   <i type="string" name="GGA">--</i>
   <i type="int" name="VOSKOWN">     0</i>
   <i type="logical" name="LHFCALC"> F  </i>
   <i type="string" name="PRECFOCK"></i>
   <i type="logical" name="LSYMGRAD"> F  </i>
   <i type="logical" name="LHFONE"> F  </i>
   <i type="logical" name="LRHFCALC"> F  </i>
   <i type="logical" name="LTHOMAS"> F  </i>
   <i type="logical" name="LMODELHF"> F  </i>
   <i name="ENCUT4O">     -1.00000000</i>
   <i type="int" name="EXXOEP">     0</i>
   <i type="int" name="FOURORBIT">     0</i>
   <i name="AEXX">      0.00000000</i>
   <i name="HFALPHA">      0.00000000</i>
   <i name="MCALPHA">      0.00000000</i>
   <i name="ALDAX">      1.00000000</i>
   <i name="AGGAX">      1.00000000</i>
   <i name="ALDAC">      1.00000000</i>
   <i name="AGGAC">      1.00000000</i>
   <i type="int" name="NKREDX">     1</i>
   <i type="int" name="NKREDY">     1</i>
   <i type="int" name="NKREDZ">     1</i>
   <i type="logical" name="SHIFTRED"> F  </i>
   <i type="logical" name="ODDONLY"> F  </i>
   <i type="logical" name="EVENONLY"> F  </i>
   <i type="int" name="LMAXFOCK">     0</i>
   <i type="int" name="NMAXFOCKAE">     0</i>
   <i type="logical" name="LFOCKAEDFT"> F  </i>
   <i name="HFSCREEN">      0.00000000</i>
   <i name="HFSCREENC">      0.00000000</i>
   <i type="int" name="NBANDSGWLOW">     0</i>
  </separator>
  <separator name="vdW DFT" >
   <i type="logical" name="LUSE_VDW"> F  </i>
   <i name="Zab_VDW">     -0.84910000</i>
   <i name="PARAM1">      0.12340000</i>
   <i name="PARAM2">      1.00000000</i>
   <i name="PARAM3">      0.00000000</i>
  </separator>
  <separator name="model GW" >
   <i type="int" name="MODEL_GW">     0</i>
   <i name="MODEL_EPS0">    122.08287617</i>
   <i name="MODEL_ALPHA">      1.00000000</i>
  </separator>
  <separator name="linear response parameters" >
   <i type="logical" name="LEPSILON"> F  </i>
   <i type="logical" name="LRPA"> F  </i>
   <i type="logical" name="LNABLA"> F  </i>
   <i type="logical" name="LVEL"> F  </i>
   <i type="int" name="KINTER">     0</i>
   <i name="CSHIFT">      0.10000000</i>
   <i name="OMEGAMAX">     -1.00000000</i>
   <i name="DEG_THRESHOLD">      0.00200000</i>
   <i name="RTIME">     -0.10000000</i>
   <i name="WPLASMAI">      0.00000000</i>
   <v name="DFIELD">      0.00000000      0.00000000      0.00000000</v>
   <v name="WPLASMA">      0.00000000      0.00000000      0.00000000      0.00000000      0.00000000      0.00000000      0.00000000      0.00000000      0.00000000</v>
  </separator>
  <separator name="orbital magnetization" >
   <i type="logical" name="NUCIND"> F  </i>
   <v name="MAGPOS">      0.00000000      0.00000000      0.00000000</v>
   <i type="logical" name="LNICSALL"> T  </i>
   <i type="logical" name="ORBITALMAG"> F  </i>
   <i type="logical" name="LMAGBLOCH"> F  </i>
   <i type="logical" name="LCHIMAG"> F  </i>
   <i type="logical" name="LGAUGE"> T  </i>
   <i type="int" name="MAGATOM">     0</i>
   <v name="MAGDIPOL">      0.00000000      0.00000000      0.00000000</v>
   <v name="AVECCONST">      0.00000000      0.00000000      0.00000000</v>
  </separator>
  <separator name="response functions" >
   <i type="logical" name="LADDER"> F  </i>
   <i type="logical" name="LRPAFORCE"> F  </i>
   <i type="logical" name="LFXC"> F  </i>
   <i type="logical" name="LHARTREE"> T  </i>
   <i type="int" name="IBSE">     0</i>
   <v type="int" name="KPOINT">    -1     0     0     0</v>
   <i type="logical" name="LTCTE"> F  </i>
   <i type="logical" name="LTETE"> F  </i>
   <i type="logical" name="LTRIPLET"> F  </i>
   <i type="logical" name="LFXCEPS"> F  </i>
   <i type="logical" name="LFXHEG"> F  </i>
   <i type="int" name="NATURALO">     2</i>
   <i type="logical" name="L2ORDER"> F  </i>
   <i type="logical" name="LMP2LT"> F  </i>
   <i type="logical" name="LUSEW"> F  </i>
   <i name="ENCUTGW">     -2.00000000</i>
   <i name="ENCUTGWSOFT">     -2.00000000</i>
   <i name="ENCUTLF">     -1.00000000</i>
   <i type="int" name="LMAXMP2">    -1</i>
   <i name="SCISSOR">      0.00000000</i>
   <i type="int" name="NOMEGA">     0</i>
   <i type="int" name="NOMEGAR">     0</i>
   <i type="int" name="NBANDSGW">    -1</i>
   <i type="int" name="NBANDSO">    -1</i>
   <i type="int" name="NBANDSV">    -1</i>
   <i type="int" name="NELM">     1</i>
   <i type="int" name="NELMHF">     1</i>
   <i type="int" name="DIM">     3</i>
   <i type="int" name="ANTIRES">     0</i>
   <i name="OMEGAMAX">    -30.00000000</i>
   <i name="OMEGAMIN">    -30.00000000</i>
   <i name="OMEGATL">   -200.00000000</i>
   <i type="int" name="OMEGAGRID">   140</i>
   <i name="CSHIFT">     -0.10000000</i>
   <i type="logical" name="SELFENERGY"> F  </i>
   <i type="logical" name="LSPECTRAL"> F  </i>
   <i type="logical" name="LSPECTRALGW"> F  </i>
   <i type="logical" name="LSINGLES"> F  </i>
   <i type="logical" name="LFERMIGW"> F  </i>
   <i type="logical" name="ODDONLYGW"> F  </i>
   <i type="logical" name="EVENONLYGW"> F  </i>
   <i type="int" name="NKREDLFX">     1</i>
   <i type="int" name="NKREDLFY">     1</i>
   <i type="int" name="NKREDLFZ">     1</i>
   <i type="int" name="MAXMEM">  2800</i>
   <i type="int" name="TELESCOPE">     0</i>
   <i type="int" name="TAUPAR">     1</i>
   <i type="int" name="OMEGAPAR">    -1</i>
   <i name="LAMBDA">      1.00000000</i>
  </separator>
  <separator name="External order field" >
   <i name="OFIELD_KAPPA">      0.00000000</i>
   <v name="OFIELD_K">      0.00000000      0.00000000      0.00000000</v>
   <i name="OFIELD_Q6_NEAR">      0.00000000</i>
   <i name="OFIELD_Q6_FAR">      0.00000000</i>
   <i name="OFIELD_A">      0.00000000</i>
  </separator>
 </parameters>
 <atominfo>
  <atoms>       5 </atoms>
  <types>       2 </types>
  <array name="atoms" >
   <dimension dim="1">ion</dimension>
   <field type="string">element</field>
   <field type="int">atomtype</field>
   <set>
    <rc><c>H </c><c>   1</c></rc>
    <rc><c>H </c><c>   1</c></rc>
    <rc><c>H </c><c>   1</c></rc>
    <rc><c>H </c><c>   1</c></rc>
    <rc><c>C </c><c>   2</c></rc>
   </set>
  </array>
  <array name="atomtypes" >
   <dimension dim="1">type</dimension>
   <field type="int">atomspertype</field>
   <field type="string">element</field>
   <field>mass</field>
   <field>valence</field>
   <field type="string">pseudopotential</field>
   <set>
    <rc><c>   4</c><c>H </c><c>      1.00000000</c><c>      1.00000000</c><c>  PAW_PBE H 15Jun2001                   </c></rc>
    <rc><c>   1</c><c>C </c><c>     12.01100000</c><c>      4.00000000</c><c>  PAW_PBE C 08Apr2002                   </c></rc>
   </set>
  </array>
 </atominfo>
 <structure name="initialpos" >
  <crystal>
   <varray name="basis" >
    <v>       9.77471821       0.00000000       0.00000000 </v>
    <v>      -0.23536270      10.11096303       0.00000000 </v>
    <v>      -0.21358123      -0.20878982      10.29382398 </v>
   </varray>
   <i name="volume">   1017.35730139 </i>
   <varray name="rec_basis" >
    <v>       0.10230474       0.00238145       0.00217097 </v>
    <v>      -0.00000000       0.09890255       0.00200604 </v>
    <v>       0.00000000      -0.00000000       0.09714563 </v>
   </varray>
  </crystal>
  <varray name="positions" >
   <v>       0.53849861       0.40672304       0.36086799 </v>
   <v>       0.39478738       0.48018414       0.43864300 </v>
   <v>       0.55163667       0.56502520       0.44308287 </v>
   <v>       0.52805619       0.41630554       0.53929108 </v>
   <v>       0.50339426       0.46743030       0.44521021 </v>
  </varray>
  <varray name="velocities" >
   <v>      -0.00008456       0.00054941      -0.00025826 </v>
   <v>       0.00048564      -0.00055038       0.00018682 </v>
   <v>      -0.00142709      -0.00028970      -0.00132569 </v>
   <v>      -0.00248980       0.00021869      -0.00258886 </v>
   <v>       0.00029272       0.00000599       0.00033186 </v>
  </varray>
 </structure>
 <calculation>
  <scstep>
   <time name="dav">    2.98    2.99</time>
   <time name="total">    4.74    4.75</time>
   <energy>
    <i name="alphaZ">      0.23811771 </i>
    <i name="ewald">    128.45799505 </i>
    <i name="hartreedc">   -244.16736304 </i>
    <i name="XCdc">     21.98326296 </i>
    <i name="pawpsdc">    117.05815612 </i>
    <i name="pawaedc">   -117.66307307 </i>
    <i name="eentropy">      0.00457154 </i>
    <i name="bandstr">    -92.11329919 </i>
    <i name="atom">    197.04175453 </i>
    <i name="e_fr_energy">     10.84012261 </i>
    <i name="e_wo_entrp">     10.83555108 </i>
    <i name="e_0_energy">     10.83859877 </i>
   </energy>
  </scstep>
  <scstep>
   <time name="dav">    2.15    2.16</time>
   <time name="total">    2.15    2.16</time>
   <energy>
    <i name="e_fr_energy">    -23.50344235 </i>
    <i name="e_wo_entrp">    -23.50732958 </i>
    <i name="e_0_energy">    -23.50473809 </i>
   </energy>
  </scstep>
  <scstep>
   <time name="dav">    2.13    2.14</time>
   <time name="total">    2.13    2.14</time>
   <energy>
    <i name="e_fr_energy">    -27.35699907 </i>
    <i name="e_wo_entrp">    -27.37162774 </i>
    <i name="e_0_energy">    -27.36187529 </i>
   </energy>
  </scstep>
  <scstep>
   <time name="dav">    3.77    3.78</time>
   <time name="total">    3.77    3.78</time>
   <energy>
    <i name="e_fr_energy">    -27.51142013 </i>
    <i name="e_wo_entrp">    -27.52568938 </i>
    <i name="e_0_energy">    -27.51617654 </i>
   </energy>
  </scstep>
  <scstep>
   <time name="dav">    2.88    2.88</time>
   <time name="total">    3.11    3.12</time>
   <energy>
    <i name="e_fr_energy">    -27.51146904 </i>
    <i name="e_wo_entrp">    -27.52573818 </i>
    <i name="e_0_energy">    -27.51622542 </i>
   </energy>
  </scstep>
  <scstep>
   <time name="diag">    0.45    0.45</time>
   <time name="diis">    1.52    1.52</time>
   <time name="orth">    0.01    0.01</time>
   <time name="total">    3.99    4.00</time>
   <energy>
    <i name="e_fr_energy">    -24.65345701 </i>
    <i name="e_wo_entrp">    -24.67578539 </i>
    <i name="e_0_energy">    -24.66089980 </i>
   </energy>
  </scstep>
  <scstep>
   <time name="diag">    0.46    0.46</time>
   <time name="diis">    1.54    1.54</time>
   <time name="orth">    0.01    0.01</time>
   <time name="total">    4.02    4.03</time>
   <energy>
    <i name="e_fr_energy">    -24.16703303 </i>
    <i name="e_wo_entrp">    -24.20075193 </i>
    <i name="e_0_energy">    -24.17827266 </i>
   </energy>
  </scstep>
  <scstep>
   <time name="diag">    0.50    0.50</time>
   <time name="diis">    1.54    1.55</time>
   <time name="orth">    0.01    0.01</time>
   <time name="total">    4.02    4.03</time>
   <energy>
    <i name="e_fr_energy">    -24.01893908 </i>
    <i name="e_wo_entrp">    -24.05971175 </i>
    <i name="e_0_energy">    -24.03252997 </i>
   </energy>
  </scstep>
  <scstep>
   <time name="diag">    0.50    0.50</time>
   <time name="diis">    1.53    1.53</time>
   <time name="orth">    0.01    0.01</time>
   <time name="total">    4.03    4.04</time>
   <energy>
    <i name="e_fr_energy">    -24.01287424 </i>
    <i name="e_wo_entrp">    -24.05397852 </i>
    <i name="e_0_energy">    -24.02657567 </i>
   </energy>
  </scstep>
  <scstep>
   <time name="diag">    0.50    0.50</time>
   <time name="diis">    1.53    1.53</time>
   <time name="orth">    0.01    0.01</time>
   <time name="total">    4.02    4.03</time>
   <energy>
    <i name="e_fr_energy">    -24.01179443 </i>
    <i name="e_wo_entrp">    -24.05308037 </i>
    <i name="e_0_energy">    -24.02555641 </i>
   </energy>
  </scstep>
  <scstep>
   <time name="diag">    0.49    0.49</time>
   <time name="diis">    1.55    1.56</time>
   <time name="orth">    0.01    0.01</time>
   <time name="total">    3.99    4.00</time>
   <energy>
    <i name="e_fr_energy">    -24.00762380 </i>
    <i name="e_wo_entrp">    -24.04885157 </i>
    <i name="e_0_energy">    -24.02136639 </i>
   </energy>
  </scstep>
  <scstep>
   <time name="diag">    0.49    0.49</time>
   <time name="diis">    1.54    1.54</time>
   <time name="orth">    0.01    0.01</time>
   <time name="total">    3.95    3.96</time>
   <energy>
    <i name="e_fr_energy">    -24.01089960 </i>
    <i name="e_wo_entrp">    -24.05216307 </i>
    <i name="e_0_energy">    -24.02465409 </i>
   </energy>
  </scstep>
  <scstep>
   <time name="diag">    0.49    0.49</time>
   <time name="diis">    1.55    1.55</time>
   <time name="orth">    0.01    0.01</time>
   <time name="total">    3.88    3.88</time>
   <energy>
    <i name="e_fr_energy">    -24.01570153 </i>
    <i name="e_wo_entrp">    -24.05709656 </i>
    <i name="e_0_energy">    -24.02949987 </i>
   </energy>
  </scstep>
  <scstep>
   <time name="diag">    0.47    0.47</time>
   <time name="diis">    1.59    1.59</time>
   <time name="orth">    0.01    0.01</time>
   <time name="total">    3.94    3.95</time>
   <energy>
    <i name="e_fr_energy">    -24.01695582 </i>
    <i name="e_wo_entrp">    -24.05830312 </i>
    <i name="e_0_energy">    -24.03073825 </i>
   </energy>
  </scstep>
  <scstep>
   <time name="diag">    0.47    0.47</time>
   <time name="diis">    1.60    1.60</time>
   <time name="orth">    0.01    0.01</time>
   <time name="total">    3.89    3.90</time>
   <energy>
    <i name="e_fr_energy">    -24.01956330 </i>
    <i name="e_wo_entrp">    -24.06082740 </i>
    <i name="e_0_energy">    -24.03331800 </i>
   </energy>
  </scstep>
  <scstep>
   <time name="diag">    0.46    0.46</time>
   <time name="diis">    1.61    1.61</time>
   <time name="orth">    0.01    0.01</time>
   <time name="total">    3.87    3.88</time>
   <energy>
    <i name="e_fr_energy">    -24.01972399 </i>
    <i name="e_wo_entrp">    -24.06102494 </i>
    <i name="e_0_energy">    -24.03349097 </i>
   </energy>
  </scstep>
  <scstep>
   <time name="diag">    0.47    0.47</time>
   <time name="diis">    1.58    1.58</time>
   <time name="orth">    0.01    0.01</time>
   <time name="total">    3.87    3.88</time>
   <energy>
    <i name="e_fr_energy">    -24.02019427 </i>
    <i name="e_wo_entrp">    -24.06151310 </i>
    <i name="e_0_energy">    -24.03396721 </i>
   </energy>
  </scstep>
  <scstep>
   <time name="diag">    0.46    0.46</time>
   <time name="diis">    1.57    1.58</time>
   <time name="orth">    0.01    0.01</time>
   <time name="total">    3.84    3.85</time>
   <energy>
    <i name="e_fr_energy">    -24.02024015 </i>
    <i name="e_wo_entrp">    -24.06156831 </i>
    <i name="e_0_energy">    -24.03401621 </i>
   </energy>
  </scstep>
  <scstep>
   <time name="diag">    0.47    0.47</time>
   <time name="diis">    1.56    1.56</time>
   <time name="orth">    0.01    0.01</time>
   <time name="total">    3.85    3.86</time>
   <energy>
    <i name="e_fr_energy">    -24.02029301 </i>
    <i name="e_wo_entrp">    -24.06162004 </i>
    <i name="e_0_energy">    -24.03406869 </i>
   </energy>
  </scstep>
  <scstep>
   <time name="diag">    0.47    0.47</time>
   <time name="diis">    1.53    1.54</time>
   <time name="orth">    0.01    0.01</time>
   <time name="total">    3.90    3.91</time>
   <energy>
    <i name="e_fr_energy">    -24.02030588 </i>
    <i name="e_wo_entrp">    -24.06163037 </i>
    <i name="e_0_energy">    -24.03408071 </i>
   </energy>
  </scstep>
  <scstep>
   <time name="diag">    0.45    0.45</time>
   <time name="diis">    1.16    1.17</time>
   <time name="orth">    0.01    0.01</time>
   <time name="total">    3.51    3.52</time>
   <energy>
    <i name="e_fr_energy">    -24.02031006 </i>
    <i name="e_wo_entrp">    -24.06163519 </i>
    <i name="e_0_energy">    -24.03408511 </i>
   </energy>
  </scstep>
  <scstep>
   <time name="diag">    0.45    0.45</time>
   <time name="diis">    1.12    1.13</time>
   <time name="orth">    0.01    0.01</time>
   <time name="total">    3.49    3.50</time>
   <energy>
    <i name="e_fr_energy">    -24.02031114 </i>
    <i name="e_wo_entrp">    -24.06163558 </i>
    <i name="e_0_energy">    -24.03408595 </i>
   </energy>
  </scstep>
  <scstep>
   <time name="diag">    0.45    0.45</time>
   <time name="diis">    1.11    1.11</time>
   <time name="orth">    0.01    0.01</time>
   <time name="total">    3.23    3.24</time>
   <energy>
    <i name="alphaZ">      0.23811771 </i>
    <i name="ewald">    128.45799505 </i>
    <i name="hartreedc">   -284.40053093 </i>
    <i name="XCdc">     24.69770241 </i>
    <i name="pawpsdc">    454.84957023 </i>
    <i name="pawaedc">   -455.63517533 </i>
    <i name="eentropy">      0.04132407 </i>
    <i name="bandstr">    -89.31106963 </i>
    <i name="atom">    197.04175453 </i>
    <i name="e_fr_energy">    -24.02031189 </i>
    <i name="e_wo_entrp">    -24.06163596 </i>
    <i name="e_0_energy">    -24.03408658 </i>
   </energy>
  </scstep>
  <structure>
   <crystal>
    <varray name="basis" >
     <v>       9.77471821       0.00000000       0.00000000 </v>
     <v>      -0.23536270      10.11096303       0.00000000 </v>
     <v>      -0.21358123      -0.20878982      10.29382398 </v>
    </varray>
    <i name="volume">   1017.35730139 </i>
    <varray name="rec_basis" >
     <v>       0.10230474       0.00238145       0.00217097 </v>
     <v>      -0.00000000       0.09890255       0.00200604 </v>
     <v>       0.00000000      -0.00000000       0.09714563 </v>
    </varray>
   </crystal>
   <varray name="positions" >
    <v>       0.53849861       0.40672304       0.36086799 </v>
    <v>       0.39478738       0.48018414       0.43864300 </v>
    <v>       0.55163667       0.56502520       0.44308287 </v>
    <v>       0.52805619       0.41630554       0.53929108 </v>
    <v>       0.50339426       0.46743030       0.44521021 </v>
   </varray>
  </structure>
  <varray name="forces" >
   <v>       0.09047290      -0.02391999       1.04190156 </v>
   <v>      -0.50193710       0.23902703       0.05470284 </v>
   <v>       0.28612612       0.45265148      -0.11317334 </v>
   <v>      -0.55124110       0.43096329      -0.94883621 </v>
   <v>       0.93384584      -0.03476134      -0.22057942 </v>
  </varray>
  <varray name="stress" >
   <v>       1.14790523      -0.07240636       0.00238370 </v>
   <v>      -0.07240636       0.71021608       0.02918012 </v>
   <v>       0.00238370       0.02918012      -3.36135669 </v>
  </varray>
  <energy>
   <i name="e_fr_energy">    -24.02031189 </i>
   <i name="e_wo_entrp">    -24.03408658 </i>
   <i name="e_0_energy">      0.04132407 </i>
   <i name="kinetic">      0.05601463 </i>
   <i name="lattice kinetic">      0.00000000 </i>
   <i name="nosepot">      0.00000000 </i>
   <i name="nosekinetic">      0.00010933 </i>
   <i name="total">    -23.96418794 </i>
  </energy>
  <dos>
   <i name="efermi">     -9.06275881 </i>
   <total>
    <array>
     <dimension dim="1">gridpoints</dimension>
     <dimension dim="2">spin</dimension>
     <field>energy</field>
     <field>total</field>
     <field>integrated</field>
     <set>
      <set comment="spin 1">
       <r>   -18.8564     0.0000     0.0000 </r>
       <r>   -18.7845     0.0000     0.0000 </r>
       <r>   -18.7126     0.0000     0.0000 </r>
       <r>   -18.6406     0.0000     0.0000 </r>
       <r>   -18.5687     0.0000     0.0000 </r>
       <r>   -18.4968    -0.0000    -0.0000 </r>
       <r>   -18.4249    -0.0000    -0.0000 </r>
       <r>   -18.3530    -0.0000    -0.0000 </r>
       <r>   -18.2811    -0.0000    -0.0000 </r>
       <r>   -18.2092    -0.0000    -0.0000 </r>
       <r>   -18.1373    -0.0000    -0.0000 </r>
       <r>   -18.0653    -0.0000    -0.0000 </r>
       <r>   -17.9934    -0.0000    -0.0000 </r>
       <r>   -17.9215    -0.0000    -0.0000 </r>
       <r>   -17.8496    -0.0000    -0.0000 </r>
       <r>   -17.7777    -0.0000    -0.0000 </r>
       <r>   -17.7058    -0.0000    -0.0000 </r>
       <r>   -17.6339    -0.0000    -0.0000 </r>
       <r>   -17.5620    -0.0001    -0.0000 </r>
       <r>   -17.4900    -0.0009    -0.0001 </r>
       <r>   -17.4181    -0.0063    -0.0005 </r>
       <r>   -17.3462    -0.0330    -0.0029 </r>
       <r>   -17.2743    -0.1244    -0.0118 </r>
       <r>   -17.2024    -0.3152    -0.0345 </r>
       <r>   -17.1305    -0.4321    -0.0656 </r>
       <r>   -17.0586     0.1824    -0.0525 </r>
       <r>   -16.9867     2.3491     0.1165 </r>
       <r>   -16.9147     5.7301     0.5285 </r>
       <r>   -16.8428     8.1450     1.1143 </r>
       <r>   -16.7709     7.5211     1.6551 </r>
       <r>   -16.6990     4.4229     1.9732 </r>
       <r>   -16.6271     1.3297     2.0688 </r>
       <r>   -16.5552    -0.1953     2.0548 </r>
       <r>   -16.4833    -0.4267     2.0241 </r>
       <r>   -16.4113    -0.2344     2.0072 </r>
       <r>   -16.3394    -0.0787     2.0016 </r>
       <r>   -16.2675    -0.0183     2.0003 </r>
       <r>   -16.1956    -0.0031     2.0000 </r>
       <r>   -16.1237    -0.0004     2.0000 </r>
       <r>   -16.0518    -0.0000     2.0000 </r>
       <r>   -15.9799    -0.0000     2.0000 </r>
       <r>   -15.9080    -0.0000     2.0000 </r>
       <r>   -15.8360    -0.0000     2.0000 </r>
       <r>   -15.7641    -0.0000     2.0000 </r>
       <r>   -15.6922    -0.0000     2.0000 </r>
       <r>   -15.6203    -0.0000     2.0000 </r>
       <r>   -15.5484     0.0000     2.0000 </r>
       <r>   -15.4765     0.0000     2.0000 </r>
       <r>   -15.4046     0.0000     2.0000 </r>
       <r>   -15.3327     0.0000     2.0000 </r>
       <r>   -15.2607     0.0000     2.0000 </r>
       <r>   -15.1888     0.0000     2.0000 </r>
       <r>   -15.1169     0.0000     2.0000 </r>
       <r>   -15.0450     0.0000     2.0000 </r>
       <r>   -14.9731     0.0000     2.0000 </r>
       <r>   -14.9012     0.0000     2.0000 </r>
       <r>   -14.8293     0.0000     2.0000 </r>
       <r>   -14.7574     0.0000     2.0000 </r>
       <r>   -14.6854     0.0000     2.0000 </r>
       <r>   -14.6135     0.0000     2.0000 </r>
       <r>   -14.5416     0.0000     2.0000 </r>
       <r>   -14.4697     0.0000     2.0000 </r>
       <r>   -14.3978     0.0000     2.0000 </r>
       <r>   -14.3259     0.0000     2.0000 </r>
       <r>   -14.2540     0.0000     2.0000 </r>
       <r>   -14.1821     0.0000     2.0000 </r>
       <r>   -14.1101     0.0000     2.0000 </r>
       <r>   -14.0382     0.0000     2.0000 </r>
       <r>   -13.9663     0.0000     2.0000 </r>
       <r>   -13.8944     0.0000     2.0000 </r>
       <r>   -13.8225     0.0000     2.0000 </r>
       <r>   -13.7506     0.0000     2.0000 </r>
       <r>   -13.6787     0.0000     2.0000 </r>
       <r>   -13.6068     0.0000     2.0000 </r>
       <r>   -13.5348     0.0000     2.0000 </r>
       <r>   -13.4629     0.0000     2.0000 </r>
       <r>   -13.3910     0.0000     2.0000 </r>
       <r>   -13.3191     0.0000     2.0000 </r>
       <r>   -13.2472     0.0000     2.0000 </r>
       <r>   -13.1753     0.0000     2.0000 </r>
       <r>   -13.1034     0.0000     2.0000 </r>
       <r>   -13.0314     0.0000     2.0000 </r>
       <r>   -12.9595     0.0000     2.0000 </r>
       <r>   -12.8876     0.0000     2.0000 </r>
       <r>   -12.8157     0.0000     2.0000 </r>
       <r>   -12.7438     0.0000     2.0000 </r>
       <r>   -12.6719     0.0000     2.0000 </r>
       <r>   -12.6000     0.0000     2.0000 </r>
       <r>   -12.5281     0.0000     2.0000 </r>
       <r>   -12.4561     0.0000     2.0000 </r>
       <r>   -12.3842     0.0000     2.0000 </r>
       <r>   -12.3123     0.0000     2.0000 </r>
       <r>   -12.2404     0.0000     2.0000 </r>
       <r>   -12.1685     0.0000     2.0000 </r>
       <r>   -12.0966     0.0000     2.0000 </r>
       <r>   -12.0247     0.0000     2.0000 </r>
       <r>   -11.9528     0.0000     2.0000 </r>
       <r>   -11.8808     0.0000     2.0000 </r>
       <r>   -11.8089     0.0000     2.0000 </r>
       <r>   -11.7370     0.0000     2.0000 </r>
       <r>   -11.6651     0.0000     2.0000 </r>
       <r>   -11.5932     0.0000     2.0000 </r>
       <r>   -11.5213     0.0000     2.0000 </r>
       <r>   -11.4494     0.0000     2.0000 </r>
       <r>   -11.3775     0.0000     2.0000 </r>
       <r>   -11.3055     0.0000     2.0000 </r>
       <r>   -11.2336     0.0000     2.0000 </r>
       <r>   -11.1617     0.0000     2.0000 </r>
       <r>   -11.0898     0.0000     2.0000 </r>
       <r>   -11.0179     0.0000     2.0000 </r>
       <r>   -10.9460    -0.0000     2.0000 </r>
       <r>   -10.8741    -0.0000     2.0000 </r>
       <r>   -10.8022    -0.0000     2.0000 </r>
       <r>   -10.7302    -0.0000     2.0000 </r>
       <r>   -10.6583    -0.0000     2.0000 </r>
       <r>   -10.5864    -0.0000     2.0000 </r>
       <r>   -10.5145    -0.0000     2.0000 </r>
       <r>   -10.4426    -0.0000     2.0000 </r>
       <r>   -10.3707    -0.0000     2.0000 </r>
       <r>   -10.2988    -0.0000     2.0000 </r>
       <r>   -10.2268    -0.0000     2.0000 </r>
       <r>   -10.1549    -0.0000     2.0000 </r>
       <r>   -10.0830    -0.0000     2.0000 </r>
       <r>   -10.0111    -0.0002     2.0000 </r>
       <r>    -9.9392    -0.0017     1.9999 </r>
       <r>    -9.8673    -0.0120     1.9990 </r>
       <r>    -9.7954    -0.0640     1.9944 </r>
       <r>    -9.7235    -0.2483     1.9765 </r>
       <r>    -9.6515    -0.6635     1.9288 </r>
       <r>    -9.5796    -1.0438     1.8538 </r>
       <r>    -9.5077    -0.1229     1.8449 </r>
       <r>    -9.4358     4.0780     2.1382 </r>
       <r>    -9.3639    11.8605     2.9911 </r>
       <r>    -9.2920    19.6184     4.4019 </r>
       <r>    -9.2201    22.0584     5.9882 </r>
       <r>    -9.1482    17.5095     7.2474 </r>
       <r>    -9.0762     9.5158     7.9317 </r>
       <r>    -9.0043     2.9030     8.1404 </r>
       <r>    -8.9324    -0.2677     8.1212 </r>
       <r>    -8.8605    -0.8693     8.0587 </r>
       <r>    -8.7886    -0.5404     8.0198 </r>
       <r>    -8.7167    -0.2069     8.0049 </r>
       <r>    -8.6448    -0.0557     8.0009 </r>
       <r>    -8.5729    -0.0110     8.0001 </r>
       <r>    -8.5009    -0.0016     8.0000 </r>
       <r>    -8.4290    -0.0002     8.0000 </r>
       <r>    -8.3571    -0.0000     8.0000 </r>
       <r>    -8.2852    -0.0000     8.0000 </r>
       <r>    -8.2133    -0.0000     8.0000 </r>
       <r>    -8.1414    -0.0000     8.0000 </r>
       <r>    -8.0695    -0.0000     8.0000 </r>
       <r>    -7.9976    -0.0000     8.0000 </r>
       <r>    -7.9256    -0.0000     8.0000 </r>
       <r>    -7.8537     0.0000     8.0000 </r>
       <r>    -7.7818     0.0000     8.0000 </r>
       <r>    -7.7099     0.0000     8.0000 </r>
       <r>    -7.6380     0.0000     8.0000 </r>
       <r>    -7.5661     0.0000     8.0000 </r>
       <r>    -7.4942     0.0000     8.0000 </r>
       <r>    -7.4223     0.0000     8.0000 </r>
       <r>    -7.3503     0.0000     8.0000 </r>
       <r>    -7.2784     0.0000     8.0000 </r>
       <r>    -7.2065     0.0000     8.0000 </r>
       <r>    -7.1346     0.0000     8.0000 </r>
       <r>    -7.0627     0.0000     8.0000 </r>
       <r>    -6.9908     0.0000     8.0000 </r>
       <r>    -6.9189     0.0000     8.0000 </r>
       <r>    -6.8469     0.0000     8.0000 </r>
       <r>    -6.7750     0.0000     8.0000 </r>
       <r>    -6.7031     0.0000     8.0000 </r>
       <r>    -6.6312     0.0000     8.0000 </r>
       <r>    -6.5593     0.0000     8.0000 </r>
       <r>    -6.4874     0.0000     8.0000 </r>
       <r>    -6.4155     0.0000     8.0000 </r>
       <r>    -6.3436     0.0000     8.0000 </r>
       <r>    -6.2716     0.0000     8.0000 </r>
       <r>    -6.1997     0.0000     8.0000 </r>
       <r>    -6.1278     0.0000     8.0000 </r>
       <r>    -6.0559     0.0000     8.0000 </r>
       <r>    -5.9840     0.0000     8.0000 </r>
       <r>    -5.9121     0.0000     8.0000 </r>
       <r>    -5.8402     0.0000     8.0000 </r>
       <r>    -5.7683     0.0000     8.0000 </r>
       <r>    -5.6963     0.0000     8.0000 </r>
       <r>    -5.6244     0.0000     8.0000 </r>
       <r>    -5.5525     0.0000     8.0000 </r>
       <r>    -5.4806     0.0000     8.0000 </r>
       <r>    -5.4087     0.0000     8.0000 </r>
       <r>    -5.3368     0.0000     8.0000 </r>
       <r>    -5.2649     0.0000     8.0000 </r>
       <r>    -5.1930     0.0000     8.0000 </r>
       <r>    -5.1210     0.0000     8.0000 </r>
       <r>    -5.0491     0.0000     8.0000 </r>
       <r>    -4.9772     0.0000     8.0000 </r>
       <r>    -4.9053     0.0000     8.0000 </r>
       <r>    -4.8334     0.0000     8.0000 </r>
       <r>    -4.7615     0.0000     8.0000 </r>
       <r>    -4.6896     0.0000     8.0000 </r>
       <r>    -4.6177     0.0000     8.0000 </r>
       <r>    -4.5457     0.0000     8.0000 </r>
       <r>    -4.4738     0.0000     8.0000 </r>
       <r>    -4.4019     0.0000     8.0000 </r>
       <r>    -4.3300     0.0000     8.0000 </r>
       <r>    -4.2581     0.0000     8.0000 </r>
       <r>    -4.1862     0.0000     8.0000 </r>
       <r>    -4.1143     0.0000     8.0000 </r>
       <r>    -4.0423     0.0000     8.0000 </r>
       <r>    -3.9704     0.0000     8.0000 </r>
       <r>    -3.8985     0.0000     8.0000 </r>
       <r>    -3.8266     0.0000     8.0000 </r>
       <r>    -3.7547     0.0000     8.0000 </r>
       <r>    -3.6828     0.0000     8.0000 </r>
       <r>    -3.6109     0.0000     8.0000 </r>
       <r>    -3.5390     0.0000     8.0000 </r>
       <r>    -3.4670     0.0000     8.0000 </r>
       <r>    -3.3951     0.0000     8.0000 </r>
       <r>    -3.3232     0.0000     8.0000 </r>
       <r>    -3.2513     0.0000     8.0000 </r>
       <r>    -3.1794     0.0000     8.0000 </r>
       <r>    -3.1075     0.0000     8.0000 </r>
       <r>    -3.0356     0.0000     8.0000 </r>
       <r>    -2.9637     0.0000     8.0000 </r>
       <r>    -2.8917     0.0000     8.0000 </r>
       <r>    -2.8198     0.0000     8.0000 </r>
       <r>    -2.7479     0.0000     8.0000 </r>
       <r>    -2.6760     0.0000     8.0000 </r>
       <r>    -2.6041     0.0000     8.0000 </r>
       <r>    -2.5322     0.0000     8.0000 </r>
       <r>    -2.4603     0.0000     8.0000 </r>
       <r>    -2.3884     0.0000     8.0000 </r>
       <r>    -2.3164     0.0000     8.0000 </r>
       <r>    -2.2445     0.0000     8.0000 </r>
       <r>    -2.1726     0.0000     8.0000 </r>
       <r>    -2.1007     0.0000     8.0000 </r>
       <r>    -2.0288     0.0000     8.0000 </r>
       <r>    -1.9569    -0.0000     8.0000 </r>
       <r>    -1.8850    -0.0000     8.0000 </r>
       <r>    -1.8131    -0.0000     8.0000 </r>
       <r>    -1.7411    -0.0000     8.0000 </r>
       <r>    -1.6692    -0.0000     8.0000 </r>
       <r>    -1.5973    -0.0000     8.0000 </r>
       <r>    -1.5254    -0.0000     8.0000 </r>
       <r>    -1.4535    -0.0000     8.0000 </r>
       <r>    -1.3816    -0.0000     8.0000 </r>
       <r>    -1.3097    -0.0000     8.0000 </r>
       <r>    -1.2377    -0.0000     8.0000 </r>
       <r>    -1.1658    -0.0000     8.0000 </r>
       <r>    -1.0939    -0.0000     8.0000 </r>
       <r>    -1.0220    -0.0001     8.0000 </r>
       <r>    -0.9501    -0.0011     7.9999 </r>
       <r>    -0.8782    -0.0078     7.9994 </r>
       <r>    -0.8063    -0.0392     7.9965 </r>
       <r>    -0.7344    -0.1416     7.9863 </r>
       <r>    -0.6624    -0.3399     7.9619 </r>
       <r>    -0.5905    -0.4153     7.9320 </r>
       <r>    -0.5186     0.3449     7.9568 </r>
       <r>    -0.4467     2.7054     8.1514 </r>
       <r>    -0.3748     6.1092     8.5907 </r>
       <r>    -0.3029     8.2423     9.1835 </r>
       <r>    -0.2310     7.2470     9.7046 </r>
       <r>    -0.1591     4.0190     9.9936 </r>
       <r>    -0.0871     1.0663    10.0703 </r>
       <r>    -0.0152    -0.2762    10.0504 </r>
       <r>     0.0567    -0.4479    10.0182 </r>
       <r>     0.1286    -0.3542     9.9928 </r>
       <r>     0.2005    -0.4729     9.9588 </r>
       <r>     0.2724    -0.7554     9.9044 </r>
       <r>     0.3443    -0.5131     9.8675 </r>
       <r>     0.4162     1.6103     9.9833 </r>
       <r>     0.4882     6.7168    10.4664 </r>
       <r>     0.5601    13.9525    11.4697 </r>
       <r>     0.6320    19.8896    12.9000 </r>
       <r>     0.7039    20.6200    14.3829 </r>
       <r>     0.7758    15.3624    15.4876 </r>
       <r>     0.8477     7.5843    16.0330 </r>
       <r>     0.9196     1.7060    16.1557 </r>
       <r>     0.9915    -0.6943    16.1058 </r>
       <r>     1.0635    -0.8584    16.0441 </r>
       <r>     1.1354    -0.4328    16.0130 </r>
       <r>     1.2073    -0.1411    16.0028 </r>
       <r>     1.2792    -0.0327    16.0005 </r>
       <r>     1.3511    -0.0056    16.0001 </r>
       <r>     1.4230    -0.0007    16.0000 </r>
       <r>     1.4949    -0.0001    16.0000 </r>
       <r>     1.5668    -0.0000    16.0000 </r>
       <r>     1.6388    -0.0000    16.0000 </r>
       <r>     1.7107    -0.0000    16.0000 </r>
       <r>     1.7826    -0.0000    16.0000 </r>
       <r>     1.8545    -0.0000    16.0000 </r>
       <r>     1.9264    -0.0000    16.0000 </r>
       <r>     1.9983    -0.0000    16.0000 </r>
       <r>     2.0702     0.0000    16.0000 </r>
       <r>     2.1422     0.0000    16.0000 </r>
       <r>     2.2141     0.0000    16.0000 </r>
       <r>     2.2860     0.0000    16.0000 </r>
       <r>     2.3579     0.0000    16.0000 </r>
       <r>     2.4298     0.0000    16.0000 </r>
       <r>     2.5017     0.0000    16.0000 </r>
       <r>     2.5736     0.0000    16.0000 </r>
       <r>     2.6455     0.0000    16.0000 </r>
       <r>     2.7175     0.0000    16.0000 </r>
      </set>
     </set>
    </array>
   </total>
  </dos>
  <time name="totalsc">   92.84   93.07</time>
 </calculation>
 <calculation>
  <scstep>
   <time name="dav">    2.21    2.22</time>
   <time name="total">    4.12    4.13</time>
   <energy>
    <i name="alphaZ">      0.23811771 </i>
    <i name="ewald">    132.79544310 </i>
    <i name="hartreedc">   -286.91504320 </i>
    <i name="XCdc">     24.82358760 </i>
    <i name="pawpsdc">    454.84819535 </i>
    <i name="pawaedc">   -455.63380657 </i>
    <i name="eentropy">      0.01195100 </i>
    <i name="bandstr">    -91.19826859 </i>
    <i name="atom">    197.04175453 </i>
    <i name="e_fr_energy">    -23.98806906 </i>
    <i name="e_wo_entrp">    -24.00002006 </i>
    <i name="e_0_energy">    -23.99205273 </i>
   </energy>
  </scstep>
  <scstep>
   <time name="diag">    0.47    0.47</time>
   <time name="diis">    1.59    1.60</time>
   <time name="orth">    0.01    0.01</time>
   <time name="total">    3.86    3.87</time>
   <energy>
    <i name="e_fr_energy">    -23.98958129 </i>
    <i name="e_wo_entrp">    -24.00150175 </i>
    <i name="e_0_energy">    -23.99355478 </i>
   </energy>
  </scstep>
  <scstep>
   <time name="diag">    0.48    0.48</time>
   <time name="diis">    1.58    1.58</time>
   <time name="orth">    0.01    0.01</time>
   <time name="total">    3.87    3.88</time>
   <energy>
    <i name="e_fr_energy">    -23.98309661 </i>
    <i name="e_wo_entrp">    -23.99480046 </i>
    <i name="e_0_energy">    -23.98699789 </i>
   </energy>
  </scstep>
  <scstep>
   <time name="diag">    0.48    0.48</time>
   <time name="diis">    1.60    1.60</time>
   <time name="orth">    0.01    0.01</time>
   <time name="total">    3.88    3.89</time>
   <energy>
    <i name="e_fr_energy">    -23.97853255 </i>
    <i name="e_wo_entrp">    -23.99025730 </i>
    <i name="e_0_energy">    -23.98244080 </i>
   </energy>
  </scstep>
  <scstep>
   <time name="diag">    0.50    0.51</time>
   <time name="diis">    1.54    1.54</time>
   <time name="orth">    0.01    0.01</time>
   <time name="total">    3.85    3.86</time>
   <energy>
    <i name="e_fr_energy">    -23.97668654 </i>
    <i name="e_wo_entrp">    -23.98854455 </i>
    <i name="e_0_energy">    -23.98063921 </i>
   </energy>
  </scstep>
  <scstep>
   <time name="diag">    0.50    0.50</time>
   <time name="diis">    1.51    1.51</time>
   <time name="orth">    0.01    0.01</time>
   <time name="total">    3.89    3.90</time>
   <energy>
    <i name="e_fr_energy">    -23.97706743 </i>
    <i name="e_wo_entrp">    -23.98899893 </i>
    <i name="e_0_energy">    -23.98104460 </i>
   </energy>
  </scstep>
  <scstep>
   <time name="diag">    0.47    0.47</time>
   <time name="diis">    1.49    1.49</time>
   <time name="orth">    0.01    0.01</time>
   <time name="total">    3.83    3.84</time>
   <energy>
    <i name="e_fr_energy">    -23.97650529 </i>
    <i name="e_wo_entrp">    -23.98849368 </i>
    <i name="e_0_energy">    -23.98050142 </i>
   </energy>
  </scstep>
  <scstep>
   <time name="diag">    0.46    0.46</time>
   <time name="diis">    1.53    1.54</time>
   <time name="orth">    0.01    0.01</time>
   <time name="total">    3.90    3.91</time>
   <energy>
    <i name="e_fr_energy">    -23.97645404 </i>
    <i name="e_wo_entrp">    -23.98847067 </i>
    <i name="e_0_energy">    -23.98045958 </i>
   </energy>
  </scstep>
  <scstep>
   <time name="diag">    0.44    0.44</time>
   <time name="diis">    1.58    1.58</time>
   <time name="orth">    0.01    0.01</time>
   <time name="total">    3.94    3.95</time>
   <energy>
    <i name="e_fr_energy">    -23.97643235 </i>
    <i name="e_wo_entrp">    -23.98848698 </i>
    <i name="e_0_energy">    -23.98045056 </i>
   </energy>
  </scstep>
  <scstep>
   <time name="diag">    0.46    0.46</time>
   <time name="diis">    1.61    1.62</time>
   <time name="orth">    0.01    0.01</time>
   <time name="total">    3.98    3.99</time>
   <energy>
    <i name="e_fr_energy">    -23.97643348 </i>
    <i name="e_wo_entrp">    -23.98851244 </i>
    <i name="e_0_energy">    -23.98045980 </i>
   </energy>
  </scstep>
  <scstep>
   <time name="diag">    0.45    0.45</time>
   <time name="diis">    1.61    1.62</time>
   <time name="orth">    0.01    0.01</time>
   <time name="total">    3.99    4.00</time>
   <energy>
    <i name="e_fr_energy">    -23.97649507 </i>
    <i name="e_wo_entrp">    -23.98858267 </i>
    <i name="e_0_energy">    -23.98052427 </i>
   </energy>
  </scstep>
  <scstep>
   <time name="diag">    0.46    0.46</time>
   <time name="diis">    1.58    1.58</time>
   <time name="orth">    0.01    0.01</time>
   <time name="total">    3.90    3.91</time>
   <energy>
    <i name="e_fr_energy">    -23.97650397 </i>
    <i name="e_wo_entrp">    -23.98859248 </i>
    <i name="e_0_energy">    -23.98053348 </i>
   </energy>
  </scstep>
  <scstep>
   <time name="diag">    0.48    0.48</time>
   <time name="diis">    1.24    1.24</time>
   <time name="orth">    0.01    0.01</time>
   <time name="total">    3.63    3.64</time>
   <energy>
    <i name="e_fr_energy">    -23.97651820 </i>
    <i name="e_wo_entrp">    -23.98860393 </i>
    <i name="e_0_energy">    -23.98054678 </i>
   </energy>
  </scstep>
  <scstep>
   <time name="diag">    0.47    0.47</time>
   <time name="diis">    1.20    1.21</time>
   <time name="orth">    0.01    0.01</time>
   <time name="total">    3.59    3.60</time>
   <energy>
    <i name="e_fr_energy">    -23.97651994 </i>
    <i name="e_wo_entrp">    -23.98860437 </i>
    <i name="e_0_energy">    -23.98054808 </i>
   </energy>
  </scstep>
  <scstep>
   <time name="diag">    0.49    0.49</time>
   <time name="diis">    1.16    1.16</time>
   <time name="orth">    0.01    0.01</time>
   <time name="total">    3.61    3.62</time>
   <energy>
    <i name="e_fr_energy">    -23.97652315 </i>
    <i name="e_wo_entrp">    -23.98860787 </i>
    <i name="e_0_energy">    -23.98055139 </i>
   </energy>
  </scstep>
  <scstep>
   <time name="diag">    0.49    0.49</time>
   <time name="diis">    1.03    1.04</time>
   <time name="orth">    0.01    0.01</time>
   <time name="total">    3.22    3.23</time>
   <energy>
    <i name="alphaZ">      0.23811771 </i>
    <i name="ewald">    132.79544310 </i>
    <i name="hartreedc">   -288.12044906 </i>
    <i name="XCdc">     24.89148133 </i>
    <i name="pawpsdc">    485.59303240 </i>
    <i name="pawaedc">   -486.39148762 </i>
    <i name="eentropy">      0.01208474 </i>
    <i name="bandstr">    -90.03650045 </i>
    <i name="atom">    197.04175453 </i>
    <i name="e_fr_energy">    -23.97652332 </i>
    <i name="e_wo_entrp">    -23.98860807 </i>
    <i name="e_0_energy">    -23.98055157 </i>
   </energy>
  </scstep>
  <structure>
   <crystal>
    <varray name="basis" >
     <v>       9.77471821       0.00000000       0.00000000 </v>
     <v>      -0.23536270      10.11096303       0.00000000 </v>
     <v>      -0.21358123      -0.20878982      10.29382398 </v>
    </varray>
    <i name="volume">   1017.35730139 </i>
    <varray name="rec_basis" >
     <v>       0.10230474       0.00238145       0.00217097 </v>
     <v>      -0.00000000       0.09890255       0.00200604 </v>
     <v>       0.00000000      -0.00000000       0.09714563 </v>
    </varray>
   </crystal>
   <varray name="positions" >
    <v>       0.53878705       0.40700605       0.36454727 </v>
    <v>       0.39325296       0.48029920       0.43907622 </v>
    <v>       0.55130920       0.56619860       0.44138733 </v>
    <v>       0.52330757       0.41783670       0.53321962 </v>
    <v>       0.50392062       0.46717198       0.44551447 </v>
   </varray>
  </structure>
  <varray name="forces" >
   <v>       0.39123981      -0.46134944      -0.75749570 </v>
   <v>       0.68900771      -0.15726080      -0.25566803 </v>
   <v>       0.64540545       0.06056753       0.45932507 </v>
   <v>       0.49369649      -0.57362009       1.83033257 </v>
   <v>      -0.48689810       1.58562441      -1.60456004 </v>
  </varray>
  <varray name="stress" >
   <v>       0.82361690      -0.56220684       1.38967862 </v>
   <v>      -0.56220684       1.59311302      -0.94342241 </v>
   <v>       1.38967862      -0.94342242       2.76609522 </v>
  </varray>
  <energy>
   <i name="e_fr_energy">    -23.97652332 </i>
   <i name="e_wo_entrp">    -23.98055157 </i>
   <i name="e_0_energy">      0.01208474 </i>
   <i name="kinetic">      0.04127647 </i>
   <i name="lattice kinetic">      0.00000000 </i>
   <i name="nosepot">      0.00074158 </i>
   <i name="nosekinetic">      0.00068531 </i>
   <i name="total">    -23.93381996 </i>
  </energy>
  <dos>
   <i name="efermi">     -8.86902485 </i>
   <total>
    <array>
     <dimension dim="1">gridpoints</dimension>
     <dimension dim="2">spin</dimension>
     <field>energy</field>
     <field>total</field>
     <field>integrated</field>
     <set>
      <set comment="spin 1">
       <r>   -18.9980     0.0000     0.0000 </r>
       <r>   -18.9255     0.0000     0.0000 </r>
       <r>   -18.8531     0.0000     0.0000 </r>
       <r>   -18.7807     0.0000     0.0000 </r>
       <r>   -18.7083     0.0000     0.0000 </r>
       <r>   -18.6358    -0.0000    -0.0000 </r>
       <r>   -18.5634    -0.0000    -0.0000 </r>
       <r>   -18.4910    -0.0000    -0.0000 </r>
       <r>   -18.4185    -0.0000    -0.0000 </r>
       <r>   -18.3461    -0.0000    -0.0000 </r>
       <r>   -18.2737    -0.0000    -0.0000 </r>
       <r>   -18.2012    -0.0000    -0.0000 </r>
       <r>   -18.1288    -0.0000    -0.0000 </r>
       <r>   -18.0564    -0.0000    -0.0000 </r>
       <r>   -17.9840    -0.0000    -0.0000 </r>
       <r>   -17.9115    -0.0000    -0.0000 </r>
       <r>   -17.8391    -0.0000    -0.0000 </r>
       <r>   -17.7667    -0.0000    -0.0000 </r>
       <r>   -17.6942    -0.0001    -0.0000 </r>
       <r>   -17.6218    -0.0012    -0.0001 </r>
       <r>   -17.5494    -0.0081    -0.0007 </r>
       <r>   -17.4770    -0.0411    -0.0037 </r>
       <r>   -17.4045    -0.1478    -0.0144 </r>
       <r>   -17.3321    -0.3496    -0.0397 </r>
       <r>   -17.2597    -0.4046    -0.0690 </r>
       <r>   -17.1872     0.4380    -0.0373 </r>
       <r>   -17.1148     2.9217     0.1744 </r>
       <r>   -17.0424     6.3483     0.6342 </r>
       <r>   -16.9699     8.2881     1.2345 </r>
       <r>   -16.8975     7.0155     1.7426 </r>
       <r>   -16.8251     3.6844     2.0095 </r>
       <r>   -16.7527     0.8486     2.0709 </r>
       <r>   -16.6802    -0.3276     2.0472 </r>
       <r>   -16.6078    -0.3935     2.0187 </r>
       <r>   -16.5354    -0.1872     2.0051 </r>
       <r>   -16.4629    -0.0567     2.0010 </r>
       <r>   -16.3905    -0.0120     2.0002 </r>
       <r>   -16.3181    -0.0019     2.0000 </r>
       <r>   -16.2456    -0.0002     2.0000 </r>
       <r>   -16.1732    -0.0000     2.0000 </r>
       <r>   -16.1008    -0.0000     2.0000 </r>
       <r>   -16.0284    -0.0000     2.0000 </r>
       <r>   -15.9559    -0.0000     2.0000 </r>
       <r>   -15.8835    -0.0000     2.0000 </r>
       <r>   -15.8111    -0.0000     2.0000 </r>
       <r>   -15.7386    -0.0000     2.0000 </r>
       <r>   -15.6662     0.0000     2.0000 </r>
       <r>   -15.5938     0.0000     2.0000 </r>
       <r>   -15.5214     0.0000     2.0000 </r>
       <r>   -15.4489     0.0000     2.0000 </r>
       <r>   -15.3765     0.0000     2.0000 </r>
       <r>   -15.3041     0.0000     2.0000 </r>
       <r>   -15.2316     0.0000     2.0000 </r>
       <r>   -15.1592     0.0000     2.0000 </r>
       <r>   -15.0868     0.0000     2.0000 </r>
       <r>   -15.0143     0.0000     2.0000 </r>
       <r>   -14.9419     0.0000     2.0000 </r>
       <r>   -14.8695     0.0000     2.0000 </r>
       <r>   -14.7971     0.0000     2.0000 </r>
       <r>   -14.7246     0.0000     2.0000 </r>
       <r>   -14.6522     0.0000     2.0000 </r>
       <r>   -14.5798     0.0000     2.0000 </r>
       <r>   -14.5073     0.0000     2.0000 </r>
       <r>   -14.4349     0.0000     2.0000 </r>
       <r>   -14.3625     0.0000     2.0000 </r>
       <r>   -14.2900     0.0000     2.0000 </r>
       <r>   -14.2176     0.0000     2.0000 </r>
       <r>   -14.1452     0.0000     2.0000 </r>
       <r>   -14.0728     0.0000     2.0000 </r>
       <r>   -14.0003     0.0000     2.0000 </r>
       <r>   -13.9279     0.0000     2.0000 </r>
       <r>   -13.8555     0.0000     2.0000 </r>
       <r>   -13.7830     0.0000     2.0000 </r>
       <r>   -13.7106     0.0000     2.0000 </r>
       <r>   -13.6382     0.0000     2.0000 </r>
       <r>   -13.5658     0.0000     2.0000 </r>
       <r>   -13.4933     0.0000     2.0000 </r>
       <r>   -13.4209     0.0000     2.0000 </r>
       <r>   -13.3485     0.0000     2.0000 </r>
       <r>   -13.2760     0.0000     2.0000 </r>
       <r>   -13.2036     0.0000     2.0000 </r>
       <r>   -13.1312     0.0000     2.0000 </r>
       <r>   -13.0587     0.0000     2.0000 </r>
       <r>   -12.9863     0.0000     2.0000 </r>
       <r>   -12.9139     0.0000     2.0000 </r>
       <r>   -12.8415     0.0000     2.0000 </r>
       <r>   -12.7690     0.0000     2.0000 </r>
       <r>   -12.6966     0.0000     2.0000 </r>
       <r>   -12.6242     0.0000     2.0000 </r>
       <r>   -12.5517     0.0000     2.0000 </r>
       <r>   -12.4793     0.0000     2.0000 </r>
       <r>   -12.4069     0.0000     2.0000 </r>
       <r>   -12.3345     0.0000     2.0000 </r>
       <r>   -12.2620     0.0000     2.0000 </r>
       <r>   -12.1896     0.0000     2.0000 </r>
       <r>   -12.1172     0.0000     2.0000 </r>
       <r>   -12.0447     0.0000     2.0000 </r>
       <r>   -11.9723     0.0000     2.0000 </r>
       <r>   -11.8999     0.0000     2.0000 </r>
       <r>   -11.8274     0.0000     2.0000 </r>
       <r>   -11.7550     0.0000     2.0000 </r>
       <r>   -11.6826     0.0000     2.0000 </r>
       <r>   -11.6102     0.0000     2.0000 </r>
       <r>   -11.5377     0.0000     2.0000 </r>
       <r>   -11.4653     0.0000     2.0000 </r>
       <r>   -11.3929     0.0000     2.0000 </r>
       <r>   -11.3204     0.0000     2.0000 </r>
       <r>   -11.2480    -0.0000     2.0000 </r>
       <r>   -11.1756    -0.0000     2.0000 </r>
       <r>   -11.1031    -0.0000     2.0000 </r>
       <r>   -11.0307    -0.0000     2.0000 </r>
       <r>   -10.9583    -0.0000     2.0000 </r>
       <r>   -10.8859    -0.0000     2.0000 </r>
       <r>   -10.8134    -0.0000     2.0000 </r>
       <r>   -10.7410    -0.0000     2.0000 </r>
       <r>   -10.6686    -0.0000     2.0000 </r>
       <r>   -10.5961    -0.0000     2.0000 </r>
       <r>   -10.5237    -0.0000     2.0000 </r>
       <r>   -10.4513    -0.0000     2.0000 </r>
       <r>   -10.3789    -0.0000     2.0000 </r>
       <r>   -10.3064    -0.0001     2.0000 </r>
       <r>   -10.2340    -0.0006     2.0000 </r>
       <r>   -10.1616    -0.0045     1.9996 </r>
       <r>   -10.0891    -0.0252     1.9978 </r>
       <r>   -10.0167    -0.1027     1.9904 </r>
       <r>    -9.9443    -0.2879     1.9695 </r>
       <r>    -9.8718    -0.4832     1.9345 </r>
       <r>    -9.7994    -0.1515     1.9235 </r>
       <r>    -9.7270     1.5705     2.0373 </r>
       <r>    -9.6546     4.8671     2.3898 </r>
       <r>    -9.5821     8.4924     3.0049 </r>
       <r>    -9.5097    10.8196     3.7886 </r>
       <r>    -9.4373    11.1818     4.5985 </r>
       <r>    -9.3648     9.5391     5.2894 </r>
       <r>    -9.2924     6.3734     5.7510 </r>
       <r>    -9.2200     3.6484     6.0153 </r>
       <r>    -9.1476     3.6933     6.2828 </r>
       <r>    -9.0751     6.1718     6.7298 </r>
       <r>    -9.0027     7.9047     7.3023 </r>
       <r>    -8.9303     6.5961     7.7801 </r>
       <r>    -8.8578     3.3404     8.0220 </r>
       <r>    -8.7854     0.6729     8.0707 </r>
       <r>    -8.7130    -0.3642     8.0444 </r>
       <r>    -8.6405    -0.3782     8.0170 </r>
       <r>    -8.5681    -0.1718     8.0045 </r>
       <r>    -8.4957    -0.0503     8.0009 </r>
       <r>    -8.4233    -0.0104     8.0001 </r>
       <r>    -8.3508    -0.0016     8.0000 </r>
       <r>    -8.2784    -0.0002     8.0000 </r>
       <r>    -8.2060    -0.0000     8.0000 </r>
       <r>    -8.1335    -0.0000     8.0000 </r>
       <r>    -8.0611    -0.0000     8.0000 </r>
       <r>    -7.9887    -0.0000     8.0000 </r>
       <r>    -7.9162    -0.0000     8.0000 </r>
       <r>    -7.8438    -0.0000     8.0000 </r>
       <r>    -7.7714    -0.0000     8.0000 </r>
       <r>    -7.6990     0.0000     8.0000 </r>
       <r>    -7.6265     0.0000     8.0000 </r>
       <r>    -7.5541     0.0000     8.0000 </r>
       <r>    -7.4817     0.0000     8.0000 </r>
       <r>    -7.4092     0.0000     8.0000 </r>
       <r>    -7.3368     0.0000     8.0000 </r>
       <r>    -7.2644     0.0000     8.0000 </r>
       <r>    -7.1920     0.0000     8.0000 </r>
       <r>    -7.1195     0.0000     8.0000 </r>
       <r>    -7.0471     0.0000     8.0000 </r>
       <r>    -6.9747     0.0000     8.0000 </r>
       <r>    -6.9022     0.0000     8.0000 </r>
       <r>    -6.8298     0.0000     8.0000 </r>
       <r>    -6.7574     0.0000     8.0000 </r>
       <r>    -6.6849     0.0000     8.0000 </r>
       <r>    -6.6125     0.0000     8.0000 </r>
       <r>    -6.5401     0.0000     8.0000 </r>
       <r>    -6.4677     0.0000     8.0000 </r>
       <r>    -6.3952     0.0000     8.0000 </r>
       <r>    -6.3228     0.0000     8.0000 </r>
       <r>    -6.2504     0.0000     8.0000 </r>
       <r>    -6.1779     0.0000     8.0000 </r>
       <r>    -6.1055     0.0000     8.0000 </r>
       <r>    -6.0331     0.0000     8.0000 </r>
       <r>    -5.9606     0.0000     8.0000 </r>
       <r>    -5.8882     0.0000     8.0000 </r>
       <r>    -5.8158     0.0000     8.0000 </r>
       <r>    -5.7434     0.0000     8.0000 </r>
       <r>    -5.6709     0.0000     8.0000 </r>
       <r>    -5.5985     0.0000     8.0000 </r>
       <r>    -5.5261     0.0000     8.0000 </r>
       <r>    -5.4536     0.0000     8.0000 </r>
       <r>    -5.3812     0.0000     8.0000 </r>
       <r>    -5.3088     0.0000     8.0000 </r>
       <r>    -5.2364     0.0000     8.0000 </r>
       <r>    -5.1639     0.0000     8.0000 </r>
       <r>    -5.0915     0.0000     8.0000 </r>
       <r>    -5.0191     0.0000     8.0000 </r>
       <r>    -4.9466     0.0000     8.0000 </r>
       <r>    -4.8742     0.0000     8.0000 </r>
       <r>    -4.8018     0.0000     8.0000 </r>
       <r>    -4.7293     0.0000     8.0000 </r>
       <r>    -4.6569     0.0000     8.0000 </r>
       <r>    -4.5845     0.0000     8.0000 </r>
       <r>    -4.5121     0.0000     8.0000 </r>
       <r>    -4.4396     0.0000     8.0000 </r>
       <r>    -4.3672     0.0000     8.0000 </r>
       <r>    -4.2948     0.0000     8.0000 </r>
       <r>    -4.2223     0.0000     8.0000 </r>
       <r>    -4.1499     0.0000     8.0000 </r>
       <r>    -4.0775     0.0000     8.0000 </r>
       <r>    -4.0051     0.0000     8.0000 </r>
       <r>    -3.9326     0.0000     8.0000 </r>
       <r>    -3.8602     0.0000     8.0000 </r>
       <r>    -3.7878     0.0000     8.0000 </r>
       <r>    -3.7153     0.0000     8.0000 </r>
       <r>    -3.6429     0.0000     8.0000 </r>
       <r>    -3.5705     0.0000     8.0000 </r>
       <r>    -3.4980     0.0000     8.0000 </r>
       <r>    -3.4256     0.0000     8.0000 </r>
       <r>    -3.3532     0.0000     8.0000 </r>
       <r>    -3.2808     0.0000     8.0000 </r>
       <r>    -3.2083     0.0000     8.0000 </r>
       <r>    -3.1359     0.0000     8.0000 </r>
       <r>    -3.0635     0.0000     8.0000 </r>
       <r>    -2.9910     0.0000     8.0000 </r>
       <r>    -2.9186     0.0000     8.0000 </r>
       <r>    -2.8462     0.0000     8.0000 </r>
       <r>    -2.7737     0.0000     8.0000 </r>
       <r>    -2.7013     0.0000     8.0000 </r>
       <r>    -2.6289     0.0000     8.0000 </r>
       <r>    -2.5565     0.0000     8.0000 </r>
       <r>    -2.4840     0.0000     8.0000 </r>
       <r>    -2.4116     0.0000     8.0000 </r>
       <r>    -2.3392     0.0000     8.0000 </r>
       <r>    -2.2667     0.0000     8.0000 </r>
       <r>    -2.1943     0.0000     8.0000 </r>
       <r>    -2.1219     0.0000     8.0000 </r>
       <r>    -2.0495     0.0000     8.0000 </r>
       <r>    -1.9770     0.0000     8.0000 </r>
       <r>    -1.9046    -0.0000     8.0000 </r>
       <r>    -1.8322    -0.0000     8.0000 </r>
       <r>    -1.7597    -0.0000     8.0000 </r>
       <r>    -1.6873    -0.0000     8.0000 </r>
       <r>    -1.6149    -0.0000     8.0000 </r>
       <r>    -1.5424    -0.0000     8.0000 </r>
       <r>    -1.4700    -0.0000     8.0000 </r>
       <r>    -1.3976    -0.0000     8.0000 </r>
       <r>    -1.3252    -0.0000     8.0000 </r>
       <r>    -1.2527    -0.0000     8.0000 </r>
       <r>    -1.1803    -0.0000     8.0000 </r>
       <r>    -1.1079    -0.0000     8.0000 </r>
       <r>    -1.0354    -0.0000     8.0000 </r>
       <r>    -0.9630    -0.0003     8.0000 </r>
       <r>    -0.8906    -0.0028     7.9998 </r>
       <r>    -0.8182    -0.0170     7.9985 </r>
       <r>    -0.7457    -0.0748     7.9931 </r>
       <r>    -0.6733    -0.2276     7.9766 </r>
       <r>    -0.6009    -0.4231     7.9460 </r>
       <r>    -0.5284    -0.2068     7.9310 </r>
       <r>    -0.4560     1.3037     8.0254 </r>
       <r>    -0.3836     4.4052     8.3445 </r>
       <r>    -0.3111     7.5207     8.8892 </r>
       <r>    -0.2387     8.1287     9.4780 </r>
       <r>    -0.1663     5.6729     9.8889 </r>
       <r>    -0.0939     2.2809    10.0541 </r>
       <r>    -0.0214     0.1428    10.0644 </r>
       <r>     0.0510    -0.4560    10.0314 </r>
       <r>     0.1234    -0.4039    10.0021 </r>
       <r>     0.1959    -0.4349     9.9706 </r>
       <r>     0.2683    -0.7163     9.9188 </r>
       <r>     0.3407    -0.7540     9.8641 </r>
       <r>     0.4132     0.7605     9.9192 </r>
       <r>     0.4856     5.2899    10.3024 </r>
       <r>     0.5580    12.5767    11.2133 </r>
       <r>     0.6304    19.3728    12.6165 </r>
       <r>     0.7029    21.2358    14.1546 </r>
       <r>     0.7753    16.6214    15.3584 </r>
       <r>     0.8477     8.7142    15.9896 </r>
       <r>     0.9202     2.2922    16.1556 </r>
       <r>     0.9926    -0.5586    16.1152 </r>
       <r>     1.0650    -0.8986    16.0501 </r>
       <r>     1.1374    -0.4818    16.0152 </r>
       <r>     1.2099    -0.1630    16.0034 </r>
       <r>     1.2823    -0.0388    16.0006 </r>
       <r>     1.3547    -0.0068    16.0001 </r>
       <r>     1.4272    -0.0009    16.0000 </r>
       <r>     1.4996    -0.0001    16.0000 </r>
       <r>     1.5720    -0.0000    16.0000 </r>
       <r>     1.6445    -0.0000    16.0000 </r>
       <r>     1.7169    -0.0000    16.0000 </r>
       <r>     1.7893    -0.0000    16.0000 </r>
       <r>     1.8617    -0.0000    16.0000 </r>
       <r>     1.9342    -0.0000    16.0000 </r>
       <r>     2.0066    -0.0000    16.0000 </r>
       <r>     2.0790     0.0000    16.0000 </r>
       <r>     2.1515     0.0000    16.0000 </r>
       <r>     2.2239     0.0000    16.0000 </r>
       <r>     2.2963     0.0000    16.0000 </r>
       <r>     2.3687     0.0000    16.0000 </r>
       <r>     2.4412     0.0000    16.0000 </r>
       <r>     2.5136     0.0000    16.0000 </r>
       <r>     2.5860     0.0000    16.0000 </r>
       <r>     2.6585     0.0000    16.0000 </r>
       <r>     2.7309     0.0000    16.0000 </r>
      </set>
     </set>
    </array>
   </total>
  </dos>
  <time name="totalsc">   68.94   69.12</time>
 </calculation>
 <calculation>
  <scstep>
   <time name="dav">    2.12    2.13</time>
   <time name="total">    4.07    4.08</time>
   <energy>
    <i name="alphaZ">      0.23811771 </i>
    <i name="ewald">    131.34946298 </i>
    <i name="hartreedc">   -287.43726454 </i>
    <i name="XCdc">     24.85781352 </i>
    <i name="pawpsdc">    489.56297549 </i>
    <i name="pawaedc">   -490.36311001 </i>
    <i name="eentropy">      0.01171360 </i>
    <i name="bandstr">    -89.25819733 </i>
    <i name="atom">    197.04175453 </i>
    <i name="e_fr_energy">    -23.99673405 </i>
    <i name="e_wo_entrp">    -24.00844765 </i>
    <i name="e_0_energy">    -24.00063858 </i>
   </energy>
  </scstep>
  <scstep>
   <time name="diag">    0.48    0.48</time>
   <time name="diis">    1.51    1.52</time>
   <time name="orth">    0.01    0.01</time>
   <time name="total">    3.91    3.92</time>
   <energy>
    <i name="e_fr_energy">    -24.00448840 </i>
    <i name="e_wo_entrp">    -24.01626109 </i>
    <i name="e_0_energy">    -24.00841263 </i>
   </energy>
  </scstep>
  <scstep>
   <time name="diag">    0.47    0.47</time>
   <time name="diis">    1.56    1.57</time>
   <time name="orth">    0.01    0.01</time>
   <time name="total">    3.92    3.93</time>
   <energy>
    <i name="e_fr_energy">    -23.99848263 </i>
    <i name="e_wo_entrp">    -24.01028355 </i>
    <i name="e_0_energy">    -24.00241627 </i>
   </energy>
  </scstep>
  <scstep>
   <time name="diag">    0.47    0.47</time>
   <time name="diis">    1.61    1.61</time>
   <time name="orth">    0.01    0.01</time>
   <time name="total">    3.98    3.99</time>
   <energy>
    <i name="e_fr_energy">    -23.99765714 </i>
    <i name="e_wo_entrp">    -24.00944109 </i>
    <i name="e_0_energy">    -24.00158512 </i>
   </energy>
  </scstep>
  <scstep>
   <time name="diag">    0.49    0.50</time>
   <time name="diis">    1.60    1.61</time>
   <time name="orth">    0.01    0.01</time>
   <time name="total">    4.04    4.05</time>
   <energy>
    <i name="e_fr_energy">    -23.99713803 </i>
    <i name="e_wo_entrp">    -24.00890891 </i>
    <i name="e_0_energy">    -24.00106166 </i>
   </energy>
  </scstep>
  <scstep>
   <time name="diag">    0.50    0.50</time>
   <time name="diis">    1.49    1.49</time>
   <time name="orth">    0.01    0.01</time>
   <time name="total">    3.92    3.93</time>
   <energy>
    <i name="e_fr_energy">    -23.99706443 </i>
    <i name="e_wo_entrp">    -24.00882486 </i>
    <i name="e_0_energy">    -24.00098457 </i>
   </energy>
  </scstep>
  <scstep>
   <time name="diag">    0.49    0.49</time>
   <time name="diis">    1.47    1.47</time>
   <time name="orth">    0.01    0.01</time>
   <time name="total">    3.91    3.92</time>
   <energy>
    <i name="e_fr_energy">    -23.99707361 </i>
    <i name="e_wo_entrp">    -24.00882825 </i>
    <i name="e_0_energy">    -24.00099182 </i>
   </energy>
  </scstep>
  <scstep>
   <time name="diag">    0.46    0.46</time>
   <time name="diis">    1.52    1.53</time>
   <time name="orth">    0.01    0.01</time>
   <time name="total">    3.98    3.99</time>
   <energy>
    <i name="e_fr_energy">    -23.99710066 </i>
    <i name="e_wo_entrp">    -24.00885286 </i>
    <i name="e_0_energy">    -24.00101806 </i>
   </energy>
  </scstep>
  <scstep>
   <time name="diag">    0.47    0.47</time>
   <time name="diis">    1.53    1.53</time>
   <time name="orth">    0.01    0.01</time>
   <time name="total">    3.99    4.00</time>
   <energy>
    <i name="e_fr_energy">    -23.99710856 </i>
    <i name="e_wo_entrp">    -24.00885959 </i>
    <i name="e_0_energy">    -24.00102557 </i>
   </energy>
  </scstep>
  <scstep>
   <time name="diag">    0.46    0.46</time>
   <time name="diis">    1.41    1.41</time>
   <time name="orth">    0.01    0.01</time>
   <time name="total">    3.88    3.89</time>
   <energy>
    <i name="e_fr_energy">    -23.99711617 </i>
    <i name="e_wo_entrp">    -24.00886660 </i>
    <i name="e_0_energy">    -24.00103298 </i>
   </energy>
  </scstep>
  <scstep>
   <time name="diag">    0.47    0.47</time>
   <time name="diis">    1.23    1.23</time>
   <time name="orth">    0.01    0.01</time>
   <time name="total">    3.71    3.72</time>
   <energy>
    <i name="e_fr_energy">    -23.99711932 </i>
    <i name="e_wo_entrp">    -24.00886974 </i>
    <i name="e_0_energy">    -24.00103613 </i>
   </energy>
  </scstep>
  <scstep>
   <time name="diag">    0.49    0.49</time>
   <time name="diis">    1.19    1.19</time>
   <time name="orth">    0.01    0.01</time>
   <time name="total">    3.70    3.71</time>
   <energy>
    <i name="e_fr_energy">    -23.99712058 </i>
    <i name="e_wo_entrp">    -24.00887136 </i>
    <i name="e_0_energy">    -24.00103750 </i>
   </energy>
  </scstep>
  <scstep>
   <time name="diag">    0.49    0.49</time>
   <time name="diis">    1.17    1.17</time>
   <time name="orth">    0.01    0.01</time>
   <time name="total">    3.38    3.38</time>
   <energy>
    <i name="alphaZ">      0.23811771 </i>
    <i name="ewald">    131.34946298 </i>
    <i name="hartreedc">   -286.86909194 </i>
    <i name="XCdc">     24.82482889 </i>
    <i name="pawpsdc">    473.23266923 </i>
    <i name="pawaedc">   -474.02703373 </i>
    <i name="eentropy">      0.01175084 </i>
    <i name="bandstr">    -89.79957992 </i>
    <i name="atom">    197.04175453 </i>
    <i name="e_fr_energy">    -23.99712140 </i>
    <i name="e_wo_entrp">    -24.00887224 </i>
    <i name="e_0_energy">    -24.00103835 </i>
   </energy>
  </scstep>
  <structure>
   <crystal>
    <varray name="basis" >
     <v>       9.77471821       0.00000000       0.00000000 </v>
     <v>      -0.23536270      10.11096303       0.00000000 </v>
     <v>      -0.21358123      -0.20878982      10.29382398 </v>
    </varray>
    <i name="volume">   1017.35730139 </i>
    <varray name="rec_basis" >
     <v>       0.10230474       0.00238145       0.00217097 </v>
     <v>      -0.00000000       0.09890255       0.00200604 </v>
     <v>       0.00000000      -0.00000000       0.09714563 </v>
    </varray>
   </crystal>
   <varray name="positions" >
    <v>       0.54007204       0.40537497       0.36542216 </v>
    <v>       0.39398228       0.47969200       0.43862784 </v>
    <v>       0.55313242       0.56750964       0.44150500 </v>
    <v>       0.52025133       0.41720526       0.53413399 </v>
    <v>       0.50385557       0.46730175       0.44539303 </v>
   </varray>
  </structure>
  <varray name="forces" >
   <v>      -0.33842693      -0.08930977      -0.40746313 </v>
   <v>       0.19755965       0.04007454      -0.55296291 </v>
   <v>       0.07067163      -0.25461467       0.21691737 </v>
   <v>       0.60474243      -0.71530608       1.88053030 </v>
   <v>       0.11622679       1.60202476      -1.43768955 </v>
  </varray>
  <varray name="stress" >
   <v>       1.05234736      -0.86801527       1.34795843 </v>
   <v>      -0.86801528       0.33156960      -0.83068193 </v>
   <v>       1.34795842      -0.83068193       1.69019421 </v>
  </varray>
  <energy>
   <i name="e_fr_energy">    -23.99712140 </i>
   <i name="e_wo_entrp">    -24.00103835 </i>
   <i name="e_0_energy">      0.01175084 </i>
   <i name="kinetic">      0.05507008 </i>
   <i name="lattice kinetic">      0.00000000 </i>
   <i name="nosepot">      0.00186311 </i>
   <i name="nosekinetic">      0.00174355 </i>
   <i name="total">    -23.93844466 </i>
  </energy>
  <dos>
   <i name="efermi">     -8.82143588 </i>
   <total>
    <array>
     <dimension dim="1">gridpoints</dimension>
     <dimension dim="2">spin</dimension>
     <field>energy</field>
     <field>total</field>
     <field>integrated</field>
     <set>
      <set comment="spin 1">
       <r>   -18.9582     0.0000     0.0000 </r>
       <r>   -18.8860     0.0000     0.0000 </r>
       <r>   -18.8137     0.0000     0.0000 </r>
       <r>   -18.7414     0.0000     0.0000 </r>
       <r>   -18.6692     0.0000     0.0000 </r>
       <r>   -18.5969    -0.0000    -0.0000 </r>
       <r>   -18.5246    -0.0000    -0.0000 </r>
       <r>   -18.4524    -0.0000    -0.0000 </r>
       <r>   -18.3801    -0.0000    -0.0000 </r>
       <r>   -18.3078    -0.0000    -0.0000 </r>
       <r>   -18.2356    -0.0000    -0.0000 </r>
       <r>   -18.1633    -0.0000    -0.0000 </r>
       <r>   -18.0910    -0.0000    -0.0000 </r>
       <r>   -18.0188    -0.0000    -0.0000 </r>
       <r>   -17.9465    -0.0000    -0.0000 </r>
       <r>   -17.8742    -0.0000    -0.0000 </r>
       <r>   -17.8020    -0.0000    -0.0000 </r>
       <r>   -17.7297    -0.0000    -0.0000 </r>
       <r>   -17.6574    -0.0001    -0.0000 </r>
       <r>   -17.5852    -0.0011    -0.0001 </r>
       <r>   -17.5129    -0.0075    -0.0006 </r>
       <r>   -17.4406    -0.0384    -0.0034 </r>
       <r>   -17.3684    -0.1402    -0.0135 </r>
       <r>   -17.2961    -0.3391    -0.0380 </r>
       <r>   -17.2238    -0.4157    -0.0681 </r>
       <r>   -17.1515     0.3523    -0.0426 </r>
       <r>   -17.0793     2.7380     0.1553 </r>
       <r>   -17.0070     6.1599     0.6004 </r>
       <r>   -16.9347     8.2577     1.1972 </r>
       <r>   -16.8625     7.1845     1.7164 </r>
       <r>   -16.7902     3.9134     1.9992 </r>
       <r>   -16.7179     0.9900     2.0707 </r>
       <r>   -16.6457    -0.2928     2.0496 </r>
       <r>   -16.5734    -0.4055     2.0203 </r>
       <r>   -16.5011    -0.2014     2.0057 </r>
       <r>   -16.4289    -0.0629     2.0012 </r>
       <r>   -16.3566    -0.0138     2.0002 </r>
       <r>   -16.2843    -0.0022     2.0000 </r>
       <r>   -16.2121    -0.0003     2.0000 </r>
       <r>   -16.1398    -0.0000     2.0000 </r>
       <r>   -16.0675    -0.0000     2.0000 </r>
       <r>   -15.9953    -0.0000     2.0000 </r>
       <r>   -15.9230    -0.0000     2.0000 </r>
       <r>   -15.8507    -0.0000     2.0000 </r>
       <r>   -15.7785    -0.0000     2.0000 </r>
       <r>   -15.7062    -0.0000     2.0000 </r>
       <r>   -15.6339     0.0000     2.0000 </r>
       <r>   -15.5617     0.0000     2.0000 </r>
       <r>   -15.4894     0.0000     2.0000 </r>
       <r>   -15.4171     0.0000     2.0000 </r>
       <r>   -15.3449     0.0000     2.0000 </r>
       <r>   -15.2726     0.0000     2.0000 </r>
       <r>   -15.2003     0.0000     2.0000 </r>
       <r>   -15.1280     0.0000     2.0000 </r>
       <r>   -15.0558     0.0000     2.0000 </r>
       <r>   -14.9835     0.0000     2.0000 </r>
       <r>   -14.9112     0.0000     2.0000 </r>
       <r>   -14.8390     0.0000     2.0000 </r>
       <r>   -14.7667     0.0000     2.0000 </r>
       <r>   -14.6944     0.0000     2.0000 </r>
       <r>   -14.6222     0.0000     2.0000 </r>
       <r>   -14.5499     0.0000     2.0000 </r>
       <r>   -14.4776     0.0000     2.0000 </r>
       <r>   -14.4054     0.0000     2.0000 </r>
       <r>   -14.3331     0.0000     2.0000 </r>
       <r>   -14.2608     0.0000     2.0000 </r>
       <r>   -14.1886     0.0000     2.0000 </r>
       <r>   -14.1163     0.0000     2.0000 </r>
       <r>   -14.0440     0.0000     2.0000 </r>
       <r>   -13.9718     0.0000     2.0000 </r>
       <r>   -13.8995     0.0000     2.0000 </r>
       <r>   -13.8272     0.0000     2.0000 </r>
       <r>   -13.7550     0.0000     2.0000 </r>
       <r>   -13.6827     0.0000     2.0000 </r>
       <r>   -13.6104     0.0000     2.0000 </r>
       <r>   -13.5382     0.0000     2.0000 </r>
       <r>   -13.4659     0.0000     2.0000 </r>
       <r>   -13.3936     0.0000     2.0000 </r>
       <r>   -13.3214     0.0000     2.0000 </r>
       <r>   -13.2491     0.0000     2.0000 </r>
       <r>   -13.1768     0.0000     2.0000 </r>
       <r>   -13.1045     0.0000     2.0000 </r>
       <r>   -13.0323     0.0000     2.0000 </r>
[...]
       <r>     0.2683    -0.7393     9.9062 </r>
       <r>     0.3401    -0.5159     9.8692 </r>
       <r>     0.4118     1.5300     9.9789 </r>
       <r>     0.4836     6.5134    10.4463 </r>
       <r>     0.5554    13.7001    11.4294 </r>
       <r>     0.6271    19.7785    12.8487 </r>
       <r>     0.6989    20.7693    14.3391 </r>
       <r>     0.7706    15.6730    15.4638 </r>
       <r>     0.8424     7.8507    16.0272 </r>
       <r>     0.9142     1.8245    16.1581 </r>
       <r>     0.9859    -0.6844    16.1090 </r>
       <r>     1.0577    -0.8808    16.0458 </r>
       <r>     1.1294    -0.4491    16.0135 </r>
       <r>     1.2012    -0.1475    16.0030 </r>
       <r>     1.2729    -0.0344    16.0005 </r>
       <r>     1.3447    -0.0059    16.0001 </r>
       <r>     1.4165    -0.0008    16.0000 </r>
       <r>     1.4882    -0.0001    16.0000 </r>
       <r>     1.5600    -0.0000    16.0000 </r>
       <r>     1.6317    -0.0000    16.0000 </r>
       <r>     1.7035    -0.0000    16.0000 </r>
       <r>     1.7753    -0.0000    16.0000 </r>
       <r>     1.8470    -0.0000    16.0000 </r>
       <r>     1.9188    -0.0000    16.0000 </r>
       <r>     1.9905    -0.0000    16.0000 </r>
       <r>     2.0623     0.0000    16.0000 </r>
       <r>     2.1341     0.0000    16.0000 </r>
       <r>     2.2058     0.0000    16.0000 </r>
       <r>     2.2776     0.0000    16.0000 </r>
       <r>     2.3493     0.0000    16.0000 </r>
       <r>     2.4211     0.0000    16.0000 </r>
       <r>     2.4929     0.0000    16.0000 </r>
       <r>     2.5646     0.0000    16.0000 </r>
       <r>     2.6364     0.0000    16.0000 </r>
       <r>     2.7081     0.0000    16.0000 </r>
      </set>
     </set>
    </array>
   </total>
  </dos>
  <time name="totalsc">   68.66   68.94</time>
  <eigenvalues>
   <array>
    <dimension dim="1">band</dimension>
    <dimension dim="2">kpoint</dimension>
    <dimension dim="3">spin</dimension>
    <field>eigene</field>
    <field>occ</field>
    <set>
     <set comment="spin 1">
      <set comment="kpoint 1">
       <r>  -16.7484    1.0000 </r>
       <r>   -9.4428    1.0000 </r>
       <r>   -9.2127    1.0002 </r>
       <r>   -8.8096    0.9999 </r>
       <r>   -0.3125    0.0000 </r>
       <r>    0.5357    0.0000 </r>
       <r>    0.6588    0.0000 </r>
       <r>    0.6740    0.0000 </r>
      </set>
      <set comment="kpoint 2">
       <r>  -16.7484    1.0000 </r>
       <r>   -9.4427    1.0000 </r>
       <r>   -9.2128    1.0002 </r>
       <r>   -8.8095    0.9997 </r>
       <r>   -0.3206    0.0000 </r>
       <r>    0.5356    0.0000 </r>
       <r>    0.6714    0.0000 </r>
       <r>    0.7143    0.0000 </r>
      </set>
      <set comment="kpoint 3">
       <r>  -16.7484    1.0000 </r>
       <r>   -9.4430    1.0000 </r>
       <r>   -9.2129    1.0002 </r>
       <r>   -8.8096    0.9999 </r>
       <r>   -0.3213    0.0000 </r>
       <r>    0.5663    0.0000 </r>
       <r>    0.6464    0.0000 </r>
       <r>    0.7088    0.0000 </r>
      </set>
      <set comment="kpoint 4">
       <r>  -16.7484    1.0000 </r>
       <r>   -9.4429    1.0000 </r>
       <r>   -9.2128    1.0002 </r>
       <r>   -8.8095    0.9998 </r>
       <r>   -0.3206    0.0000 </r>
       <r>    0.5730    0.0000 </r>
       <r>    0.6478    0.0000 </r>
       <r>    0.6961    0.0000 </r>
      </set>
     </set>
    </set>
   </array>
  </eigenvalues>
  <separator name="orbital magnetization" >
   <v name="MAGDIPOLOUT">      0.00000000      0.00000000      0.00000000</v>
  </separator>
  <dos>
   <i name="efermi">     -8.64137738 </i>
   <total>
    <array>
     <dimension dim="1">gridpoints</dimension>
     <dimension dim="2">spin</dimension>
     <field>energy</field>
     <field>total</field>
     <field>integrated</field>
     <set>
      <set comment="spin 1">
       <r>   -18.7484     0.0000     0.0000 </r>
       <r>   -18.6769     0.0000     0.0000 </r>
       <r>   -18.6054     0.0000     0.0000 </r>
       <r>   -18.5338     0.0000     0.0000 </r>
       <r>   -18.4623     0.0000     0.0000 </r>
       <r>   -18.3907    -0.0000    -0.0000 </r>
       <r>   -18.3192    -0.0000    -0.0000 </r>
       <r>   -18.2476    -0.0000    -0.0000 </r>
       <r>   -18.1761    -0.0000    -0.0000 </r>
       <r>   -18.1046    -0.0000    -0.0000 </r>
       <r>   -18.0330    -0.0000    -0.0000 </r>
       <r>   -17.9615    -0.0000    -0.0000 </r>
       <r>   -17.8899    -0.0000    -0.0000 </r>
       <r>   -17.8184    -0.0000    -0.0000 </r>
       <r>   -17.7468    -0.0000    -0.0000 </r>
       <r>   -17.6753    -0.0000    -0.0000 </r>
       <r>   -17.6038    -0.0000    -0.0000 </r>
       <r>   -17.5322    -0.0000    -0.0000 </r>
       <r>   -17.4607    -0.0001    -0.0000 </r>
       <r>   -17.3891    -0.0007    -0.0001 </r>
       <r>   -17.3176    -0.0052    -0.0004 </r>
       <r>   -17.2460    -0.0281    -0.0024 </r>
       <r>   -17.1745    -0.1092    -0.0103 </r>
       <r>   -17.1030    -0.2900    -0.0310 </r>
       <r>   -17.0314    -0.4391    -0.0624 </r>
       <r>   -16.9599     0.0311    -0.0602 </r>
       <r>   -16.8883     1.9672     0.0805 </r>
       <r>   -16.8168     5.2641     0.4572 </r>
       <r>   -16.7452     7.9625     1.0268 </r>
       <r>   -16.6737     7.8163     1.5860 </r>
       <r>   -16.6022     4.9569     1.9406 </r>
       <r>   -16.5306     1.7262     2.0641 </r>
       <r>   -16.4591    -0.0592     2.0599 </r>
       <r>   -16.3875    -0.4385     2.0285 </r>
       <r>   -16.3160    -0.2709     2.0091 </r>
       <r>   -16.2445    -0.0983     2.0021 </r>
       <r>   -16.1729    -0.0245     2.0004 </r>
       <r>   -16.1014    -0.0044     2.0000 </r>
       <r>   -16.0298    -0.0006     2.0000 </r>
       <r>   -15.9583    -0.0001     2.0000 </r>
       <r>   -15.8867    -0.0000     2.0000 </r>
       <r>   -15.8152    -0.0000     2.0000 </r>
       <r>   -15.7437    -0.0000     2.0000 </r>
       <r>   -15.6721    -0.0000     2.0000 </r>
       <r>   -15.6006    -0.0000     2.0000 </r>
       <r>   -15.5290    -0.0000     2.0000 </r>
       <r>   -15.4575    -0.0000     2.0000 </r>
       <r>   -15.3859     0.0000     2.0000 </r>
       <r>   -15.3144     0.0000     2.0000 </r>
       <r>   -15.2429     0.0000     2.0000 </r>
       <r>   -15.1713     0.0000     2.0000 </r>
       <r>   -15.0998     0.0000     2.0000 </r>
       <r>   -15.0282     0.0000     2.0000 </r>
       <r>   -14.9567     0.0000     2.0000 </r>
       <r>   -14.8851     0.0000     2.0000 </r>
       <r>   -14.8136     0.0000     2.0000 </r>
       <r>   -14.7421     0.0000     2.0000 </r>
       <r>   -14.6705     0.0000     2.0000 </r>
       <r>   -14.5990     0.0000     2.0000 </r>
       <r>   -14.5274     0.0000     2.0000 </r>
       <r>   -14.4559     0.0000     2.0000 </r>
       <r>   -14.3843     0.0000     2.0000 </r>
       <r>   -14.3128     0.0000     2.0000 </r>
       <r>   -14.2413     0.0000     2.0000 </r>
       <r>   -14.1697     0.0000     2.0000 </r>
       <r>   -14.0982     0.0000     2.0000 </r>
       <r>   -14.0266     0.0000     2.0000 </r>
       <r>   -13.9551     0.0000     2.0000 </r>
       <r>   -13.8835     0.0000     2.0000 </r>
       <r>   -13.8120     0.0000     2.0000 </r>
       <r>   -13.7405     0.0000     2.0000 </r>
       <r>   -13.6689     0.0000     2.0000 </r>
       <r>   -13.5974     0.0000     2.0000 </r>
       <r>   -13.5258     0.0000     2.0000 </r>
       <r>   -13.4543     0.0000     2.0000 </r>
       <r>   -13.3827     0.0000     2.0000 </r>
       <r>   -13.3112     0.0000     2.0000 </r>
       <r>   -13.2397     0.0000     2.0000 </r>
       <r>   -13.1681     0.0000     2.0000 </r>
       <r>   -13.0966     0.0000     2.0000 </r>
       <r>   -13.0250     0.0000     2.0000 </r>
       <r>   -12.9535     0.0000     2.0000 </r>
       <r>   -12.8820     0.0000     2.0000 </r>
       <r>   -12.8104     0.0000     2.0000 </r>
       <r>   -12.7389     0.0000     2.0000 </r>
       <r>   -12.6673     0.0000     2.0000 </r>
       <r>   -12.5958     0.0000     2.0000 </r>
       <r>   -12.5242     0.0000     2.0000 </r>
       <r>   -12.4527     0.0000     2.0000 </r>
       <r>   -12.3812     0.0000     2.0000 </r>
       <r>   -12.3096     0.0000     2.0000 </r>
       <r>   -12.2381     0.0000     2.0000 </r>
       <r>   -12.1665     0.0000     2.0000 </r>
       <r>   -12.0950     0.0000     2.0000 </r>
       <r>   -12.0234     0.0000     2.0000 </r>
       <r>   -11.9519     0.0000     2.0000 </r>
       <r>   -11.8804     0.0000     2.0000 </r>
       <r>   -11.8088     0.0000     2.0000 </r>
       <r>   -11.7373     0.0000     2.0000 </r>
       <r>   -11.6657     0.0000     2.0000 </r>
       <r>   -11.5942     0.0000     2.0000 </r>
       <r>   -11.5226     0.0000     2.0000 </r>
       <r>   -11.4511     0.0000     2.0000 </r>
       <r>   -11.3796     0.0000     2.0000 </r>
       <r>   -11.3080     0.0000     2.0000 </r>
       <r>   -11.2365     0.0000     2.0000 </r>
       <r>   -11.1649     0.0000     2.0000 </r>
       <r>   -11.0934    -0.0000     2.0000 </r>
       <r>   -11.0218    -0.0000     2.0000 </r>
       <r>   -10.9503    -0.0000     2.0000 </r>
       <r>   -10.8788    -0.0000     2.0000 </r>
       <r>   -10.8072    -0.0000     2.0000 </r>
       <r>   -10.7357    -0.0000     2.0000 </r>
       <r>   -10.6641    -0.0000     2.0000 </r>
       <r>   -10.5926    -0.0000     2.0000 </r>
       <r>   -10.5210    -0.0000     2.0000 </r>
       <r>   -10.4495    -0.0000     2.0000 </r>
       <r>   -10.3780    -0.0000     2.0000 </r>
       <r>   -10.3064    -0.0000     2.0000 </r>
       <r>   -10.2349    -0.0000     2.0000 </r>
       <r>   -10.1633    -0.0001     2.0000 </r>
       <r>   -10.0918    -0.0006     2.0000 </r>
       <r>   -10.0202    -0.0042     1.9997 </r>
       <r>    -9.9487    -0.0236     1.9980 </r>
       <r>    -9.8772    -0.0955     1.9911 </r>
       <r>    -9.8056    -0.2679     1.9720 </r>
       <r>    -9.7341    -0.4542     1.9395 </r>
       <r>    -9.6625    -0.1567     1.9283 </r>
       <r>    -9.5910     1.4356     2.0310 </r>
       <r>    -9.5195     4.4453     2.3490 </r>
       <r>    -9.4479     7.5176     2.8868 </r>
       <r>    -9.3764     9.1310     3.5401 </r>
       <r>    -9.3048     9.4374     4.2153 </r>
       <r>    -9.2333     9.2321     4.8757 </r>
       <r>    -9.1617     7.9996     5.4481 </r>
       <r>    -9.0902     5.1988     5.8200 </r>
       <r>    -9.0187     2.4574     5.9958 </r>
       <r>    -8.9471     2.2893     6.1596 </r>
       <r>    -8.8756     4.9333     6.5125 </r>
       <r>    -8.8040     7.6636     7.0608 </r>
       <r>    -8.7325     7.6109     7.6053 </r>
       <r>    -8.6609     4.8007     7.9488 </r>
       <r>    -8.5894     1.6311     8.0654 </r>
       <r>    -8.5179    -0.0913     8.0589 </r>
       <r>    -8.4463    -0.4373     8.0276 </r>
       <r>    -8.3748    -0.2638     8.0088 </r>
       <r>    -8.3032    -0.0944     8.0020 </r>
       <r>    -8.2317    -0.0233     8.0003 </r>
       <r>    -8.1601    -0.0042     8.0000 </r>
       <r>    -8.0886    -0.0006     8.0000 </r>
       <r>    -8.0171    -0.0001     8.0000 </r>
       <r>    -7.9455    -0.0000     8.0000 </r>
       <r>    -7.8740    -0.0000     8.0000 </r>
       <r>    -7.8024    -0.0000     8.0000 </r>
       <r>    -7.7309    -0.0000     8.0000 </r>
       <r>    -7.6593    -0.0000     8.0000 </r>
       <r>    -7.5878    -0.0000     8.0000 </r>
       <r>    -7.5163     0.0000     8.0000 </r>
       <r>    -7.4447     0.0000     8.0000 </r>
       <r>    -7.3732     0.0000     8.0000 </r>
       <r>    -7.3016     0.0000     8.0000 </r>
       <r>    -7.2301     0.0000     8.0000 </r>
       <r>    -7.1585     0.0000     8.0000 </r>
       <r>    -7.0870     0.0000     8.0000 </r>
       <r>    -7.0155     0.0000     8.0000 </r>
       <r>    -6.9439     0.0000     8.0000 </r>
       <r>    -6.8724     0.0000     8.0000 </r>
       <r>    -6.8008     0.0000     8.0000 </r>
       <r>    -6.7293     0.0000     8.0000 </r>
       <r>    -6.6577     0.0000     8.0000 </r>
       <r>    -6.5862     0.0000     8.0000 </r>
       <r>    -6.5147     0.0000     8.0000 </r>
       <r>    -6.4431     0.0000     8.0000 </r>
       <r>    -6.3716     0.0000     8.0000 </r>
       <r>    -6.3000     0.0000     8.0000 </r>
       <r>    -6.2285     0.0000     8.0000 </r>
       <r>    -6.1570     0.0000     8.0000 </r>
       <r>    -6.0854     0.0000     8.0000 </r>
       <r>    -6.0139     0.0000     8.0000 </r>
       <r>    -5.9423     0.0000     8.0000 </r>
       <r>    -5.8708     0.0000     8.0000 </r>
       <r>    -5.7992     0.0000     8.0000 </r>
       <r>    -5.7277     0.0000     8.0000 </r>
       <r>    -5.6562     0.0000     8.0000 </r>
       <r>    -5.5846     0.0000     8.0000 </r>
       <r>    -5.5131     0.0000     8.0000 </r>
       <r>    -5.4415     0.0000     8.0000 </r>
       <r>    -5.3700     0.0000     8.0000 </r>
       <r>    -5.2984     0.0000     8.0000 </r>
       <r>    -5.2269     0.0000     8.0000 </r>
       <r>    -5.1554     0.0000     8.0000 </r>
       <r>    -5.0838     0.0000     8.0000 </r>
       <r>    -5.0123     0.0000     8.0000 </r>
       <r>    -4.9407     0.0000     8.0000 </r>
       <r>    -4.8692     0.0000     8.0000 </r>
       <r>    -4.7976     0.0000     8.0000 </r>
       <r>    -4.7261     0.0000     8.0000 </r>
       <r>    -4.6546     0.0000     8.0000 </r>
       <r>    -4.5830     0.0000     8.0000 </r>
       <r>    -4.5115     0.0000     8.0000 </r>
       <r>    -4.4399     0.0000     8.0000 </r>
       <r>    -4.3684     0.0000     8.0000 </r>
       <r>    -4.2968     0.0000     8.0000 </r>
       <r>    -4.2253     0.0000     8.0000 </r>
       <r>    -4.1538     0.0000     8.0000 </r>
       <r>    -4.0822     0.0000     8.0000 </r>
       <r>    -4.0107     0.0000     8.0000 </r>
       <r>    -3.9391     0.0000     8.0000 </r>
       <r>    -3.8676     0.0000     8.0000 </r>
       <r>    -3.7960     0.0000     8.0000 </r>
       <r>    -3.7245     0.0000     8.0000 </r>
       <r>    -3.6530     0.0000     8.0000 </r>
       <r>    -3.5814     0.0000     8.0000 </r>
       <r>    -3.5099     0.0000     8.0000 </r>
       <r>    -3.4383     0.0000     8.0000 </r>
       <r>    -3.3668     0.0000     8.0000 </r>
       <r>    -3.2952     0.0000     8.0000 </r>
       <r>    -3.2237     0.0000     8.0000 </r>
       <r>    -3.1522     0.0000     8.0000 </r>
       <r>    -3.0806     0.0000     8.0000 </r>
       <r>    -3.0091     0.0000     8.0000 </r>
       <r>    -2.9375     0.0000     8.0000 </r>
       <r>    -2.8660     0.0000     8.0000 </r>
       <r>    -2.7945     0.0000     8.0000 </r>
       <r>    -2.7229     0.0000     8.0000 </r>
       <r>    -2.6514     0.0000     8.0000 </r>
       <r>    -2.5798     0.0000     8.0000 </r>
       <r>    -2.5083     0.0000     8.0000 </r>
       <r>    -2.4367     0.0000     8.0000 </r>
       <r>    -2.3652     0.0000     8.0000 </r>
       <r>    -2.2937     0.0000     8.0000 </r>
       <r>    -2.2221     0.0000     8.0000 </r>
       <r>    -2.1506     0.0000     8.0000 </r>
       <r>    -2.0790     0.0000     8.0000 </r>
       <r>    -2.0075     0.0000     8.0000 </r>
       <r>    -1.9359    -0.0000     8.0000 </r>
       <r>    -1.8644    -0.0000     8.0000 </r>
       <r>    -1.7929    -0.0000     8.0000 </r>
       <r>    -1.7213    -0.0000     8.0000 </r>
       <r>    -1.6498    -0.0000     8.0000 </r>
       <r>    -1.5782    -0.0000     8.0000 </r>
       <r>    -1.5067    -0.0000     8.0000 </r>
       <r>    -1.4351    -0.0000     8.0000 </r>
       <r>    -1.3636    -0.0000     8.0000 </r>
       <r>    -1.2921    -0.0000     8.0000 </r>
       <r>    -1.2205    -0.0000     8.0000 </r>
       <r>    -1.1490    -0.0000     8.0000 </r>
       <r>    -1.0774    -0.0000     8.0000 </r>
       <r>    -1.0059    -0.0002     8.0000 </r>
       <r>    -0.9343    -0.0015     7.9999 </r>
       <r>    -0.8628    -0.0098     7.9992 </r>
       <r>    -0.7913    -0.0472     7.9958 </r>
       <r>    -0.7197    -0.1617     7.9842 </r>
       <r>    -0.6482    -0.3642     7.9582 </r>
       <r>    -0.5766    -0.3892     7.9303 </r>
       <r>    -0.5051     0.5157     7.9672 </r>
       <r>    -0.4335     3.0353     8.1844 </r>
       <r>    -0.3620     6.4180     8.6435 </r>
       <r>    -0.2905     8.2912     9.2367 </r>
       <r>    -0.2189     7.0206     9.7390 </r>
       <r>    -0.1474     3.7340    10.0061 </r>
       <r>    -0.0758     0.9022    10.0707 </r>
       <r>    -0.0043    -0.3169    10.0480 </r>
       <r>     0.0673    -0.4444    10.0162 </r>
       <r>     0.1388    -0.3612     9.9904 </r>
       <r>     0.2103    -0.5033     9.9544 </r>
       <r>     0.2819    -0.7824     9.8984 </r>
       <r>     0.3534    -0.4540     9.8659 </r>
       <r>     0.4250     1.8907    10.0012 </r>
       <r>     0.4965     7.3240    10.5251 </r>
       <r>     0.5681    14.7781    11.5824 </r>
       <r>     0.6396    20.5051    13.0494 </r>
       <r>     0.7111    20.5812    14.5218 </r>
       <r>     0.7827    14.7185    15.5748 </r>
       <r>     0.8542     6.8496    16.0649 </r>
       <r>     0.9258     1.2863    16.1569 </r>
       <r>     0.9973    -0.7983    16.0998 </r>
       <r>     1.0688    -0.8333    16.0402 </r>
       <r>     1.1404    -0.4002    16.0115 </r>
       <r>     1.2119    -0.1268    16.0025 </r>
       <r>     1.2835    -0.0288    16.0004 </r>
       <r>     1.3550    -0.0048    16.0000 </r>
       <r>     1.4266    -0.0006    16.0000 </r>
       <r>     1.4981    -0.0001    16.0000 </r>
       <r>     1.5696    -0.0000    16.0000 </r>
       <r>     1.6412    -0.0000    16.0000 </r>
       <r>     1.7127    -0.0000    16.0000 </r>
       <r>     1.7843    -0.0000    16.0000 </r>
       <r>     1.8558    -0.0000    16.0000 </r>
       <r>     1.9274    -0.0000    16.0000 </r>
       <r>     1.9989    -0.0000    16.0000 </r>
       <r>     2.0704     0.0000    16.0000 </r>
       <r>     2.1420     0.0000    16.0000 </r>
       <r>     2.2135     0.0000    16.0000 </r>
       <r>     2.2851     0.0000    16.0000 </r>
       <r>     2.3566     0.0000    16.0000 </r>
       <r>     2.4282     0.0000    16.0000 </r>
       <r>     2.4997     0.0000    16.0000 </r>
       <r>     2.5712     0.0000    16.0000 </r>
       <r>     2.6428     0.0000    16.0000 </r>
       <r>     2.7143     0.0000    16.0000 </r>
      </set>
     </set>
    </array>
   </total>
  </dos>
 </calculation>
 <structure name="finalpos" >
  <crystal>
   <varray name="basis" >
    <v>       9.77471821       0.00000000       0.00000000 </v>
    <v>      -0.23536270      10.11096303       0.00000000 </v>
    <v>      -0.21358123      -0.20878982      10.29382398 </v>
   </varray>
   <i name="volume">   1017.35730139 </i>
   <varray name="rec_basis" >
    <v>       0.10230474       0.00238145       0.00217097 </v>
    <v>      -0.00000000       0.09890255       0.00200604 </v>
    <v>       0.00000000      -0.00000000       0.09714563 </v>
   </varray>
  </crystal>
  <varray name="positions" >
   <v>       0.53622756       0.39927272       0.36476906 </v>
   <v>       0.39452763       0.48262162       0.43749485 </v>
   <v>       0.55131020       0.56584612       0.44470055 </v>
   <v>       0.53272637       0.42136376       0.53815350 </v>
   <v>       0.50324332       0.46735817       0.44494103 </v>
  </varray>
  <varray name="velocities" >
   <v>       0.00017090      -0.00509902      -0.00021870 </v>
   <v>       0.00229522       0.00076971       0.00363812 </v>
   <v>      -0.00008198       0.00153706       0.00070658 </v>
   <v>      -0.00162766       0.00257941      -0.00464120 </v>
   <v>      -0.00006298       0.00001772       0.00004289 </v>
  </varray>
 </structure>
</modeling>
