unknown system                          
           1
     9.774718    0.000000    0.000000
    -0.235363   10.110963    0.000000
    -0.213581   -0.208790   10.293824
   H    C 
   4   1
Direct configuration=     1
   0.53849861  0.40672304  0.36086799
   0.39478738  0.48018414  0.43864300
   0.55163667  0.56502520  0.44308287
   0.52805619  0.41630554  0.53929108
   0.50339426  0.46743030  0.44521021
Direct configuration=     2
   0.53878705  0.40700605  0.36454727
   0.39325296  0.48029920  0.43907622
   0.55130920  0.56619860  0.44138733
   0.52330757  0.41783670  0.53321962
   0.50392062  0.46717198  0.44551447
Direct configuration=     3
   0.54007204  0.40537497  0.36542216
   0.39398228  0.47969200  0.43862784
   0.55313242  0.56750964  0.44150500
   0.52025133  0.41720526  0.53413399
   0.50385557  0.46730175  0.44539303
Direct configuration=     4
   0.53980155  0.40328756  0.36483562
   0.39525781  0.47907511  0.43621790
   0.55501377  0.56770635  0.44249045
   0.51956636  0.41390821  0.54204211
   0.50367228  0.46778503  0.44490206
Direct configuration=     5
   0.53809970  0.40216658  0.36380677
   0.39084753  0.47866439  0.43225166
   0.55560468  0.56541803  0.44403266
   0.52415837  0.41488353  0.54347807
   0.50374965  0.46802187  0.44506998
Direct configuration=     6
   0.53664787  0.40329691  0.36472836
   0.38999072  0.47731053  0.43037717
   0.55582745  0.56325427  0.44487767
   0.52769725  0.41899040  0.53831665
   0.50362868  0.46787871  0.44550869
Direct configuration=     7
   0.53744625  0.40377897  0.36413636
   0.39301304  0.47666939  0.42877186
   0.55601608  0.56421588  0.44451821
   0.52911377  0.42330930  0.53337092
   0.50317693  0.46745231  0.44613333
Direct configuration=     8
   0.53929470  0.40516484  0.36288642
   0.39693058  0.47814899  0.42992272
   0.55544568  0.56572088  0.44342213
   0.53110269  0.42387963  0.53526267
   0.50257877  0.46704095  0.44607533
Direct configuration=     9
   0.53830808  0.40553969  0.36188721
   0.39274503  0.48043994  0.43137464
   0.55358349  0.56487704  0.44273427
   0.53393318  0.42093272  0.54117966
   0.50292878  0.46713461  0.44560228
Direct configuration=    10
   0.53605667  0.40437174  0.36498776
   0.39223241  0.48185191  0.43385673
   0.55139218  0.56430906  0.44399397
   0.53435404  0.41878435  0.54279470
   0.50330630  0.46734045  0.44489814
