   5   5   0   0
  0.2001796E+03  0.1014493E-08  0.1001183E-08  0.9859705E-09  0.2000000E-14
   50.000000000000000     
  CAR 
 unknown system                          
      2.71464214    -18.86396743  301     -9.10082957      1.00000000
    -18.864  0.0000E+00  0.0000E+00
    -18.792  0.0000E+00  0.0000E+00
    -18.720  0.0000E+00  0.0000E+00
    -18.648  0.0000E+00  0.0000E+00
    -18.576  0.0000E+00  0.0000E+00
    -18.504 -0.3917E-27 -0.2818E-28
    -18.432 -0.1197E-24 -0.8637E-26
    -18.360 -0.2824E-22 -0.2040E-23
    -18.289 -0.5131E-20 -0.3711E-21
    -18.217 -0.7176E-18 -0.5198E-19
    -18.145 -0.7723E-16 -0.5607E-17
    -18.073 -0.6392E-14 -0.4654E-15
    -18.001 -0.3944E-12 -0.2883E-13
    -17.929 -0.1919E-10 -0.1409E-11
    -17.857 -0.7158E-09 -0.5289E-10
    -17.785 -0.2044E-07 -0.1523E-08
    -17.713 -0.4459E-06 -0.3359E-07
    -17.641 -0.7410E-05 -0.5666E-06
    -17.569 -0.9346E-04 -0.7289E-05
    -17.497 -0.8896E-03 -0.7127E-04
    -17.425 -0.6333E-02 -0.5268E-03
    -17.353 -0.3324E-01 -0.2917E-02
    -17.282 -0.1250E+00 -0.1191E-01
    -17.210 -0.3163E+00 -0.3466E-01
    -17.138 -0.4316E+00 -0.6571E-01
    -17.066  0.1895E+00 -0.5208E-01
    -16.994  0.2366E+01  0.1181E+00
    -16.922  0.5750E+01  0.5317E+00
    -16.850  0.8151E+01  0.1118E+01
    -16.778  0.7507E+01  0.1658E+01
    -16.706  0.4400E+01  0.1974E+01
    -16.634  0.1314E+01  0.2069E+01
    -16.562 -0.2003E+00  0.2055E+01
    -16.490 -0.4259E+00  0.2024E+01
    -16.418 -0.2328E+00  0.2007E+01
    -16.346 -0.7793E-01  0.2002E+01
    -16.275 -0.1812E-01  0.2000E+01
    -16.203 -0.3059E-02  0.2000E+01
    -16.131 -0.3833E-03  0.2000E+01
    -16.059 -0.3606E-04  0.2000E+01
    -15.987 -0.2567E-05  0.2000E+01
    -15.915 -0.1389E-06  0.2000E+01
    -15.843 -0.5733E-08  0.2000E+01
    -15.771 -0.1809E-09  0.2000E+01
    -15.699 -0.4374E-11  0.2000E+01
    -15.627 -0.8026E-13  0.2000E+01
    -15.555  0.0000E+00  0.2000E+01
    -15.483  0.0000E+00  0.2000E+01
    -15.411  0.0000E+00  0.2000E+01
    -15.339  0.0000E+00  0.2000E+01
    -15.268  0.0000E+00  0.2000E+01
    -15.196  0.0000E+00  0.2000E+01
    -15.124  0.0000E+00  0.2000E+01
    -15.052  0.0000E+00  0.2000E+01
    -14.980  0.0000E+00  0.2000E+01
    -14.908  0.0000E+00  0.2000E+01
    -14.836  0.0000E+00  0.2000E+01
    -14.764  0.0000E+00  0.2000E+01
    -14.692  0.0000E+00  0.2000E+01
    -14.620  0.0000E+00  0.2000E+01
    -14.548  0.0000E+00  0.2000E+01
    -14.476  0.0000E+00  0.2000E+01
    -14.404  0.0000E+00  0.2000E+01
    -14.332  0.0000E+00  0.2000E+01
    -14.261  0.0000E+00  0.2000E+01
    -14.189  0.0000E+00  0.2000E+01
    -14.117  0.0000E+00  0.2000E+01
    -14.045  0.0000E+00  0.2000E+01
    -13.973  0.0000E+00  0.2000E+01
    -13.901  0.0000E+00  0.2000E+01
    -13.829  0.0000E+00  0.2000E+01
    -13.757  0.0000E+00  0.2000E+01
    -13.685  0.0000E+00  0.2000E+01
    -13.613  0.0000E+00  0.2000E+01
    -13.541  0.0000E+00  0.2000E+01
    -13.469  0.0000E+00  0.2000E+01
    -13.397  0.0000E+00  0.2000E+01
    -13.325  0.0000E+00  0.2000E+01
    -13.254  0.0000E+00  0.2000E+01
    -13.182  0.0000E+00  0.2000E+01
    -13.110  0.0000E+00  0.2000E+01
    -13.038  0.0000E+00  0.2000E+01
    -12.966  0.0000E+00  0.2000E+01
    -12.894  0.0000E+00  0.2000E+01
    -12.822  0.0000E+00  0.2000E+01
    -12.750  0.0000E+00  0.2000E+01
    -12.678  0.0000E+00  0.2000E+01
    -12.606  0.0000E+00  0.2000E+01
    -12.534  0.0000E+00  0.2000E+01
    -12.462  0.0000E+00  0.2000E+01
    -12.390  0.0000E+00  0.2000E+01
    -12.318  0.0000E+00  0.2000E+01
    -12.247  0.0000E+00  0.2000E+01
    -12.175  0.0000E+00  0.2000E+01
    -12.103  0.0000E+00  0.2000E+01
    -12.031  0.0000E+00  0.2000E+01
    -11.959  0.0000E+00  0.2000E+01
    -11.887  0.0000E+00  0.2000E+01
    -11.815  0.0000E+00  0.2000E+01
    -11.743  0.0000E+00  0.2000E+01
    -11.671  0.0000E+00  0.2000E+01
    -11.599  0.0000E+00  0.2000E+01
    -11.527  0.0000E+00  0.2000E+01
    -11.455  0.0000E+00  0.2000E+01
    -11.383  0.0000E+00  0.2000E+01
    -11.311  0.0000E+00  0.2000E+01
    -11.240  0.0000E+00  0.2000E+01
    -11.168  0.0000E+00  0.2000E+01
    -11.096  0.0000E+00  0.2000E+01
    -11.024  0.0000E+00  0.2000E+01
    -10.952 -0.3474E-27  0.2000E+01
    -10.880 -0.1109E-24  0.2000E+01
    -10.808 -0.2648E-22  0.2000E+01
    -10.736 -0.4878E-20  0.2000E+01
    -10.664 -0.6928E-18  0.2000E+01
    -10.592 -0.7584E-16  0.2000E+01
    -10.520 -0.6400E-14  0.2000E+01
    -10.448 -0.4031E-12  0.2000E+01
    -10.376 -0.2014E-10  0.2000E+01
    -10.304 -0.7731E-09  0.2000E+01
    -10.233 -0.2281E-07  0.2000E+01
    -10.161 -0.5169E-06  0.2000E+01
    -10.089 -0.8975E-05  0.2000E+01
    -10.017 -0.1191E-03  0.2000E+01
     -9.945 -0.1203E-02  0.2000E+01
     -9.873 -0.9186E-02  0.1999E+01
     -9.801 -0.5245E-01  0.1995E+01
     -9.729 -0.2193E+00  0.1980E+01
     -9.657 -0.6433E+00  0.1933E+01
     -9.585 -0.1171E+01  0.1849E+01
     -9.513 -0.5868E+00  0.1807E+01
     -9.441  0.3480E+01  0.2057E+01
     -9.369  0.1204E+02  0.2923E+01
     -9.297  0.2124E+02  0.4451E+01
     -9.226  0.2413E+02  0.6186E+01
     -9.154  0.1817E+02  0.7493E+01
     -9.082  0.8405E+01  0.8098E+01
     -9.010  0.1366E+01  0.8196E+01
     -8.938 -0.1102E+01  0.8117E+01
     -8.866 -0.1012E+01  0.8044E+01
     -8.794 -0.4477E+00  0.8012E+01
     -8.722 -0.1308E+00  0.8002E+01
     -8.650 -0.2727E-01  0.8000E+01
     -8.578 -0.4191E-02  0.8000E+01
     -8.506 -0.4823E-03  0.8000E+01
     -8.434 -0.4195E-04  0.8000E+01
     -8.362 -0.2774E-05  0.8000E+01
     -8.290 -0.1400E-06  0.8000E+01
     -8.219 -0.5406E-08  0.8000E+01
     -8.147 -0.1600E-09  0.8000E+01
     -8.075 -0.3630E-11  0.8000E+01
     -8.003 -0.6483E-13  0.8000E+01
     -7.931  0.0000E+00  0.8000E+01
     -7.859  0.0000E+00  0.8000E+01
     -7.787  0.0000E+00  0.8000E+01
     -7.715  0.0000E+00  0.8000E+01
     -7.643  0.0000E+00  0.8000E+01
     -7.571  0.0000E+00  0.8000E+01
     -7.499  0.0000E+00  0.8000E+01
     -7.427  0.0000E+00  0.8000E+01
     -7.355  0.0000E+00  0.8000E+01
     -7.283  0.0000E+00  0.8000E+01
     -7.212  0.0000E+00  0.8000E+01
     -7.140  0.0000E+00  0.8000E+01
     -7.068  0.0000E+00  0.8000E+01
     -6.996  0.0000E+00  0.8000E+01
     -6.924  0.0000E+00  0.8000E+01
     -6.852  0.0000E+00  0.8000E+01
     -6.780  0.0000E+00  0.8000E+01
     -6.708  0.0000E+00  0.8000E+01
     -6.636  0.0000E+00  0.8000E+01
     -6.564  0.0000E+00  0.8000E+01
     -6.492  0.0000E+00  0.8000E+01
     -6.420  0.0000E+00  0.8000E+01
     -6.348  0.0000E+00  0.8000E+01
     -6.276  0.0000E+00  0.8000E+01
     -6.205  0.0000E+00  0.8000E+01
     -6.133  0.0000E+00  0.8000E+01
     -6.061  0.0000E+00  0.8000E+01
     -5.989  0.0000E+00  0.8000E+01
     -5.917  0.0000E+00  0.8000E+01
     -5.845  0.0000E+00  0.8000E+01
     -5.773  0.0000E+00  0.8000E+01
     -5.701  0.0000E+00  0.8000E+01
     -5.629  0.0000E+00  0.8000E+01
     -5.557  0.0000E+00  0.8000E+01
     -5.485  0.0000E+00  0.8000E+01
     -5.413  0.0000E+00  0.8000E+01
     -5.341  0.0000E+00  0.8000E+01
     -5.269  0.0000E+00  0.8000E+01
     -5.198  0.0000E+00  0.8000E+01
     -5.126  0.0000E+00  0.8000E+01
     -5.054  0.0000E+00  0.8000E+01
     -4.982  0.0000E+00  0.8000E+01
     -4.910  0.0000E+00  0.8000E+01
     -4.838  0.0000E+00  0.8000E+01
     -4.766  0.0000E+00  0.8000E+01
     -4.694  0.0000E+00  0.8000E+01
     -4.622  0.0000E+00  0.8000E+01
     -4.550  0.0000E+00  0.8000E+01
     -4.478  0.0000E+00  0.8000E+01
     -4.406  0.0000E+00  0.8000E+01
     -4.334  0.0000E+00  0.8000E+01
     -4.262  0.0000E+00  0.8000E+01
     -4.191  0.0000E+00  0.8000E+01
     -4.119  0.0000E+00  0.8000E+01
     -4.047  0.0000E+00  0.8000E+01
     -3.975  0.0000E+00  0.8000E+01
     -3.903  0.0000E+00  0.8000E+01
     -3.831  0.0000E+00  0.8000E+01
     -3.759  0.0000E+00  0.8000E+01
     -3.687  0.0000E+00  0.8000E+01
     -3.615  0.0000E+00  0.8000E+01
     -3.543  0.0000E+00  0.8000E+01
     -3.471  0.0000E+00  0.8000E+01
     -3.399  0.0000E+00  0.8000E+01
     -3.327  0.0000E+00  0.8000E+01
     -3.255  0.0000E+00  0.8000E+01
     -3.184  0.0000E+00  0.8000E+01
     -3.112  0.0000E+00  0.8000E+01
     -3.040  0.0000E+00  0.8000E+01
     -2.968  0.0000E+00  0.8000E+01
     -2.896  0.0000E+00  0.8000E+01
     -2.824  0.0000E+00  0.8000E+01
     -2.752  0.0000E+00  0.8000E+01
     -2.680  0.0000E+00  0.8000E+01
     -2.608  0.0000E+00  0.8000E+01
     -2.536  0.0000E+00  0.8000E+01
     -2.464  0.0000E+00  0.8000E+01
     -2.392  0.0000E+00  0.8000E+01
     -2.320  0.0000E+00  0.8000E+01
     -2.248  0.0000E+00  0.8000E+01
     -2.177  0.0000E+00  0.8000E+01
     -2.105  0.0000E+00  0.8000E+01
     -2.033  0.0000E+00  0.8000E+01
     -1.961 -0.3156E-27  0.8000E+01
     -1.889 -0.9724E-25  0.8000E+01
     -1.817 -0.2314E-22  0.8000E+01
     -1.745 -0.4240E-20  0.8000E+01
     -1.673 -0.5981E-18  0.8000E+01
     -1.601 -0.6494E-16  0.8000E+01
     -1.529 -0.5424E-14  0.8000E+01
     -1.457 -0.3375E-12  0.8000E+01
     -1.385 -0.1659E-10  0.8000E+01
     -1.313 -0.6246E-09  0.8000E+01
     -1.241 -0.1801E-07  0.8000E+01
     -1.170 -0.3968E-06  0.8000E+01
     -1.098 -0.6661E-05  0.8000E+01
     -1.026 -0.8490E-04  0.8000E+01
     -0.954 -0.8169E-03  0.8000E+01
     -0.882 -0.5883E-02  0.8000E+01
     -0.810 -0.3125E-01  0.7997E+01
     -0.738 -0.1192E+00  0.7989E+01
     -0.666 -0.3072E+00  0.7967E+01
     -0.594 -0.4346E+00  0.7935E+01
     -0.522  0.1375E+00  0.7945E+01
     -0.450  0.2242E+01  0.8107E+01
     -0.378  0.5607E+01  0.8510E+01
     -0.306  0.8102E+01  0.9093E+01
     -0.234  0.7596E+01  0.9639E+01
     -0.163  0.4548E+01  0.9966E+01
     -0.091  0.1416E+01  0.1007E+02
     -0.019 -0.1719E+00  0.1006E+02
      0.053 -0.4543E+00  0.1002E+02
      0.125 -0.3484E+00  0.9998E+01
      0.197 -0.4166E+00  0.9968E+01
      0.269 -0.7216E+00  0.9916E+01
      0.341 -0.7374E+00  0.9863E+01
      0.413  0.8380E+00  0.9923E+01
      0.485  0.5432E+01  0.1031E+02
      0.557  0.1276E+02  0.1123E+02
      0.629  0.1958E+02  0.1264E+02
      0.701  0.2140E+02  0.1418E+02
      0.773  0.1669E+02  0.1538E+02
      0.844  0.8667E+01  0.1600E+02
      0.916  0.2202E+01  0.1616E+02
      0.988 -0.6239E+00  0.1612E+02
      1.060 -0.9256E+00  0.1605E+02
      1.132 -0.4881E+00  0.1602E+02
      1.204 -0.1635E+00  0.1600E+02
      1.276 -0.3862E-01  0.1600E+02
      1.348 -0.6692E-02  0.1600E+02
      1.420 -0.8663E-03  0.1600E+02
      1.492 -0.8468E-04  0.1600E+02
      1.564 -0.6290E-05  0.1600E+02
      1.636 -0.3566E-06  0.1600E+02
      1.708 -0.1547E-07  0.1600E+02
      1.780 -0.5151E-09  0.1600E+02
      1.851 -0.1317E-10  0.1600E+02
      1.923 -0.2593E-12  0.1600E+02
      1.995 -0.3087E-14  0.1600E+02
      2.067  0.0000E+00  0.1600E+02
      2.139  0.0000E+00  0.1600E+02
      2.211  0.0000E+00  0.1600E+02
      2.283  0.0000E+00  0.1600E+02
      2.355  0.0000E+00  0.1600E+02
      2.427  0.0000E+00  0.1600E+02
      2.499  0.0000E+00  0.1600E+02
      2.571  0.0000E+00  0.1600E+02
      2.643  0.0000E+00  0.1600E+02
      2.715  0.0000E+00  0.1600E+02
      2.71321045    -18.83567255  301     -9.02542298      1.00000000
    -18.836  0.0000E+00  0.0000E+00
    -18.764  0.0000E+00  0.0000E+00
    -18.692  0.0000E+00  0.0000E+00
    -18.620  0.0000E+00  0.0000E+00
    -18.548  0.0000E+00  0.0000E+00
    -18.477 -0.3769E-27 -0.2707E-28
    -18.405 -0.1145E-24 -0.8249E-26
    -18.333 -0.2687E-22 -0.1938E-23
    -18.261 -0.4860E-20 -0.3510E-21
    -18.189 -0.6771E-18 -0.4899E-19
    -18.117 -0.7265E-16 -0.5267E-17
    -18.046 -0.6000E-14 -0.4362E-15
    -17.974 -0.3688E-12 -0.2693E-13
    -17.902 -0.1797E-10 -0.1317E-11
    -17.830 -0.6701E-09 -0.4945E-10
    -17.758 -0.1915E-07 -0.1425E-08
    -17.686 -0.4184E-06 -0.3148E-07
    -17.615 -0.6969E-05 -0.5320E-06
    -17.543 -0.8817E-04 -0.6865E-05
    -17.471 -0.8426E-03 -0.6739E-04
    -17.399 -0.6030E-02 -0.5005E-03
    -17.327 -0.3185E-01 -0.2788E-02
    -17.255 -0.1208E+00 -0.1147E-01
    -17.184 -0.3096E+00 -0.3371E-01
    -17.112 -0.4346E+00 -0.6492E-01
    -17.040  0.1463E+00 -0.5441E-01
    -16.968  0.2261E+01  0.1080E+00
    -16.896  0.5627E+01  0.5122E+00
    -16.824  0.8110E+01  0.1095E+01
    -16.753  0.7593E+01  0.1640E+01
    -16.681  0.4543E+01  0.1966E+01
    -16.609  0.1415E+01  0.2068E+01
    -16.537 -0.1679E+00  0.2056E+01
    -16.465 -0.4304E+00  0.2025E+01
    -16.393 -0.2424E+00  0.2008E+01
    -16.322 -0.8280E-01  0.2002E+01
    -16.250 -0.1960E-01  0.2000E+01
    -16.178 -0.3368E-02  0.2000E+01
    -16.106 -0.4294E-03  0.2000E+01
    -16.034 -0.4114E-04  0.2000E+01
    -15.962 -0.2982E-05  0.2000E+01
    -15.891 -0.1644E-06  0.2000E+01
    -15.819 -0.6920E-08  0.2000E+01
    -15.747 -0.2228E-09  0.2000E+01
    -15.675 -0.5499E-11  0.2000E+01
    -15.603 -0.1051E-12  0.2000E+01
    -15.532  0.0000E+00  0.2000E+01
    -15.460  0.0000E+00  0.2000E+01
    -15.388  0.0000E+00  0.2000E+01
    -15.316  0.0000E+00  0.2000E+01
    -15.244  0.0000E+00  0.2000E+01
    -15.172  0.0000E+00  0.2000E+01
    -15.101  0.0000E+00  0.2000E+01
    -15.029  0.0000E+00  0.2000E+01
    -14.957  0.0000E+00  0.2000E+01
    -14.885  0.0000E+00  0.2000E+01
    -14.813  0.0000E+00  0.2000E+01
    -14.741  0.0000E+00  0.2000E+01
    -14.670  0.0000E+00  0.2000E+01
    -14.598  0.0000E+00  0.2000E+01
    -14.526  0.0000E+00  0.2000E+01
    -14.454  0.0000E+00  0.2000E+01
    -14.382  0.0000E+00  0.2000E+01
    -14.310  0.0000E+00  0.2000E+01
    -14.239  0.0000E+00  0.2000E+01
    -14.167  0.0000E+00  0.2000E+01
    -14.095  0.0000E+00  0.2000E+01
    -14.023  0.0000E+00  0.2000E+01
    -13.951  0.0000E+00  0.2000E+01
    -13.879  0.0000E+00  0.2000E+01
    -13.808  0.0000E+00  0.2000E+01
    -13.736  0.0000E+00  0.2000E+01
    -13.664  0.0000E+00  0.2000E+01
    -13.592  0.0000E+00  0.2000E+01
    -13.520  0.0000E+00  0.2000E+01
    -13.448  0.0000E+00  0.2000E+01
    -13.377  0.0000E+00  0.2000E+01
    -13.305  0.0000E+00  0.2000E+01
    -13.233  0.0000E+00  0.2000E+01
    -13.161  0.0000E+00  0.2000E+01
    -13.089  0.0000E+00  0.2000E+01
    -13.017  0.0000E+00  0.2000E+01
    -12.946  0.0000E+00  0.2000E+01
    -12.874  0.0000E+00  0.2000E+01
    -12.802  0.0000E+00  0.2000E+01
    -12.730  0.0000E+00  0.2000E+01
    -12.658  0.0000E+00  0.2000E+01
    -12.586  0.0000E+00  0.2000E+01
    -12.515  0.0000E+00  0.2000E+01
    -12.443  0.0000E+00  0.2000E+01
    -12.371  0.0000E+00  0.2000E+01
    -12.299  0.0000E+00  0.2000E+01
    -12.227  0.0000E+00  0.2000E+01
    -12.156  0.0000E+00  0.2000E+01
    -12.084  0.0000E+00  0.2000E+01
    -12.012  0.0000E+00  0.2000E+01
    -11.940  0.0000E+00  0.2000E+01
    -11.868  0.0000E+00  0.2000E+01
    -11.796  0.0000E+00  0.2000E+01
    -11.725  0.0000E+00  0.2000E+01
    -11.653  0.0000E+00  0.2000E+01
    -11.581  0.0000E+00  0.2000E+01
    -11.509  0.0000E+00  0.2000E+01
    -11.437  0.0000E+00  0.2000E+01
    -11.365  0.0000E+00  0.2000E+01
    -11.294  0.0000E+00  0.2000E+01
    -11.222  0.0000E+00  0.2000E+01
    -11.150  0.0000E+00  0.2000E+01
    -11.078 -0.3540E-28  0.2000E+01
    -11.006 -0.1194E-25  0.2000E+01
    -10.934 -0.3110E-23  0.2000E+01
    -10.863 -0.6244E-21  0.2000E+01
    -10.791 -0.9659E-19  0.2000E+01
    -10.719 -0.1151E-16  0.2000E+01
    -10.647 -0.1056E-14  0.2000E+01
    -10.575 -0.7296E-13  0.2000E+01
    -10.503 -0.3909E-11  0.2000E+01
    -10.432 -0.1622E-09  0.2000E+01
    -10.360 -0.5159E-08  0.2000E+01
    -10.288 -0.1255E-06  0.2000E+01
    -10.216 -0.2332E-05  0.2000E+01
    -10.144 -0.3297E-04  0.2000E+01
    -10.072 -0.3531E-03  0.2000E+01
    -10.001 -0.2843E-02  0.2000E+01
     -9.929 -0.1704E-01  0.1999E+01
     -9.857 -0.7454E-01  0.1993E+01
     -9.785 -0.2295E+00  0.1977E+01
     -9.713 -0.4528E+00  0.1944E+01
     -9.641 -0.3719E+00  0.1917E+01
     -9.570  0.7733E+00  0.1973E+01
     -9.498  0.3404E+01  0.2218E+01
     -9.426  0.6886E+01  0.2712E+01
     -9.354  0.1042E+02  0.3461E+01
     -9.282  0.1408E+02  0.4472E+01
     -9.211  0.1708E+02  0.5699E+01
     -9.139  0.1670E+02  0.6899E+01
     -9.067  0.1170E+02  0.7739E+01
     -8.995  0.5020E+01  0.8100E+01
     -8.923  0.5383E+00  0.8138E+01
     -8.851 -0.8645E+00  0.8076E+01
     -8.780 -0.6831E+00  0.8027E+01
     -8.708 -0.2830E+00  0.8007E+01
     -8.636 -0.7843E-01  0.8001E+01
     -8.564 -0.1555E-01  0.8000E+01
     -8.492 -0.2272E-02  0.8000E+01
     -8.420 -0.2484E-03  0.8000E+01
     -8.349 -0.2051E-04  0.8000E+01
     -8.277 -0.1286E-05  0.8000E+01
     -8.205 -0.6148E-07  0.8000E+01
     -8.133 -0.2248E-08  0.8000E+01
     -8.061 -0.6298E-10  0.8000E+01
     -7.989 -0.1352E-11  0.8000E+01
     -7.918 -0.2473E-13  0.8000E+01
     -7.846  0.0000E+00  0.8000E+01
     -7.774  0.0000E+00  0.8000E+01
     -7.702  0.0000E+00  0.8000E+01
     -7.630  0.0000E+00  0.8000E+01
     -7.558  0.0000E+00  0.8000E+01
     -7.487  0.0000E+00  0.8000E+01
     -7.415  0.0000E+00  0.8000E+01
     -7.343  0.0000E+00  0.8000E+01
     -7.271  0.0000E+00  0.8000E+01
     -7.199  0.0000E+00  0.8000E+01
     -7.127  0.0000E+00  0.8000E+01
     -7.056  0.0000E+00  0.8000E+01
     -6.984  0.0000E+00  0.8000E+01
     -6.912  0.0000E+00  0.8000E+01
     -6.840  0.0000E+00  0.8000E+01
     -6.768  0.0000E+00  0.8000E+01
     -6.696  0.0000E+00  0.8000E+01
     -6.625  0.0000E+00  0.8000E+01
     -6.553  0.0000E+00  0.8000E+01
     -6.481  0.0000E+00  0.8000E+01
     -6.409  0.0000E+00  0.8000E+01
     -6.337  0.0000E+00  0.8000E+01
     -6.265  0.0000E+00  0.8000E+01
     -6.194  0.0000E+00  0.8000E+01
     -6.122  0.0000E+00  0.8000E+01
     -6.050  0.0000E+00  0.8000E+01
     -5.978  0.0000E+00  0.8000E+01
     -5.906  0.0000E+00  0.8000E+01
     -5.835  0.0000E+00  0.8000E+01
     -5.763  0.0000E+00  0.8000E+01
     -5.691  0.0000E+00  0.8000E+01
     -5.619  0.0000E+00  0.8000E+01
     -5.547  0.0000E+00  0.8000E+01
     -5.475  0.0000E+00  0.8000E+01
     -5.404  0.0000E+00  0.8000E+01
     -5.332  0.0000E+00  0.8000E+01
     -5.260  0.0000E+00  0.8000E+01
     -5.188  0.0000E+00  0.8000E+01
     -5.116  0.0000E+00  0.8000E+01
     -5.044  0.0000E+00  0.8000E+01
     -4.973  0.0000E+00  0.8000E+01
     -4.901  0.0000E+00  0.8000E+01
     -4.829  0.0000E+00  0.8000E+01
     -4.757  0.0000E+00  0.8000E+01
     -4.685  0.0000E+00  0.8000E+01
     -4.613  0.0000E+00  0.8000E+01
     -4.542  0.0000E+00  0.8000E+01
     -4.470  0.0000E+00  0.8000E+01
     -4.398  0.0000E+00  0.8000E+01
     -4.326  0.0000E+00  0.8000E+01
     -4.254  0.0000E+00  0.8000E+01
     -4.182  0.0000E+00  0.8000E+01
     -4.111  0.0000E+00  0.8000E+01
     -4.039  0.0000E+00  0.8000E+01
     -3.967  0.0000E+00  0.8000E+01
     -3.895  0.0000E+00  0.8000E+01
     -3.823  0.0000E+00  0.8000E+01
     -3.751  0.0000E+00  0.8000E+01
     -3.680  0.0000E+00  0.8000E+01
     -3.608  0.0000E+00  0.8000E+01
     -3.536  0.0000E+00  0.8000E+01
     -3.464  0.0000E+00  0.8000E+01
     -3.392  0.0000E+00  0.8000E+01
     -3.320  0.0000E+00  0.8000E+01
     -3.249  0.0000E+00  0.8000E+01
     -3.177  0.0000E+00  0.8000E+01
     -3.105  0.0000E+00  0.8000E+01
     -3.033  0.0000E+00  0.8000E+01
     -2.961  0.0000E+00  0.8000E+01
     -2.889  0.0000E+00  0.8000E+01
     -2.818  0.0000E+00  0.8000E+01
     -2.746  0.0000E+00  0.8000E+01
     -2.674  0.0000E+00  0.8000E+01
     -2.602  0.0000E+00  0.8000E+01
     -2.530  0.0000E+00  0.8000E+01
     -2.459  0.0000E+00  0.8000E+01
     -2.387  0.0000E+00  0.8000E+01
     -2.315  0.0000E+00  0.8000E+01
     -2.243  0.0000E+00  0.8000E+01
     -2.171  0.0000E+00  0.8000E+01
     -2.099  0.0000E+00  0.8000E+01
     -2.028  0.0000E+00  0.8000E+01
     -1.956 -0.6563E-27  0.8000E+01
     -1.884 -0.1941E-24  0.8000E+01
     -1.812 -0.4437E-22  0.8000E+01
     -1.740 -0.7816E-20  0.8000E+01
     -1.668 -0.1061E-17  0.8000E+01
     -1.597 -0.1109E-15  0.8000E+01
     -1.525 -0.8926E-14  0.8000E+01
     -1.453 -0.5352E-12  0.8000E+01
     -1.381 -0.2538E-10  0.8000E+01
     -1.309 -0.9226E-09  0.8000E+01
     -1.237 -0.2569E-07  0.8000E+01
     -1.166 -0.5471E-06  0.8000E+01
     -1.094 -0.8880E-05  0.8000E+01
     -1.022 -0.1095E-03  0.8000E+01
     -0.950 -0.1019E-02  0.8000E+01
     -0.878 -0.7093E-02  0.7999E+01
     -0.806 -0.3639E-01  0.7997E+01
     -0.735 -0.1337E+00  0.7987E+01
     -0.663 -0.3285E+00  0.7964E+01
     -0.591 -0.4242E+00  0.7933E+01
     -0.519  0.2645E+00  0.7952E+01
     -0.447  0.2528E+01  0.8134E+01
     -0.375  0.5920E+01  0.8559E+01
     -0.304  0.8196E+01  0.9148E+01
     -0.232  0.7393E+01  0.9679E+01
     -0.160  0.4234E+01  0.9983E+01
     -0.088  0.1207E+01  0.1007E+02
     -0.016 -0.2348E+00  0.1005E+02
      0.056 -0.4488E+00  0.1002E+02
      0.127 -0.3422E+00  0.9996E+01
      0.199 -0.4284E+00  0.9965E+01
      0.271 -0.7249E+00  0.9913E+01
      0.343 -0.6619E+00  0.9865E+01
      0.415  0.1055E+01  0.9941E+01
      0.486  0.5740E+01  0.1035E+02
      0.558  0.1298E+02  0.1129E+02
      0.630  0.1957E+02  0.1269E+02
      0.702  0.2121E+02  0.1422E+02
      0.774  0.1645E+02  0.1540E+02
      0.846  0.8504E+01  0.1601E+02
      0.917  0.2130E+01  0.1616E+02
      0.989 -0.6378E+00  0.1612E+02
      1.061 -0.9196E+00  0.1605E+02
      1.133 -0.4817E+00  0.1601E+02
      1.205 -0.1606E+00  0.1600E+02
      1.277 -0.3782E-01  0.1600E+02
      1.348 -0.6532E-02  0.1600E+02
      1.420 -0.8432E-03  0.1600E+02
      1.492 -0.8222E-04  0.1600E+02
      1.564 -0.6095E-05  0.1600E+02
      1.636 -0.3450E-06  0.1600E+02
      1.708 -0.1495E-07  0.1600E+02
      1.779 -0.4974E-09  0.1600E+02
      1.851 -0.1271E-10  0.1600E+02
      1.923 -0.2535E-12  0.1600E+02
      1.995 -0.3091E-14  0.1600E+02
      2.067  0.0000E+00  0.1600E+02
      2.139  0.0000E+00  0.1600E+02
      2.210  0.0000E+00  0.1600E+02
      2.282  0.0000E+00  0.1600E+02
      2.354  0.0000E+00  0.1600E+02
      2.426  0.0000E+00  0.1600E+02
      2.498  0.0000E+00  0.1600E+02
      2.570  0.0000E+00  0.1600E+02
      2.641  0.0000E+00  0.1600E+02
      2.713  0.0000E+00  0.1600E+02
      2.70981400    -18.74085710  301     -8.90913205      1.00000000
    -18.741  0.0000E+00  0.0000E+00
    -18.669  0.0000E+00  0.0000E+00
    -18.598  0.0000E+00  0.0000E+00
    -18.526  0.0000E+00  0.0000E+00
    -18.455  0.0000E+00  0.0000E+00
    -18.383 -0.3315E-27 -0.2370E-28
    -18.312 -0.9871E-25 -0.7082E-26
    -18.240 -0.2277E-22 -0.1635E-23
    -18.169 -0.4058E-20 -0.2918E-21
    -18.097 -0.5584E-18 -0.4022E-19
    -18.026 -0.5932E-16 -0.4281E-17
    -17.954 -0.4861E-14 -0.3518E-15
    -17.883 -0.2979E-12 -0.2165E-13
    -17.811 -0.1444E-10 -0.1054E-11
    -17.740 -0.5385E-09 -0.3956E-10
    -17.668 -0.1542E-07 -0.1142E-08
    -17.597 -0.3385E-06 -0.2535E-07
    -17.525 -0.5681E-05 -0.4316E-06
    -17.454 -0.7262E-04 -0.5624E-05
    -17.382 -0.7033E-03 -0.5591E-04
    -17.311 -0.5119E-02 -0.4219E-03
    -17.239 -0.2761E-01 -0.2396E-02
    -17.168 -0.1077E+00 -0.1010E-01
    -17.096 -0.2873E+00 -0.3064E-01
    -17.025 -0.4393E+00 -0.6205E-01
    -16.953  0.1633E-01 -0.6088E-01
    -16.882  0.1928E+01  0.7694E-01
    -16.810  0.5213E+01  0.4497E+00
    -16.739  0.7939E+01  0.1017E+01
    -16.667  0.7844E+01  0.1578E+01
    -16.596  0.5014E+01  0.1937E+01
    -16.524  0.1772E+01  0.2063E+01
    -16.453 -0.4227E-01  0.2060E+01
    -16.381 -0.4390E+00  0.2029E+01
    -16.310 -0.2749E+00  0.2009E+01
    -16.238 -0.1006E+00  0.2002E+01
    -16.167 -0.2528E-01  0.2000E+01
    -16.095 -0.4605E-02  0.2000E+01
    -16.024 -0.6222E-03  0.2000E+01
    -15.952 -0.6322E-04  0.2000E+01
    -15.881 -0.4869E-05  0.2000E+01
    -15.809 -0.2857E-06  0.2000E+01
    -15.738 -0.1282E-07  0.2000E+01
    -15.666 -0.4408E-09  0.2000E+01
    -15.595 -0.1164E-10  0.2000E+01
    -15.523 -0.2360E-12  0.2000E+01
    -15.452 -0.6211E-14  0.2000E+01
    -15.380  0.0000E+00  0.2000E+01
    -15.309  0.0000E+00  0.2000E+01
    -15.237  0.0000E+00  0.2000E+01
    -15.166  0.0000E+00  0.2000E+01
    -15.094  0.0000E+00  0.2000E+01
    -15.023  0.0000E+00  0.2000E+01
    -14.951  0.0000E+00  0.2000E+01
    -14.880  0.0000E+00  0.2000E+01
    -14.808  0.0000E+00  0.2000E+01
    -14.737  0.0000E+00  0.2000E+01
    -14.665  0.0000E+00  0.2000E+01
    -14.594  0.0000E+00  0.2000E+01
    -14.522  0.0000E+00  0.2000E+01
    -14.451  0.0000E+00  0.2000E+01
    -14.379  0.0000E+00  0.2000E+01
    -14.308  0.0000E+00  0.2000E+01
    -14.236  0.0000E+00  0.2000E+01
    -14.165  0.0000E+00  0.2000E+01
    -14.093  0.0000E+00  0.2000E+01
    -14.022  0.0000E+00  0.2000E+01
    -13.950  0.0000E+00  0.2000E+01
    -13.879  0.0000E+00  0.2000E+01
    -13.807  0.0000E+00  0.2000E+01
    -13.736  0.0000E+00  0.2000E+01
    -13.664  0.0000E+00  0.2000E+01
    -13.593  0.0000E+00  0.2000E+01
    -13.521  0.0000E+00  0.2000E+01
    -13.450  0.0000E+00  0.2000E+01
    -13.378  0.0000E+00  0.2000E+01
    -13.307  0.0000E+00  0.2000E+01
    -13.235  0.0000E+00  0.2000E+01
    -13.164  0.0000E+00  0.2000E+01
    -13.092  0.0000E+00  0.2000E+01
    -13.021  0.0000E+00  0.2000E+01
    -12.949  0.0000E+00  0.2000E+01
    -12.878  0.0000E+00  0.2000E+01
    -12.806  0.0000E+00  0.2000E+01
    -12.735  0.0000E+00  0.2000E+01
    -12.663  0.0000E+00  0.2000E+01
    -12.592  0.0000E+00  0.2000E+01
    -12.520  0.0000E+00  0.2000E+01
    -12.449  0.0000E+00  0.2000E+01
    -12.377  0.0000E+00  0.2000E+01
    -12.306  0.0000E+00  0.2000E+01
    -12.234  0.0000E+00  0.2000E+01
    -12.163  0.0000E+00  0.2000E+01
    -12.091  0.0000E+00  0.2000E+01
    -12.020  0.0000E+00  0.2000E+01
    -11.948  0.0000E+00  0.2000E+01
    -11.877  0.0000E+00  0.2000E+01
    -11.805  0.0000E+00  0.2000E+01
    -11.734  0.0000E+00  0.2000E+01
    -11.662  0.0000E+00  0.2000E+01
    -11.591  0.0000E+00  0.2000E+01
    -11.519  0.0000E+00  0.2000E+01
    -11.448  0.0000E+00  0.2000E+01
    -11.376  0.0000E+00  0.2000E+01
    -11.305  0.0000E+00  0.2000E+01
    -11.233  0.0000E+00  0.2000E+01
    -11.162  0.0000E+00  0.2000E+01
    -11.090 -0.6788E-27  0.2000E+01
    -11.019 -0.1958E-24  0.2000E+01
    -10.947 -0.4376E-22  0.2000E+01
    -10.876 -0.7553E-20  0.2000E+01
    -10.804 -0.1007E-17  0.2000E+01
    -10.733 -0.1036E-15  0.2000E+01
    -10.661 -0.8220E-14  0.2000E+01
    -10.590 -0.4875E-12  0.2000E+01
    -10.518 -0.2289E-10  0.2000E+01
    -10.447 -0.8262E-09  0.2000E+01
    -10.375 -0.2290E-07  0.2000E+01
    -10.304 -0.4864E-06  0.2000E+01
    -10.232 -0.7895E-05  0.2000E+01
    -10.161 -0.9755E-04  0.2000E+01
    -10.089 -0.9125E-03  0.2000E+01
    -10.018 -0.6406E-02  0.1999E+01
     -9.946 -0.3326E-01  0.1997E+01
     -9.875 -0.1243E+00  0.1988E+01
     -9.803 -0.3142E+00  0.1966E+01
     -9.732 -0.4352E+00  0.1935E+01
     -9.660  0.1483E+00  0.1945E+01
     -9.589  0.2222E+01  0.2104E+01
     -9.517  0.5418E+01  0.2492E+01
     -9.446  0.7558E+01  0.3032E+01
     -9.374  0.6815E+01  0.3519E+01
     -9.303  0.4716E+01  0.3856E+01
     -9.231  0.5201E+01  0.4228E+01
     -9.160  0.9752E+01  0.4926E+01
     -9.088  0.1475E+02  0.5980E+01
     -9.017  0.1517E+02  0.7065E+01
     -8.945  0.1032E+02  0.7803E+01
     -8.874  0.4137E+01  0.8099E+01
     -8.802  0.2977E+00  0.8120E+01
     -8.731 -0.7843E+00  0.8064E+01
     -8.659 -0.5798E+00  0.8023E+01
     -8.588 -0.2357E+00  0.8006E+01
     -8.516 -0.6524E-01  0.8001E+01
     -8.445 -0.1308E-01  0.8000E+01
     -8.373 -0.1950E-02  0.8000E+01
     -8.302 -0.2192E-03  0.8000E+01
     -8.230 -0.1873E-04  0.8000E+01
     -8.159 -0.1222E-05  0.8000E+01
     -8.087 -0.6116E-07  0.8000E+01
     -8.016 -0.2350E-08  0.8000E+01
     -7.944 -0.6949E-10  0.8000E+01
     -7.873 -0.1582E-11  0.8000E+01
     -7.801 -0.3105E-13  0.8000E+01
     -7.730  0.0000E+00  0.8000E+01
     -7.658  0.0000E+00  0.8000E+01
     -7.587  0.0000E+00  0.8000E+01
     -7.515  0.0000E+00  0.8000E+01
     -7.444  0.0000E+00  0.8000E+01
     -7.372  0.0000E+00  0.8000E+01
     -7.300  0.0000E+00  0.8000E+01
     -7.229  0.0000E+00  0.8000E+01
     -7.157  0.0000E+00  0.8000E+01
     -7.086  0.0000E+00  0.8000E+01
     -7.014  0.0000E+00  0.8000E+01
     -6.943  0.0000E+00  0.8000E+01
     -6.871  0.0000E+00  0.8000E+01
     -6.800  0.0000E+00  0.8000E+01
     -6.728  0.0000E+00  0.8000E+01
     -6.657  0.0000E+00  0.8000E+01
     -6.585  0.0000E+00  0.8000E+01
     -6.514  0.0000E+00  0.8000E+01
     -6.442  0.0000E+00  0.8000E+01
     -6.371  0.0000E+00  0.8000E+01
     -6.299  0.0000E+00  0.8000E+01
     -6.228  0.0000E+00  0.8000E+01
     -6.156  0.0000E+00  0.8000E+01
     -6.085  0.0000E+00  0.8000E+01
     -6.013  0.0000E+00  0.8000E+01
     -5.942  0.0000E+00  0.8000E+01
     -5.870  0.0000E+00  0.8000E+01
     -5.799  0.0000E+00  0.8000E+01
     -5.727  0.0000E+00  0.8000E+01
     -5.656  0.0000E+00  0.8000E+01
     -5.584  0.0000E+00  0.8000E+01
     -5.513  0.0000E+00  0.8000E+01
     -5.441  0.0000E+00  0.8000E+01
     -5.370  0.0000E+00  0.8000E+01
     -5.298  0.0000E+00  0.8000E+01
     -5.227  0.0000E+00  0.8000E+01
     -5.155  0.0000E+00  0.8000E+01
     -5.084  0.0000E+00  0.8000E+01
     -5.012  0.0000E+00  0.8000E+01
     -4.941  0.0000E+00  0.8000E+01
     -4.869  0.0000E+00  0.8000E+01
     -4.798  0.0000E+00  0.8000E+01
     -4.726  0.0000E+00  0.8000E+01
     -4.655  0.0000E+00  0.8000E+01
     -4.583  0.0000E+00  0.8000E+01
     -4.512  0.0000E+00  0.8000E+01
     -4.440  0.0000E+00  0.8000E+01
     -4.369  0.0000E+00  0.8000E+01
     -4.297  0.0000E+00  0.8000E+01
     -4.226  0.0000E+00  0.8000E+01
     -4.154  0.0000E+00  0.8000E+01
     -4.083  0.0000E+00  0.8000E+01
     -4.011  0.0000E+00  0.8000E+01
     -3.940  0.0000E+00  0.8000E+01
     -3.868  0.0000E+00  0.8000E+01
     -3.797  0.0000E+00  0.8000E+01
     -3.725  0.0000E+00  0.8000E+01
     -3.654  0.0000E+00  0.8000E+01
     -3.582  0.0000E+00  0.8000E+01
     -3.511  0.0000E+00  0.8000E+01
     -3.439  0.0000E+00  0.8000E+01
     -3.368  0.0000E+00  0.8000E+01
     -3.296  0.0000E+00  0.8000E+01
     -3.225  0.0000E+00  0.8000E+01
     -3.153  0.0000E+00  0.8000E+01
     -3.082  0.0000E+00  0.8000E+01