    5    5    1    1
  0.2001796E+03  0.1014493E-08  0.1001183E-08  0.9859704E-09  0.2000000E-14
   50.000000000000000     
  CAR 
 unknown system                          
      8      4      8

  0.2500000E+00  0.2500000E+00  0.2500000E+00  0.2500000E+00
    1      -17.019245   1.000000
    2       -9.852829   1.000000
    3       -9.289292   1.000324
    4       -8.904047   0.999715
    5       -0.307738   0.000000
    6        0.575522   0.000000
    7        0.670556   0.000000
    8        0.699878   0.000000

 -0.2500000E+00  0.2500000E+00  0.2500000E+00  0.2500000E+00
    1      -17.019201   1.000000
    2       -9.852752   1.000000
    3       -9.289277   1.000324
    4       -8.903982   0.999644
    5       -0.306507   0.000000
    6        0.562047   0.000000
    7        0.676467   0.000000
    8        0.696511   0.000000

  0.2500000E+00 -0.2500000E+00  0.2500000E+00  0.2500000E+00
    1      -17.019202   1.000000
    2       -9.852770   1.000000
    3       -9.289251   1.000324
    4       -8.903986   0.999648
    5       -0.314109   0.000000
    6        0.577914   0.000000
    7        0.688165   0.000000
    8        0.725336   0.000000

 -0.2500000E+00 -0.2500000E+00  0.2500000E+00  0.2500000E+00
    1      -17.019236   1.000000
    2       -9.852714   1.000000
    3       -9.289413   1.000323
    4       -8.904031   0.999698
    5       -0.309230   0.000000
    6        0.565256   0.000000
    7        0.673288   0.000000
    8        0.721812   0.000000
