 vasp.5.4.4.18Apr17-6-g9f103f2a35 (build Jul 12 2018 13:43:46) complex           
 executed on             LinuxGNU date 2019.06.22  02:17:35
 running on    1 total cores
 distrk:  each k-point on    1 cores,    1 groups
 distr:  one band on NCORES_PER_BAND=   1 cores,    1 groups


--------------------------------------------------------------------------------------------------------


 INCAR:
 POTCAR:    PAW_PBE H 15Jun2001                   
 POTCAR:    PAW_PBE C 08Apr2002                   
 POTCAR:    PAW_PBE H 15Jun2001                   
   VRHFIN =H: ultrasoft test                                                    
   LEXCH  = PE                                                                  
   EATOM  =    12.4884 eV,    0.9179 Ry                                         
                                                                                
   TITEL  = PAW_PBE H 15Jun2001                                                 
   LULTRA =        F    use ultrasoft PP ?                                      
   IUNSCR =        0    unscreen: 0-lin 1-nonlin 2-no                           
   RPACOR =    0.000    partial core radius                                     
   POMASS =    1.000; ZVAL   =    1.000    mass and valenz                      
   RCORE  =    1.100    outmost cutoff radius                                   
   RWIGS  =    0.700; RWIGS  =    0.370    wigner-seitz radius (au A)           
   ENMAX  =  250.000; ENMIN  =  200.000 eV                                      
   RCLOC  =    0.701    cutoff for local pot                                    
   LCOR   =        T    correct aug charges                                     
   LPAW   =        T    paw PP                                                  
   EAUG   =  400.000                                                            
   RMAX   =    1.123    core radius for proj-oper                               
   RAUG   =    1.200    factor for augmentation sphere                          
   RDEP   =    1.112    radius for radial grids                                 
   RDEPT  =    0.926    core radius for aug-charge                              
                                                                                
   Atomic configuration                                                         
    2 entries                                                                   
     n  l   j            E        occ.                                          
     1  0  0.50        -6.4927   1.0000                                         
     2  1  0.50        -3.4015   0.0000                                         
   Description                                                                  
     l       E           TYP  RCUT    TYP  RCUT                                 
     0     -6.4927494     23  1.100                                             
     0      6.8029130     23  1.100                                             
     1     -4.0817478     23  1.100                                             
  local pseudopotential read in
  atomic valenz-charges read in
  non local Contribution for L=           0  read in
    real space projection operators read in
  non local Contribution for L=           0  read in
    real space projection operators read in
  non local Contribution for L=           1  read in
    real space projection operators read in
    PAW grid and wavefunctions read in

   number of l-projection  operators is LMAX  =           3
   number of lm-projection operators is LMMAX =           5

 POTCAR:    PAW_PBE C 08Apr2002                   
   VRHFIN =C: s2p2                                                              
   LEXCH  = PE                                                                  
   EATOM  =   147.1560 eV,   10.8157 Ry                                         
                                                                                
   TITEL  = PAW_PBE C 08Apr2002                                                 
   LULTRA =        F    use ultrasoft PP ?                                      
   IUNSCR =        1    unscreen: 0-lin 1-nonlin 2-no                           
   RPACOR =    1.200    partial core radius                                     
   POMASS =   12.011; ZVAL   =    4.000    mass and valenz                      
   RCORE  =    1.500    outmost cutoff radius                                   
   RWIGS  =    1.630; RWIGS  =    0.863    wigner-seitz radius (au A)           
   ENMAX  =  400.000; ENMIN  =  300.000 eV                                      
   ICORE  =        2    local potential                                         
   LCOR   =        T    correct aug charges                                     
   LPAW   =        T    paw PP                                                  
   EAUG   =  644.873                                                            
   DEXC   =    0.000                                                            
   RMAX   =    1.529    core radius for proj-oper                               
   RAUG   =    1.300    factor for augmentation sphere                          
   RDEP   =    1.501    radius for radial grids                                 
   RDEPT  =    1.300    core radius for aug-charge                              
                                                                                
   Atomic configuration                                                         
    4 entries                                                                   
     n  l   j            E        occ.                                          
     1  0  0.50      -273.3789   2.0000                                         
     2  0  0.50       -13.7508   2.0000                                         
     2  1  0.50        -5.2854   2.0000                                         
     3  2  1.50        -5.4423   0.0000                                         
   Description                                                                  
     l       E           TYP  RCUT    TYP  RCUT                                 
     0    -13.7508458     23  1.200                                             
     0     -8.2022199     23  1.200                                             
     1     -5.2854383     23  1.500                                             
     1     34.0145650     23  1.500                                             
     2     -5.4423304      7  1.500                                             
  local pseudopotential read in
  partial core-charges read in
  partial kinetic energy density read in
  atomic valenz-charges read in
  non local Contribution for L=           0  read in
    real space projection operators read in
  non local Contribution for L=           0  read in
    real space projection operators read in
  non local Contribution for L=           1  read in
    real space projection operators read in
  non local Contribution for L=           1  read in
    real space projection operators read in
    PAW grid and wavefunctions read in

   number of l-projection  operators is LMAX  =           4
   number of lm-projection operators is LMMAX =           8


 ----------------------------------------------------------------------------- 
|                                                                             |
|  ADVICE TO THIS USER RUNNING 'VASP/VAMP'   (HEAR YOUR MASTER'S VOICE ...):  |
|                                                                             |
|      You have a (more or less) 'small supercell' and for smaller cells      |
|      it is recommended  to use the reciprocal-space projection scheme!      |
|      The real space optimization is not  efficient for small cells and it   |
|      is also less accurate ...                                              |
|      Therefore set LREAL=.FALSE. in the  INCAR file                         |
|                                                                             |
 ----------------------------------------------------------------------------- 


 ----------------------------------------------------------------------------- 
|                                                                             |
|           W    W    AA    RRRRR   N    N  II  N    N   GGGG   !!!           |
|           W    W   A  A   R    R  NN   N  II  NN   N  G    G  !!!           |
|           W    W  A    A  R    R  N N  N  II  N N  N  G       !!!           |
|           W WW W  AAAAAA  RRRRR   N  N N  II  N  N N  G  GGG   !            |
|           WW  WW  A    A  R   R   N   NN  II  N   NN  G    G                |
|           W    W  A    A  R    R  N    N  II  N    N   GGGG   !!!           |
|                                                                             |
|     The real-space-projection scheme for the treatment of the nonlocal      |
|     pseudopotentials has been switched on -- but on file POTCAR I have      |
|     not found any entries signalling me that you have ever performed a      |
|     real-space optimization of all nonlocal projectors! BE WARNED that      |
|     a calculation using the real-space-projection scheme together with      |
|     nonlocal projectors which were not real-space-optimized (according      |
|     to the plane-wave-cutoff used in this calculation) might give more      |
|     or less inaccurate results                                              |
|     I hope you know what you are doing                                      |
|                                                                             |
 ----------------------------------------------------------------------------- 

  PAW_PBE H 15Jun2001                   :
 energy of atom  1       EATOM=  -12.4884
 kinetic energy error for atom=    0.0098 (will be added to EATOM!!)
  PAW_PBE C 08Apr2002                   :
 energy of atom  2       EATOM= -147.1560
 kinetic energy error for atom=    0.0288 (will be added to EATOM!!)


 POSCAR:  H  C                                   
  positions in cartesian coordinates
  No initial velocities read in
 exchange correlation table for  LEXCH =        8
   RHO(1)=    0.500       N(1)  =     2000
   RHO(2)=  100.500       N(2)  =     4000



--------------------------------------------------------------------------------------------------------


 ion  position               nearest neighbor table
   1  0.539  0.407  0.360-   5 1.08
   2  0.394  0.481  0.438-   5 1.12
   3  0.552  0.565  0.443-   5 1.09
   4  0.528  0.417  0.540-   5 1.11
   5  0.503  0.468  0.445-   1 1.08   3 1.09   4 1.11   2 1.12


IMPORTANT INFORMATION: All symmetrisations will be switched off!
NOSYMM: (Re-)initialisation of all symmetry stuff for point group C_1.




Automatic generation of k-mesh.
 generate k-points for:    2    2    2
Space group operators:
 irot       det(A)        alpha          n_x          n_y          n_z        tau_x        tau_y        tau_z
    1     1.000000     0.000001     1.000000     0.000000     0.000000     0.000000     0.000000     0.000000
 
 Subroutine IBZKPT returns following result:
 ===========================================
 
 Found      4 irreducible k-points:
 
 Following reciprocal coordinates:
            Coordinates               Weight
  0.250000  0.250000  0.250000      2.000000
 -0.250000  0.250000  0.250000      2.000000
  0.250000 -0.250000  0.250000      2.000000
 -0.250000 -0.250000  0.250000      2.000000
 
 Following cartesian coordinates:
            Coordinates               Weight
  0.024643  0.025250  0.025601      2.000000
 -0.024643  0.024694  0.026429      2.000000
  0.024643 -0.024694  0.024307      2.000000
 -0.024643 -0.025250  0.025135      2.000000
 


--------------------------------------------------------------------------------------------------------




 Dimension of arrays:
   k-points           NKPTS =      4   k-points in BZ     NKDIM =      4   number of bands    NBANDS=      8
   number of dos      NEDOS =    301   number of ions     NIONS =      5
   non local maximal  LDIM  =      4   non local SUM 2l+1 LMDIM =      8
   total plane-waves  NPLWV = 313600
   max r-space proj   IRMAX =    744   max aug-charges    IRDMAX=   3896
   dimension x,y,z NGX =    70 NGY =   70 NGZ =   64
   dimension x,y,z NGXF=   140 NGYF=  140 NGZF=  128
   support grid    NGXF=   140 NGYF=  140 NGZF=  128
   ions per type =               4   1
   NGX,Y,Z   is equivalent  to a cutoff of  11.47, 11.62, 10.79 a.u.
   NGXF,Y,Z  is equivalent  to a cutoff of  22.94, 23.25, 21.58 a.u.

 SYSTEM =  unknown system                          
 POSCAR =   H  C                                   

 Startparameter for this run:
   NWRITE =      2    write-flag & timer
   PREC   = a         normal or accurate (medium, high low for compatibility)
   ISTART =      0    job   : 0-new  1-cont  2-samecut
   ICHARG =      2    charge: 1-file 2-atom 10-const
   ISPIN  =      1    spin polarized calculation?
   LNONCOLLINEAR =      F non collinear calculations
   LSORBIT =      F    spin-orbit coupling
   INIWAV =      1    electr: 0-lowe 1-rand  2-diag
   LASPH  =      F    aspherical Exc in radial PAW
   METAGGA=      F    non-selfconsistent MetaGGA calc.

 Electronic Relaxation 1
   ENCUT  =  400.0 eV  29.40 Ry    5.42 a.u.  16.54 16.33 16.08*2*pi/ulx,y,z
   ENINI  =  400.0     initial cutoff
   ENAUG  =  644.9 eV  augmentation charge cutoff
   NELM   =     60;   NELMIN=  2; NELMDL= -5     # of ELM steps 
   EDIFF  = 0.1E-05   stopping-criterion for ELM
   LREAL  =      T    real-space projection
   NLSPLINE    = F    spline interpolate recip. space projectors
   LCOMPAT=      F    compatible to vasp.4.4
   GGA_COMPAT  = T    GGA compatible to vasp.4.4-vasp.4.6
   LMAXPAW     = -100 max onsite density
   LMAXMIX     =    2 max onsite mixed and CHGCAR
   VOSKOWN=      0    Vosko Wilk Nusair interpolation
   ROPT   =    0.00000   0.00000
 Ionic relaxation
   EDIFFG = 0.1E-04   stopping-criterion for IOM
   NSW    =     10    number of steps for IOM
   NBLOCK =      1;   KBLOCK =      1    inner block; outer block 
   IBRION =      0    ionic relax: 0-MD 1-quasi-New 2-CG
   NFREE  =      0    steps in history (QN), initial steepest desc. (CG)
   ISIF   =      2    stress and relaxation
   IWAVPR =     12    prediction:  0-non 1-charg 2-wave 3-comb
   ISYM   =      0    0-nonsym 1-usesym 2-fastsym
   LCORR  =      T    Harris-Foulkes like correction to forces

   POTIM  = 2.0000    time-step for ionic-motion
   TEIN   =   50.0    initial temperature
   TEBEG  =   50.0;   TEEND  =  50.0 temperature during run
   SMASS  =   0.00    Nose mass-parameter (am)
   estimated Nose-frequenzy (Omega)   =  0.79E+14 period in steps = 40.00 mass=   0.123E-29a.u.
   SCALEE = 1.0000    scale energy and forces
   NPACO  =    256;   APACO  = 16.0  distance and # of slots for P.C.
   PSTRESS=    0.0 pullay stress

  Mass of Ions in am
   POMASS =   1.00 12.01
  Ionic Valenz
   ZVAL   =   1.00  4.00
  Atomic Wigner-Seitz radii
   RWIGS  =  -1.00 -1.00
  virtual crystal weights 
   VCA    =   1.00  1.00
   NELECT =       8.0000    total number of electrons
   NUPDOWN=      -1.0000    fix difference up-down

 DOS related values:
   EMIN   =  10.00;   EMAX   =-10.00  energy-range for DOS
   EFERMI =   0.00
   ISMEAR =     1;   SIGMA  =   0.20  broadening in eV -4-tet -1-fermi 0-gaus

 Electronic relaxation 2 (details)
   IALGO  =     68    algorithm
   LDIAG  =      T    sub-space diagonalisation (order eigenvalues)
   LSUBROT=      F    optimize rotation matrix (better conditioning)
   TURBO    =      0    0=normal 1=particle mesh
   IRESTART =      0    0=no restart 2=restart with 2 vectors
   NREBOOT  =      0    no. of reboots
   NMIN     =      0    reboot dimension
   EREF     =   0.00    reference energy to select bands
   IMIX   =      4    mixing-type and parameters
     AMIX     =   0.40;   BMIX     =  1.00
     AMIX_MAG =   1.60;   BMIX_MAG =  1.00
     AMIN     =   0.10
     WC   =   100.;   INIMIX=   1;  MIXPRE=   1;  MAXMIX=  50

 Intra band minimization:
   WEIMIN = 0.0010     energy-eigenvalue tresh-hold
   EBREAK =  0.31E-07  absolut break condition
   DEPER  =   0.30     relativ break condition  

   TIME   =   0.40     timestep for ELM

  volume/ion in A,a.u.               =     200.18      1350.88
  Fermi-wavevector in a.u.,A,eV,Ry     =   0.327322  0.618548  1.457722  0.107140
  Thomas-Fermi vector in A             =   1.219948

 Write flags
   LWAVE        =      F    write WAVECAR
   LDOWNSAMPLE  =      F    k-point downsampling of WAVECAR
   LCHARG       =      F    write CHGCAR
   LVTOT        =      F    write LOCPOT, total local potential
   LVHAR        =      F    write LOCPOT, Hartree potential only
   LELF         =      F    write electronic localiz. function (ELF)
   LORBIT       =      0    0 simple, 1 ext, 2 COOP (PROOUT), +10 PAW based schemes


 Dipole corrections
   LMONO  =      F    monopole corrections only (constant potential shift)
   LDIPOL =      F    correct potential (dipole corrections)
   IDIPOL =      0    1-x, 2-y, 3-z, 4-all directions 
   EPSILON=  1.0000000 bulk dielectric constant

 Exchange correlation treatment:
   GGA     =    --    GGA type
   LEXCH   =     8    internal setting for exchange type
   VOSKOWN=      0    Vosko Wilk Nusair interpolation
   LHFCALC =     F    Hartree Fock is set to
   LHFONE  =     F    Hartree Fock one center treatment
   AEXX    =    0.0000 exact exchange contribution

 Linear response parameters
   LEPSILON=     F    determine dielectric tensor
   LRPA    =     F    only Hartree local field effects (RPA)
   LNABLA  =     F    use nabla operator in PAW spheres
   LVEL    =     F    velocity operator in full k-point grid
   LINTERFAST=   F  fast interpolation
   KINTER  =     0    interpolate to denser k-point grid
   CSHIFT  =0.1000    complex shift for real part using Kramers Kronig
   OMEGAMAX=  -1.0    maximum frequency
   DEG_THRESHOLD= 0.2000000E-02 threshold for treating states as degnerate
   RTIME   =   -0.100 relaxation time in fs
  (WPLASMAI=    0.000 imaginary part of plasma frequency in eV, 0.658/RTIME)
   DFIELD  = 0.0000000 0.0000000 0.0000000 field for delta impulse in time

 Orbital magnetization related:
   ORBITALMAG=     F  switch on orbital magnetization
   LCHIMAG   =     F  perturbation theory with respect to B field
   DQ        =  0.001000  dq finite difference perturbation B field
   LLRAUG    =     F  two centre corrections for induced B field



--------------------------------------------------------------------------------------------------------


 molecular dynamics for ions
   using nose mass (canonical ensemble)
 charge density and potential will be updated during run
 non-spin polarized calculation
 RMM-DIIS sequential band-by-band and
  variant of blocked Davidson during initial phase
 perform sub-space diagonalisation
    before iterative eigenvector-optimisation
 modified Broyden-mixing scheme, WC =      100.0
 initial mixing is a Kerker type mixing with AMIX =  0.4000 and BMIX =      1.0000
 Hartree-type preconditioning will be used
 using additional bands            4
 real space projection scheme for non local part
 use partial core corrections
 calculate Harris-corrections to forces   (improved forces if not selfconsistent)
 use gradient corrections 
 use of overlap-Matrix (Vanderbilt PP)
 Methfessel and Paxton  Order N= 1 SIGMA  =   0.20


--------------------------------------------------------------------------------------------------------


  energy-cutoff  :      400.00
  volume of cell :     1000.90
      direct lattice vectors                 reciprocal lattice vectors
    10.144928094  0.000000000  0.000000000     0.098571423  0.001111070 -0.001656696
    -0.112843452 10.011198217  0.000000000    -0.000000000  0.099888143  0.002588381
     0.168511283 -0.255369433  9.854956166     0.000000000 -0.000000000  0.101471786

  length of vectors
    10.144928094 10.011834167  9.859704388     0.098591605  0.099921674  0.101471786



 k-points in units of 2pi/SCALE and weight: read from INCAR                         
   0.02464286  0.02524980  0.02560087       0.250
  -0.02464286  0.02469427  0.02642922       0.250
   0.02464286 -0.02469427  0.02430668       0.250
  -0.02464286 -0.02524980  0.02513503       0.250

 k-points in reciprocal lattice and weights: read from INCAR                         
   0.25000000  0.25000000  0.25000000       0.250
  -0.25000000  0.25000000  0.25000000       0.250
   0.25000000 -0.25000000  0.25000000       0.250
  -0.25000000 -0.25000000  0.25000000       0.250

 position of ions in fractional coordinates (direct lattice) 
   0.53869339  0.40735271  0.35995054
   0.39417894  0.48074277  0.43838100
   0.55188888  0.56522287  0.44283480
   0.52766251  0.41688676  0.53965609
   0.50320208  0.46764359  0.44527841

 position of ions in cartesian coordinates  (Angst):
   5.47969430  3.98616839  3.54729678
   4.01854045  4.70086205  4.32022551
   5.60971400  5.54547175  4.36411758
   5.39699344  4.03572428  5.31828707
   5.12721288  4.56796215  4.38819920



--------------------------------------------------------------------------------------------------------


 k-point  1 :   0.2500 0.2500 0.2500  plane waves:   18195
 k-point  2 :  -0.2500 0.2500 0.2500  plane waves:   18179
 k-point  3 :   0.2500-0.2500 0.2500  plane waves:   18173
 k-point  4 :  -0.2500-0.2500 0.2500  plane waves:   18200

 maximum and minimum number of plane-waves per node :     18200    18173

 maximum number of plane-waves:     18200
 maximum index in each direction: 
   IXMAX=   16   IYMAX=   16   IZMAX=   15
   IXMIN=  -16   IYMIN=  -16   IZMIN=  -16


 serial   3D FFT for wavefunctions
 parallel 3D FFT for charge:
    minimum data exchange during FFTs selected (reduces bandwidth)


 total amount of memory used by VASP MPI-rank0   280891. kBytes
=======================================================================

   base      :      30000. kBytes
   nonlr-proj:        153. kBytes
   fftplans  :      86708. kBytes
   grid      :     154683. kBytes
   one-center:         15. kBytes
   wavefun   :       9332. kBytes

     INWAV:  cpu time    0.0000: real time    0.0000
 Broyden mixing: mesh for mixing (old mesh)
   NGX = 33   NGY = 33   NGZ = 33
  (NGX  =140   NGY  =140   NGZ  =128)
  gives a total of  35937 points

 initial charge density was supplied:
 charge density of overlapping atoms calculated
 number of electron       8.0000000 magnetization 
 keeping initial charge density in first step


--------------------------------------------------------------------------------------------------------


 Maximum index for non-local projection operator          677
 Maximum index for augmentation-charges         3579 (set IRDMAX)


--------------------------------------------------------------------------------------------------------


 First call to EWALD:  gamma=   0.177
 Maximum number of real-space cells 3x 3x 3
 Maximum number of reciprocal cells 3x 3x 3

    FEWALD:  cpu time    0.0007: real time    0.0007


--------------------------------------- Iteration      1(   1)  ---------------------------------------


    POTLOK:  cpu time    1.7087: real time    1.7130
    SETDIJ:  cpu time    0.0066: real time    0.0066
     EDDAV:  cpu time    2.5158: real time    2.5217
       DOS:  cpu time    0.0003: real time    0.0003
    --------------------------------------------
      LOOP:  cpu time    4.2314: real time    4.2416

 eigenvalue-minimisations  :    96
 total energy-change (2. order) : 0.1372019E+02  (-0.2030921E+03)
 number of electron       8.0000000 magnetization 
 augmentation part        8.0000000 magnetization 

 Free energy of the ion-electron system (eV)
  ---------------------------------------------------
  alpha Z        PSCENC =         0.24203350
  Ewald energy   TEWEN  =       128.32754928
  -Hartree energ DENC   =      -243.79547103
  -exchange      EXHF   =         0.00000000
  -V(xc)+E(xc)   XCENC  =        21.99882173
  PAW double counting   =       117.05815612     -117.66307307
  entropy T*S    EENTRO =         0.00289895
  eigenvalues    EBANDS =       -89.49248378
  atomic energy  EATOM  =       197.04175453
  Solvation  Ediel_sol  =         0.00000000
  ---------------------------------------------------
  free energy    TOTEN  =        13.72018623 eV

  energy without entropy =       13.71728728  energy(sigma->0) =       13.71921992


--------------------------------------------------------------------------------------------------------




--------------------------------------- Iteration      1(   2)  ---------------------------------------


     EDDAV:  cpu time    1.7817: real time    1.7860
       DOS:  cpu time    0.0002: real time    0.0002
    --------------------------------------------
      LOOP:  cpu time    1.7819: real time    1.7862

 eigenvalue-minimisations  :    64
 total energy-change (2. order) :-0.3643922E+02  (-0.3643922E+02)
 number of electron       8.0000000 magnetization 
 augmentation part        8.0000000 magnetization 

 Free energy of the ion-electron system (eV)
  ---------------------------------------------------
  alpha Z        PSCENC =         0.24203350
  Ewald energy   TEWEN  =       128.32754928
  -Hartree energ DENC   =      -243.79547103
  -exchange      EXHF   =         0.00000000
  -V(xc)+E(xc)   XCENC  =        21.99882173
  PAW double counting   =       117.05815612     -117.66307307
  entropy T*S    EENTRO =         0.00289895
  eigenvalues    EBANDS =      -125.93169879
  atomic energy  EATOM  =       197.04175453
  Solvation  Ediel_sol  =         0.00000000
  ---------------------------------------------------
  free energy    TOTEN  =       -22.71902877 eV

  energy without entropy =      -22.72192772  energy(sigma->0) =      -22.71999509


--------------------------------------------------------------------------------------------------------




--------------------------------------- Iteration      1(   3)  ---------------------------------------


     EDDAV:  cpu time    1.7918: real time    1.7960
       DOS:  cpu time    0.0002: real time    0.0002
    --------------------------------------------
      LOOP:  cpu time    1.7920: real time    1.7963

 eigenvalue-minimisations  :    64
 total energy-change (2. order) :-0.4587030E+01  (-0.4597885E+01)
 number of electron       8.0000000 magnetization 
 augmentation part        8.0000000 magnetization 

 Free energy of the ion-electron system (eV)
  ---------------------------------------------------
  alpha Z        PSCENC =         0.24203350
  Ewald energy   TEWEN  =       128.32754928
  -Hartree energ DENC   =      -243.79547103
  -exchange      EXHF   =         0.00000000
  -V(xc)+E(xc)   XCENC  =        21.99882173
  PAW double counting   =       117.05815612     -117.66307307
  entropy T*S    EENTRO =         0.03349997
  eigenvalues    EBANDS =      -130.54932971
  atomic energy  EATOM  =       197.04175453
  Solvation  Ediel_sol  =         0.00000000
  ---------------------------------------------------
  free energy    TOTEN  =       -27.30605867 eV

  energy without entropy =      -27.33955864  energy(sigma->0) =      -27.31722532


--------------------------------------------------------------------------------------------------------




--------------------------------------- Iteration      1(   4)  ---------------------------------------


     EDDAV:  cpu time    3.2325: real time    3.2401
       DOS:  cpu time    0.0002: real time    0.0002
    --------------------------------------------
      LOOP:  cpu time    3.2327: real time    3.2403

 eigenvalue-minimisations  :   128
 total energy-change (2. order) :-0.1841073E+00  (-0.1810238E+00)
 number of electron       8.0000000 magnetization 
 augmentation part        8.0000000 magnetization 

 Free energy of the ion-electron system (eV)
  ---------------------------------------------------
  alpha Z        PSCENC =         0.24203350
  Ewald energy   TEWEN  =       128.32754928
  -Hartree energ DENC   =      -243.79547103
  -exchange      EXHF   =         0.00000000
  -V(xc)+E(xc)   XCENC  =        21.99882173
  PAW double counting   =       117.05815612     -117.66307307
  entropy T*S    EENTRO =         0.03536327
  eigenvalues    EBANDS =      -130.73530031
  atomic energy  EATOM  =       197.04175453
  Solvation  Ediel_sol  =         0.00000000
  ---------------------------------------------------
  free energy    TOTEN  =       -27.49016597 eV

  energy without entropy =      -27.52552924  energy(sigma->0) =      -27.50195373


--------------------------------------------------------------------------------------------------------




--------------------------------------- Iteration      1(   5)  ---------------------------------------


     EDDAV:  cpu time    2.3022: real time    2.3076
       DOS:  cpu time    0.0002: real time    0.0002
    CHARGE:  cpu time    0.1904: real time    0.1908
    MIXING:  cpu time    0.0394: real time    0.0395
    --------------------------------------------
      LOOP:  cpu time    2.5322: real time    2.5381

 eigenvalue-minimisations  :    88
 total energy-change (2. order) :-0.6857901E-04  (-0.6857835E-04)
 number of electron       8.0000000 magnetization 
 augmentation part        0.2244791 magnetization 

 Broyden mixing:
  rms(total) = 0.87745E+00    rms(broyden)= 0.87725E+00
  rms(prec ) = 0.12382E+01
  weight for this iteration     100.00

 Free energy of the ion-electron system (eV)
  ---------------------------------------------------
  alpha Z        PSCENC =         0.24203350
  Ewald energy   TEWEN  =       128.32754928
  -Hartree energ DENC   =      -243.79547103
  -exchange      EXHF   =         0.00000000
  -V(xc)+E(xc)   XCENC  =        21.99882173
  PAW double counting   =       117.05815612     -117.66307307
  entropy T*S    EENTRO =         0.03536447
  eigenvalues    EBANDS =      -130.73537009
  atomic energy  EATOM  =       197.04175453
  Solvation  Ediel_sol  =         0.00000000
  ---------------------------------------------------
  free energy    TOTEN  =       -27.49023455 eV

  energy without entropy =      -27.52559902  energy(sigma->0) =      -27.50202271


--------------------------------------------------------------------------------------------------------




--------------------------------------- Iteration      1(   6)  ---------------------------------------


    POTLOK:  cpu time    1.6964: real time    1.7004
    SETDIJ:  cpu time    0.0066: real time    0.0067
    EDDIAG:  cpu time    0.3727: real time    0.3735
  RMM-DIIS:  cpu time    1.3019: real time    1.3049
    ORTHCH:  cpu time    0.0114: real time    0.0115
       DOS:  cpu time    0.0002: real time    0.0002
    CHARGE:  cpu time    0.1623: real time    0.1627
    MIXING:  cpu time    0.0396: real time    0.0397
    --------------------------------------------
      LOOP:  cpu time    3.5912: real time    3.5997

 eigenvalue-minimisations  :    64
 total energy-change (2. order) : 0.2882833E+01  (-0.5333726E+00)
 number of electron       7.9999999 magnetization 
 augmentation part        0.1976206 magnetization 

 Broyden mixing:
  rms(total) = 0.43830E+00    rms(broyden)= 0.43820E+00
  rms(prec ) = 0.56465E+00
  weight for this iteration     100.00

 eigenvalues of (default mixing * dielectric matrix)
  average eigenvalue GAMMA=   1.2851
  1.2851

 Free energy of the ion-electron system (eV)
  ---------------------------------------------------
  alpha Z        PSCENC =         0.24203350
  Ewald energy   TEWEN  =       128.32754928
  -Hartree energ DENC   =      -263.47056801
  -exchange      EXHF   =         0.00000000
  -V(xc)+E(xc)   XCENC  =        23.19301586
  PAW double counting   =       242.14388516     -242.92335326
  entropy T*S    EENTRO =         0.03824176
  eigenvalues    EBANDS =      -109.19996043
  atomic energy  EATOM  =       197.04175453
  Solvation  Ediel_sol  =         0.00000000
  ---------------------------------------------------
  free energy    TOTEN  =       -24.60740162 eV

  energy without entropy =      -24.64564337  energy(sigma->0) =      -24.62014887


--------------------------------------------------------------------------------------------------------




--------------------------------------- Iteration      1(   7)  ---------------------------------------


    POTLOK:  cpu time    1.7185: real time    1.7225
    SETDIJ:  cpu time    0.0066: real time    0.0066
    EDDIAG:  cpu time    0.3810: real time    0.3819
  RMM-DIIS:  cpu time    1.2829: real time    1.2860
    ORTHCH:  cpu time    0.0116: real time    0.0116
       DOS:  cpu time    0.0002: real time    0.0002
    CHARGE:  cpu time    0.1552: real time    0.1556
    MIXING:  cpu time    0.0398: real time    0.0399
    --------------------------------------------
      LOOP:  cpu time    3.5957: real time    3.6042

 eigenvalue-minimisations  :    64
 total energy-change (2. order) : 0.4813400E+00  (-0.1180747E+00)
 number of electron       7.9999999 magnetization 
 augmentation part        0.1874763 magnetization 

 Broyden mixing:
  rms(total) = 0.24416E+00    rms(broyden)= 0.24407E+00
  rms(prec ) = 0.29611E+00
  weight for this iteration     100.00

 eigenvalues of (default mixing * dielectric matrix)
  average eigenvalue GAMMA=   1.4571
  1.4571  1.4571

 Free energy of the ion-electron system (eV)
  ---------------------------------------------------
  alpha Z        PSCENC =         0.24203350
  Ewald energy   TEWEN  =       128.32754928
  -Hartree energ DENC   =      -274.88752711
  -exchange      EXHF   =         0.00000000
  -V(xc)+E(xc)   XCENC  =        24.03265571
  PAW double counting   =       371.80417642     -372.62209448
  entropy T*S    EENTRO =         0.04061559
  eigenvalues    EBANDS =       -98.10522501
  atomic energy  EATOM  =       197.04175453
  Solvation  Ediel_sol  =         0.00000000
  ---------------------------------------------------
  free energy    TOTEN  =       -24.12606157 eV

  energy without entropy =      -24.16667717  energy(sigma->0) =      -24.13960010


--------------------------------------------------------------------------------------------------------




--------------------------------------- Iteration      1(   8)  ---------------------------------------


    POTLOK:  cpu time    1.7350: real time    1.7391
    SETDIJ:  cpu time    0.0065: real time    0.0065
    EDDIAG:  cpu time    0.3783: real time    0.3792
  RMM-DIIS:  cpu time    1.2940: real time    1.2970
    ORTHCH:  cpu time    0.0116: real time    0.0116
       DOS:  cpu time    0.0002: real time    0.0002
    CHARGE:  cpu time    0.1526: real time    0.1529
    MIXING:  cpu time    0.0420: real time    0.0421
    --------------------------------------------
      LOOP:  cpu time    3.6202: real time    3.6287

 eigenvalue-minimisations  :    64
 total energy-change (2. order) : 0.1101909E+00  (-0.9938964E-02)
 number of electron       7.9999999 magnetization 
 augmentation part        0.1859109 magnetization 

 Broyden mixing:
  rms(total) = 0.12763E+00    rms(broyden)= 0.12752E+00
  rms(prec ) = 0.16792E+00
  weight for this iteration     100.00

 eigenvalues of (default mixing * dielectric matrix)
  average eigenvalue GAMMA=   1.4350
  2.2557  1.4531  0.5963

 Free energy of the ion-electron system (eV)
  ---------------------------------------------------
  alpha Z        PSCENC =         0.24203350
  Ewald energy   TEWEN  =       128.32754928
  -Hartree energ DENC   =      -278.56687973
  -exchange      EXHF   =         0.00000000
  -V(xc)+E(xc)   XCENC  =        24.38393780
  PAW double counting   =       444.59475912     -445.39495468
  entropy T*S    EENTRO =         0.04069601
  eigenvalues    EBANDS =       -94.68476645
  atomic energy  EATOM  =       197.04175453
  Solvation  Ediel_sol  =         0.00000000
  ---------------------------------------------------
  free energy    TOTEN  =       -24.01587062 eV

  energy without entropy =      -24.05656664  energy(sigma->0) =      -24.02943596


--------------------------------------------------------------------------------------------------------




--------------------------------------- Iteration      1(   9)  ---------------------------------------


    POTLOK:  cpu time    1.7275: real time    1.7316
    SETDIJ:  cpu time    0.0067: real time    0.0067
    EDDIAG:  cpu time    0.3994: real time    0.4004
  RMM-DIIS:  cpu time    1.2642: real time    1.2672
    ORTHCH:  cpu time    0.0113: real time    0.0114
       DOS:  cpu time    0.0002: real time    0.0002
    CHARGE:  cpu time    0.1675: real time    0.1679
    MIXING:  cpu time    0.0420: real time    0.0420
    --------------------------------------------
      LOOP:  cpu time    3.6189: real time    3.6274

 eigenvalue-minimisations  :    64
 total energy-change (2. order) : 0.4833030E-01  (-0.5722308E-02)
 number of electron       7.9999999 magnetization 
 augmentation part        0.1854598 magnetization 

 Broyden mixing:
  rms(total) = 0.42590E-01    rms(broyden)= 0.42572E-01
  rms(prec ) = 0.66603E-01
  weight for this iteration     100.00

 eigenvalues of (default mixing * dielectric matrix)
  average eigenvalue GAMMA=   1.2734
  2.1808  0.7620  0.7620  1.3888

 Free energy of the ion-electron system (eV)
  ---------------------------------------------------
  alpha Z        PSCENC =         0.24203350
  Ewald energy   TEWEN  =       128.32754928
  -Hartree energ DENC   =      -281.04736974
  -exchange      EXHF   =         0.00000000
  -V(xc)+E(xc)   XCENC  =        24.61653326
  PAW double counting   =       491.87273789     -492.65949251
  entropy T*S    EENTRO =         0.03702799
  eigenvalues    EBANDS =       -92.39831454
  atomic energy  EATOM  =       197.04175453
  Solvation  Ediel_sol  =         0.00000000
  ---------------------------------------------------
  free energy    TOTEN  =       -23.96754032 eV

  energy without entropy =      -24.00456831  energy(sigma->0) =      -23.97988298


--------------------------------------------------------------------------------------------------------




--------------------------------------- Iteration      1(  10)  ---------------------------------------


    POTLOK:  cpu time    1.7231: real time    1.7273
    SETDIJ:  cpu time    0.0066: real time    0.0066
    EDDIAG:  cpu time    0.3963: real time    0.3972
  RMM-DIIS:  cpu time    1.3156: real time    1.3187
    ORTHCH:  cpu time    0.0118: real time    0.0118
       DOS:  cpu time    0.0002: real time    0.0002
    CHARGE:  cpu time    0.1613: real time    0.1617
    MIXING:  cpu time    0.0409: real time    0.0409
    --------------------------------------------
      LOOP:  cpu time    3.6558: real time    3.6645

 eigenvalue-minimisations  :    64
 total energy-change (2. order) : 0.2737477E-02  (-0.8255360E-03)
 number of electron       7.9999999 magnetization 
 augmentation part        0.1851155 magnetization 

 Broyden mixing:
  rms(total) = 0.25894E-01    rms(broyden)= 0.25776E-01
  rms(prec ) = 0.44975E-01
  weight for this iteration     100.00

 eigenvalues of (default mixing * dielectric matrix)
  average eigenvalue GAMMA=   1.2380
  2.0073  1.5704  1.2022  0.7049  0.7049

 Free energy of the ion-electron system (eV)
  ---------------------------------------------------
  alpha Z        PSCENC =         0.24203350
  Ewald energy   TEWEN  =       128.32754928
  -Hartree energ DENC   =      -281.89483361
  -exchange      EXHF   =         0.00000000
  -V(xc)+E(xc)   XCENC  =        24.65045981
  PAW double counting   =       488.53433309     -489.32482857
  entropy T*S    EENTRO =         0.03666288
  eigenvalues    EBANDS =       -91.57793375
  atomic energy  EATOM  =       197.04175453
  Solvation  Ediel_sol  =         0.00000000
  ---------------------------------------------------
  free energy    TOTEN  =       -23.96480284 eV

  energy without entropy =      -24.00146572  energy(sigma->0) =      -23.97702380


--------------------------------------------------------------------------------------------------------




--------------------------------------- Iteration      1(  11)  ---------------------------------------


    POTLOK:  cpu time    1.7079: real time    1.7120
    SETDIJ:  cpu time    0.0066: real time    0.0066
    EDDIAG:  cpu time    0.3854: real time    0.3863
  RMM-DIIS:  cpu time    1.3601: real time    1.3633
    ORTHCH:  cpu time    0.0124: real time    0.0124
       DOS:  cpu time    0.0002: real time    0.0002
    CHARGE:  cpu time    0.1631: real time    0.1635
    MIXING:  cpu time    0.0434: real time    0.0435
    --------------------------------------------
      LOOP:  cpu time    3.6791: real time    3.6878

 eigenvalue-minimisations  :    64
 total energy-change (2. order) : 0.7942790E-03  (-0.3385205E-03)
 number of electron       7.9999999 magnetization 
 augmentation part        0.1846766 magnetization 

 Broyden mixing:
  rms(total) = 0.12405E-01    rms(broyden)= 0.12401E-01
  rms(prec ) = 0.26921E-01
  weight for this iteration     100.00

 eigenvalues of (default mixing * dielectric matrix)
  average eigenvalue GAMMA=   1.4469
  2.5869  2.5869  1.1137  1.1137  0.6399  0.6399

 Free energy of the ion-electron system (eV)
  ---------------------------------------------------
  alpha Z        PSCENC =         0.24203350
  Ewald energy   TEWEN  =       128.32754928
  -Hartree energ DENC   =      -282.71717291
  -exchange      EXHF   =         0.00000000
  -V(xc)+E(xc)   XCENC  =        24.68161540
  PAW double counting   =       484.80920199     -485.60016682
  entropy T*S    EENTRO =         0.03638442
  eigenvalues    EBANDS =       -90.78520796
  atomic energy  EATOM  =       197.04175453
  Solvation  Ediel_sol  =         0.00000000
  ---------------------------------------------------
  free energy    TOTEN  =       -23.96400856 eV

  energy without entropy =      -24.00039298  energy(sigma->0) =      -23.97613670


--------------------------------------------------------------------------------------------------------




--------------------------------------- Iteration      1(  12)  ---------------------------------------


    POTLOK:  cpu time    1.6226: real time    1.6264
    SETDIJ:  cpu time    0.0067: real time    0.0067
    EDDIAG:  cpu time    0.3895: real time    0.3904
  RMM-DIIS:  cpu time    1.3843: real time    1.3876
    ORTHCH:  cpu time    0.0116: real time    0.0116
       DOS:  cpu time    0.0002: real time    0.0002
    CHARGE:  cpu time    0.1702: real time    0.1706
    MIXING:  cpu time    0.0466: real time    0.0467
    --------------------------------------------
      LOOP:  cpu time    3.6316: real time    3.6402

 eigenvalue-minimisations  :    64
 total energy-change (2. order) : 0.4262705E-02  (-0.2374666E-03)
 number of electron       7.9999999 magnetization 
 augmentation part        0.1846097 magnetization 

 Broyden mixing:
  rms(total) = 0.11914E-01    rms(broyden)= 0.11893E-01
  rms(prec ) = 0.19093E-01
  weight for this iteration     100.00

 eigenvalues of (default mixing * dielectric matrix)
  average eigenvalue GAMMA=   1.4851
  3.0790  2.3150  1.4064  1.4064  0.8337  0.6777  0.6777

 Free energy of the ion-electron system (eV)
  ---------------------------------------------------
  alpha Z        PSCENC =         0.24203350
  Ewald energy   TEWEN  =       128.32754928
  -Hartree energ DENC   =      -283.62360352
  -exchange      EXHF   =         0.00000000
  -V(xc)+E(xc)   XCENC  =        24.71807110
  PAW double counting   =       481.14339471     -481.93118651
  entropy T*S    EENTRO =         0.03637463
  eigenvalues    EBANDS =       -89.91413358
  atomic energy  EATOM  =       197.04175453
  Solvation  Ediel_sol  =         0.00000000
  ---------------------------------------------------
  free energy    TOTEN  =       -23.95974586 eV

  energy without entropy =      -23.99612049  energy(sigma->0) =      -23.97187074


--------------------------------------------------------------------------------------------------------




--------------------------------------- Iteration      1(  13)  ---------------------------------------


    POTLOK:  cpu time    1.5806: real time    1.5843
    SETDIJ:  cpu time    0.0065: real time    0.0065
    EDDIAG:  cpu time    0.3730: real time    0.3739
  RMM-DIIS:  cpu time    1.3859: real time    1.3892
    ORTHCH:  cpu time    0.0119: real time    0.0120
       DOS:  cpu time    0.0002: real time    0.0002
    CHARGE:  cpu time    0.1643: real time    0.1647
    MIXING:  cpu time    0.0450: real time    0.0451
    --------------------------------------------
      LOOP:  cpu time    3.5674: real time    3.5759

 eigenvalue-minimisations  :    64
 total energy-change (2. order) :-0.3715172E-02  (-0.1254293E-03)
 number of electron       7.9999999 magnetization 
 augmentation part        0.1846218 magnetization 

 Broyden mixing:
  rms(total) = 0.19575E-01    rms(broyden)= 0.19540E-01
  rms(prec ) = 0.26845E-01
  weight for this iteration     100.00

 eigenvalues of (default mixing * dielectric matrix)
  average eigenvalue GAMMA=   1.4695
  3.4700  2.2249  1.8673  1.1572  1.1572  0.6505  0.6505  0.5786

 Free energy of the ion-electron system (eV)
  ---------------------------------------------------
  alpha Z        PSCENC =         0.24203350
  Ewald energy   TEWEN  =       128.32754928
  -Hartree energ DENC   =      -284.02000241
  -exchange      EXHF   =         0.00000000
  -V(xc)+E(xc)   XCENC  =        24.73551134
  PAW double counting   =       482.95991904     -483.74657233
  entropy T*S    EENTRO =         0.03676077
  eigenvalues    EBANDS =       -89.54041475
  atomic energy  EATOM  =       197.04175453
  Solvation  Ediel_sol  =         0.00000000
  ---------------------------------------------------
  free energy    TOTEN  =       -23.96346103 eV

  energy without entropy =      -24.00022180  energy(sigma->0) =      -23.97571462


--------------------------------------------------------------------------------------------------------




--------------------------------------- Iteration      1(  14)  ---------------------------------------


    POTLOK:  cpu time    1.5656: real time    1.5693
    SETDIJ:  cpu time    0.0065: real time    0.0066
    EDDIAG:  cpu time    0.3677: real time    0.3686
  RMM-DIIS:  cpu time    1.3686: real time    1.3718
    ORTHCH:  cpu time    0.0122: real time    0.0122
       DOS:  cpu time    0.0002: real time    0.0002
    CHARGE:  cpu time    0.1741: real time    0.1746
    MIXING:  cpu time    0.0451: real time    0.0452
    --------------------------------------------
      LOOP:  cpu time    3.5401: real time    3.5485

 eigenvalue-minimisations  :    64
 total energy-change (2. order) :-0.2335685E-02  (-0.3974286E-04)
 number of electron       7.9999999 magnetization 
 augmentation part        0.1845268 magnetization 

 Broyden mixing:
  rms(total) = 0.59039E-02    rms(broyden)= 0.58854E-02
  rms(prec ) = 0.92354E-02
  weight for this iteration     100.00

 eigenvalues of (default mixing * dielectric matrix)
  average eigenvalue GAMMA=   1.6666
  4.6633  2.8310  2.0299  1.3046  1.3046  0.9900  0.6642  0.6642  0.5476

 Free energy of the ion-electron system (eV)
  ---------------------------------------------------
  alpha Z        PSCENC =         0.24203350
  Ewald energy   TEWEN  =       128.32754928
  -Hartree energ DENC   =      -284.18902552
  -exchange      EXHF   =         0.00000000
  -V(xc)+E(xc)   XCENC  =        24.73706605
  PAW double counting   =       481.97104589     -482.75837070
  entropy T*S    EENTRO =         0.03631548
  eigenvalues    EBANDS =       -89.37416522
  atomic energy  EATOM  =       197.04175453
  Solvation  Ediel_sol  =         0.00000000
  ---------------------------------------------------
  free energy    TOTEN  =       -23.96579672 eV

  energy without entropy =      -24.00211219  energy(sigma->0) =      -23.97790188


--------------------------------------------------------------------------------------------------------




--------------------------------------- Iteration      1(  15)  ---------------------------------------


    POTLOK:  cpu time    1.5250: real time    1.5285
    SETDIJ:  cpu time    0.0066: real time    0.0066
    EDDIAG:  cpu time    0.3876: real time    0.3885
  RMM-DIIS:  cpu time    1.3437: real time    1.3469
    ORTHCH:  cpu time    0.0119: real time    0.0120
       DOS:  cpu time    0.0002: real time    0.0002
    CHARGE:  cpu time    0.1676: real time    0.1680
    MIXING:  cpu time    0.0473: real time    0.0474
    --------------------------------------------
      LOOP:  cpu time    3.4898: real time    3.4981

 eigenvalue-minimisations  :    64
 total energy-change (2. order) :-0.3703172E-02  (-0.7655696E-04)
 number of electron       7.9999999 magnetization 
 augmentation part        0.1844969 magnetization 

 Broyden mixing:
  rms(total) = 0.11638E-01    rms(broyden)= 0.11612E-01
  rms(prec ) = 0.15675E-01
  weight for this iteration     100.00

 eigenvalues of (default mixing * dielectric matrix)
  average eigenvalue GAMMA=   1.7664
  5.2138  2.8391  2.3050  1.9083  1.2526  1.1718  1.0565  0.6751  0.6751  0.5664

 Free energy of the ion-electron system (eV)
  ---------------------------------------------------
  alpha Z        PSCENC =         0.24203350
  Ewald energy   TEWEN  =       128.32754928
  -Hartree energ DENC   =      -284.14303103
  -exchange      EXHF   =         0.00000000
  -V(xc)+E(xc)   XCENC  =        24.72426951
  PAW double counting   =       480.05653563     -480.84431450
  entropy T*S    EENTRO =         0.03632804
  eigenvalues    EBANDS =       -89.41062485
  atomic energy  EATOM  =       197.04175453
  Solvation  Ediel_sol  =         0.00000000
  ---------------------------------------------------
  free energy    TOTEN  =       -23.96949989 eV

  energy without entropy =      -24.00582793  energy(sigma->0) =      -23.98160923


--------------------------------------------------------------------------------------------------------




--------------------------------------- Iteration      1(  16)  ---------------------------------------


    POTLOK:  cpu time    1.5118: real time    1.5153
    SETDIJ:  cpu time    0.0065: real time    0.0065
    EDDIAG:  cpu time    0.3869: real time    0.3878
  RMM-DIIS:  cpu time    1.3468: real time    1.3500
    ORTHCH:  cpu time    0.0127: real time    0.0128
       DOS:  cpu time    0.0002: real time    0.0002
    CHARGE:  cpu time    0.1673: real time    0.1677
    MIXING:  cpu time    0.0474: real time    0.0475
    --------------------------------------------
      LOOP:  cpu time    3.4796: real time    3.4879

 eigenvalue-minimisations  :    64
 total energy-change (2. order) :-0.1681988E-02  (-0.5687705E-04)
 number of electron       7.9999999 magnetization 
 augmentation part        0.1844697 magnetization 

 Broyden mixing:
  rms(total) = 0.13523E-01    rms(broyden)= 0.13489E-01
  rms(prec ) = 0.17990E-01
  weight for this iteration     100.00

 eigenvalues of (default mixing * dielectric matrix)
  average eigenvalue GAMMA=   1.8119
  5.7142  3.5588  2.5390  1.7948  1.3286  1.3286  1.0074  0.6755  0.6755  0.7287
  0.5802

 Free energy of the ion-electron system (eV)
  ---------------------------------------------------
  alpha Z        PSCENC =         0.24203350
  Ewald energy   TEWEN  =       128.32754928
  -Hartree energ DENC   =      -284.21602292
  -exchange      EXHF   =         0.00000000
  -V(xc)+E(xc)   XCENC  =        24.72641885
  PAW double counting   =       481.00691682     -481.79467221
  entropy T*S    EENTRO =         0.03655014
  eigenvalues    EBANDS =       -89.34170987
  atomic energy  EATOM  =       197.04175453
  Solvation  Ediel_sol  =         0.00000000
  ---------------------------------------------------
  free energy    TOTEN  =       -23.97118188 eV

  energy without entropy =      -24.00773202  energy(sigma->0) =      -23.98336526


--------------------------------------------------------------------------------------------------------




--------------------------------------- Iteration      1(  17)  ---------------------------------------


    POTLOK:  cpu time    1.5085: real time    1.5121
    SETDIJ:  cpu time    0.0066: real time    0.0067
    EDDIAG:  cpu time    0.3930: real time    0.3939
  RMM-DIIS:  cpu time    1.3520: real time    1.3552
    ORTHCH:  cpu time    0.0116: real time    0.0117
       DOS:  cpu time    0.0002: real time    0.0002
    CHARGE:  cpu time    0.1641: real time    0.1645
    MIXING:  cpu time    0.0482: real time    0.0483
    --------------------------------------------
      LOOP:  cpu time    3.4843: real time    3.4925

 eigenvalue-minimisations  :    64
 total energy-change (2. order) :-0.4451671E-03  (-0.2558801E-04)
 number of electron       7.9999999 magnetization 
 augmentation part        0.1844972 magnetization 

 Broyden mixing:
  rms(total) = 0.17868E-02    rms(broyden)= 0.17378E-02
  rms(prec ) = 0.22562E-02
  weight for this iteration     100.00

 eigenvalues of (default mixing * dielectric matrix)
  average eigenvalue GAMMA=   1.8630
  6.4892  3.9787  2.4487  2.2301  1.2419  1.2419  1.0148  1.0148  0.6843  0.6843
  0.5733  0.7540

 Free energy of the ion-electron system (eV)
  ---------------------------------------------------
  alpha Z        PSCENC =         0.24203350
  Ewald energy   TEWEN  =       128.32754928
  -Hartree energ DENC   =      -284.16361724
  -exchange      EXHF   =         0.00000000
  -V(xc)+E(xc)   XCENC  =        24.72370111
  PAW double counting   =       481.68619782     -482.47329730
  entropy T*S    EENTRO =         0.03630711
  eigenvalues    EBANDS =       -89.39225585
  atomic energy  EATOM  =       197.04175453
  Solvation  Ediel_sol  =         0.00000000
  ---------------------------------------------------
  free energy    TOTEN  =       -23.97162704 eV

  energy without entropy =      -24.00793415  energy(sigma->0) =      -23.98372941


--------------------------------------------------------------------------------------------------------




--------------------------------------- Iteration      1(  18)  ---------------------------------------


    POTLOK:  cpu time    1.4884: real time    1.4920
    SETDIJ:  cpu time    0.0066: real time    0.0066
    EDDIAG:  cpu time    0.3897: real time    0.3906
  RMM-DIIS:  cpu time    1.4057: real time    1.4090
    ORTHCH:  cpu time    0.0123: real time    0.0123
       DOS:  cpu time    0.0002: real time    0.0002
    CHARGE:  cpu time    0.1714: real time    0.1718
    MIXING:  cpu time    0.0505: real time    0.0507
    --------------------------------------------
      LOOP:  cpu time    3.5248: real time    3.5332

 eigenvalue-minimisations  :    64
 total energy-change (2. order) :-0.2957657E-03  (-0.2803287E-05)
 number of electron       7.9999999 magnetization 
 augmentation part        0.1844918 magnetization 

 Broyden mixing:
  rms(total) = 0.62082E-03    rms(broyden)= 0.61726E-03
  rms(prec ) = 0.97475E-03
  weight for this iteration     100.00

 eigenvalues of (default mixing * dielectric matrix)
  average eigenvalue GAMMA=   1.9969
  7.3612  4.3212  2.8816  2.4739  1.9158  1.2149  1.2149  0.9910  0.9610  0.6811
  0.6811  0.5754  0.6872

 Free energy of the ion-electron system (eV)
  ---------------------------------------------------
  alpha Z        PSCENC =         0.24203350
  Ewald energy   TEWEN  =       128.32754928
  -Hartree energ DENC   =      -284.15498741
  -exchange      EXHF   =         0.00000000
  -V(xc)+E(xc)   XCENC  =        24.72153484
  PAW double counting   =       481.12544458     -481.91280710
  entropy T*S    EENTRO =         0.03631876
  eigenvalues    EBANDS =       -89.39876378
  atomic energy  EATOM  =       197.04175453
  Solvation  Ediel_sol  =         0.00000000
  ---------------------------------------------------
  free energy    TOTEN  =       -23.97192281 eV

  energy without entropy =      -24.00824156  energy(sigma->0) =      -23.98402906


--------------------------------------------------------------------------------------------------------




--------------------------------------- Iteration      1(  19)  ---------------------------------------


    POTLOK:  cpu time    1.4793: real time    1.4829
    SETDIJ:  cpu time    0.0066: real time    0.0066
    EDDIAG:  cpu time    0.3853: real time    0.3862
  RMM-DIIS:  cpu time    1.3889: real time    1.3922
    ORTHCH:  cpu time    0.0125: real time    0.0125
       DOS:  cpu time    0.0002: real time    0.0002
    CHARGE:  cpu time    0.1860: real time    0.1865
    MIXING:  cpu time    0.0533: real time    0.0534
    --------------------------------------------
      LOOP:  cpu time    3.5122: real time    3.5206

 eigenvalue-minimisations  :    64
 total energy-change (2. order) :-0.1525587E-03  (-0.2298272E-05)
 number of electron       7.9999999 magnetization 
 augmentation part        0.1844621 magnetization 

 Broyden mixing:
  rms(total) = 0.10078E-02    rms(broyden)= 0.10057E-02
  rms(prec ) = 0.13297E-02
  weight for this iteration     100.00

 eigenvalues of (default mixing * dielectric matrix)
  average eigenvalue GAMMA=   2.0322
  7.7432  4.8718  2.6004  2.6004  1.8639  1.8639  1.1553  1.1553  0.9874  0.9874
  0.6807  0.6807  0.5759  0.6852

 Free energy of the ion-electron system (eV)
  ---------------------------------------------------
  alpha Z        PSCENC =         0.24203350
  Ewald energy   TEWEN  =       128.32754928
  -Hartree energ DENC   =      -284.18191015
  -exchange      EXHF   =         0.00000000
  -V(xc)+E(xc)   XCENC  =        24.72263791
  PAW double counting   =       481.03741031     -481.82497284
  entropy T*S    EENTRO =         0.03630022
  eigenvalues    EBANDS =       -89.37287813
  atomic energy  EATOM  =       197.04175453
  Solvation  Ediel_sol  =         0.00000000
  ---------------------------------------------------
  free energy    TOTEN  =       -23.97207537 eV

  energy without entropy =      -24.00837559  energy(sigma->0) =      -23.98417544


--------------------------------------------------------------------------------------------------------




--------------------------------------- Iteration      1(  20)  ---------------------------------------


    POTLOK:  cpu time    1.4935: real time    1.4971
    SETDIJ:  cpu time    0.0065: real time    0.0065
    EDDIAG:  cpu time    0.3648: real time    0.3656
  RMM-DIIS:  cpu time    1.2880: real time    1.2911
    ORTHCH:  cpu time    0.0118: real time    0.0118
       DOS:  cpu time    0.0002: real time    0.0002
    CHARGE:  cpu time    0.1703: real time    0.1707
    MIXING:  cpu time    0.0548: real time    0.0550
    --------------------------------------------
      LOOP:  cpu time    3.3899: real time    3.3979

 eigenvalue-minimisations  :    60
 total energy-change (2. order) :-0.2239935E-04  (-0.4228183E-06)
 number of electron       7.9999999 magnetization 
 augmentation part        0.1844735 magnetization 

 Broyden mixing:
  rms(total) = 0.24382E-03    rms(broyden)= 0.24250E-03
  rms(prec ) = 0.31633E-03
  weight for this iteration     100.00

 eigenvalues of (default mixing * dielectric matrix)
  average eigenvalue GAMMA=   2.0723
  8.0385  5.0920  3.1869  2.5063  2.5063  1.5823  1.2306  1.2306  1.2299  0.9750
  0.6807  0.6807  0.8896  0.5760  0.6794

 Free energy of the ion-electron system (eV)
  ---------------------------------------------------
  alpha Z        PSCENC =         0.24203350
  Ewald energy   TEWEN  =       128.32754928
  -Hartree energ DENC   =      -284.16511541
  -exchange      EXHF   =         0.00000000
  -V(xc)+E(xc)   XCENC  =        24.72188996
  PAW double counting   =       481.05596050     -481.84337851
  entropy T*S    EENTRO =         0.03630707
  eigenvalues    EBANDS =       -89.38909869
  atomic energy  EATOM  =       197.04175453
  Solvation  Ediel_sol  =         0.00000000
  ---------------------------------------------------
  free energy    TOTEN  =       -23.97209777 eV

  energy without entropy =      -24.00840484  energy(sigma->0) =      -23.98420012


--------------------------------------------------------------------------------------------------------




--------------------------------------- Iteration      1(  21)  ---------------------------------------


    POTLOK:  cpu time    1.5708: real time    1.5745
    SETDIJ:  cpu time    0.0066: real time    0.0066
    EDDIAG:  cpu time    0.3603: real time    0.3611
  RMM-DIIS:  cpu time    1.2777: real time    1.2808
    ORTHCH:  cpu time    0.0123: real time    0.0123
       DOS:  cpu time    0.0002: real time    0.0002
    CHARGE:  cpu time    0.1767: real time    0.1772
    MIXING:  cpu time    0.0573: real time    0.0574
    --------------------------------------------
      LOOP:  cpu time    3.4618: real time    3.4700

 eigenvalue-minimisations  :    60
 total energy-change (2. order) :-0.2118726E-04  (-0.4074385E-06)
 number of electron       7.9999999 magnetization 
 augmentation part        0.1844820 magnetization 

 Broyden mixing:
  rms(total) = 0.39189E-03    rms(broyden)= 0.39178E-03
  rms(prec ) = 0.49793E-03
  weight for this iteration     100.00

 eigenvalues of (default mixing * dielectric matrix)
  average eigenvalue GAMMA=   2.0912
  8.4413  5.3050  3.7756  2.5304  2.2933  1.6427  1.6427  1.1725  1.1725  0.9835
  0.9835  0.9063  0.6807  0.6807  0.5761  0.6728

 Free energy of the ion-electron system (eV)
  ---------------------------------------------------
  alpha Z        PSCENC =         0.24203350
  Ewald energy   TEWEN  =       128.32754928
  -Hartree energ DENC   =      -284.16782367
  -exchange      EXHF   =         0.00000000
  -V(xc)+E(xc)   XCENC  =        24.72231229
  PAW double counting   =       481.16970167     -481.95704108
  entropy T*S    EENTRO =         0.03630409
  eigenvalues    EBANDS =       -89.38690956
  atomic energy  EATOM  =       197.04175453
  Solvation  Ediel_sol  =         0.00000000
  ---------------------------------------------------
  free energy    TOTEN  =       -23.97211895 eV

  energy without entropy =      -24.00842304  energy(sigma->0) =      -23.98422032


--------------------------------------------------------------------------------------------------------




--------------------------------------- Iteration      1(  22)  ---------------------------------------


    POTLOK:  cpu time    1.6069: real time    1.6107
    SETDIJ:  cpu time    0.0066: real time    0.0066
    EDDIAG:  cpu time    0.3708: real time    0.3717
  RMM-DIIS:  cpu time    1.0062: real time    1.0086
    ORTHCH:  cpu time    0.0117: real time    0.0117
       DOS:  cpu time    0.0002: real time    0.0002
    CHARGE:  cpu time    0.1721: real time    0.1725
    MIXING:  cpu time    0.0618: real time    0.0620
    --------------------------------------------
      LOOP:  cpu time    3.2363: real time    3.2439

 eigenvalue-minimisations  :    48
 total energy-change (2. order) :-0.2634142E-05  (-0.1251879E-06)
 number of electron       7.9999999 magnetization 
 augmentation part        0.1844768 magnetization 

 Broyden mixing:
  rms(total) = 0.89612E-04    rms(broyden)= 0.88768E-04
  rms(prec ) = 0.12189E-03
  weight for this iteration     100.00

 eigenvalues of (default mixing * dielectric matrix)
  average eigenvalue GAMMA=   2.1103
  8.5316  5.3080  4.0276  2.6779  2.4929  1.9361  1.4971  1.4971  1.2133  1.2133
  0.9948  0.9374  0.9374  0.6807  0.6807  0.5761  0.6726

 Free energy of the ion-electron system (eV)
  ---------------------------------------------------
  alpha Z        PSCENC =         0.24203350
  Ewald energy   TEWEN  =       128.32754928
  -Hartree energ DENC   =      -284.17397629
  -exchange      EXHF   =         0.00000000
  -V(xc)+E(xc)   XCENC  =        24.72244714
  PAW double counting   =       481.10710894     -481.89454206
  entropy T*S    EENTRO =         0.03630707
  eigenvalues    EBANDS =       -89.38080369
  atomic energy  EATOM  =       197.04175453
  Solvation  Ediel_sol  =         0.00000000
  ---------------------------------------------------
  free energy    TOTEN  =       -23.97212159 eV

  energy without entropy =      -24.00842866  energy(sigma->0) =      -23.98422394


--------------------------------------------------------------------------------------------------------




--------------------------------------- Iteration      1(  23)  ---------------------------------------


    POTLOK:  cpu time    1.6241: real time    1.6279
    SETDIJ:  cpu time    0.0064: real time    0.0064
    EDDIAG:  cpu time    0.3690: real time    0.3699
  RMM-DIIS:  cpu time    0.9980: real time    1.0003
    ORTHCH:  cpu time    0.0114: real time    0.0114
       DOS:  cpu time    0.0002: real time    0.0002
    CHARGE:  cpu time    0.1617: real time    0.1621
    MIXING:  cpu time    0.0576: real time    0.0577
    --------------------------------------------
      LOOP:  cpu time    3.2283: real time    3.2360

 eigenvalue-minimisations  :    48
 total energy-change (2. order) :-0.1638955E-05  (-0.2090724E-07)
 number of electron       7.9999999 magnetization 
 augmentation part        0.1844763 magnetization 

 Broyden mixing:
  rms(total) = 0.32055E-04    rms(broyden)= 0.32032E-04
  rms(prec ) = 0.46417E-04
  weight for this iteration     100.00

 eigenvalues of (default mixing * dielectric matrix)
  average eigenvalue GAMMA=   2.1174
  8.5373  5.5005  4.1208  3.2401  2.4676  2.2780  1.6448  1.6448  1.1779  1.1779
  0.6808  0.6808  0.5761  0.9756  0.9756  0.6719  0.8816  0.8816

 Free energy of the ion-electron system (eV)
  ---------------------------------------------------
  alpha Z        PSCENC =         0.24203350
  Ewald energy   TEWEN  =       128.32754928
  -Hartree energ DENC   =      -284.17277593
  -exchange      EXHF   =         0.00000000
  -V(xc)+E(xc)   XCENC  =        24.72235470
  PAW double counting   =       481.10103901     -481.88846863
  entropy T*S    EENTRO =         0.03630724
  eigenvalues    EBANDS =       -89.38191692
  atomic energy  EATOM  =       197.04175453
  Solvation  Ediel_sol  =         0.00000000
  ---------------------------------------------------
  free energy    TOTEN  =       -23.97212323 eV

  energy without entropy =      -24.00843046  energy(sigma->0) =      -23.98422564


--------------------------------------------------------------------------------------------------------




--------------------------------------- Iteration      1(  24)  ---------------------------------------


    POTLOK:  cpu time    1.6357: real time    1.6396
    SETDIJ:  cpu time    0.0065: real time    0.0065
    EDDIAG:  cpu time    0.3679: real time    0.3687
  RMM-DIIS:  cpu time    0.9877: real time    0.9900
    ORTHCH:  cpu time    0.0118: real time    0.0119
       DOS:  cpu time    0.0002: real time    0.0002
    --------------------------------------------
      LOOP:  cpu time    3.0099: real time    3.0170

 eigenvalue-minimisations  :    44
 total energy-change (2. order) :-0.5518866E-06  (-0.6467619E-08)
 number of electron       7.9999999 magnetization 
 augmentation part        0.1844763 magnetization 

 Free energy of the ion-electron system (eV)
  ---------------------------------------------------
  alpha Z        PSCENC =         0.24203350
  Ewald energy   TEWEN  =       128.32754928
  -Hartree energ DENC   =      -284.17225074
  -exchange      EXHF   =         0.00000000
  -V(xc)+E(xc)   XCENC  =        24.72231198
  PAW double counting   =       481.09827311     -481.88570263
  entropy T*S    EENTRO =         0.03630699
  eigenvalues    EBANDS =       -89.38239979
  atomic energy  EATOM  =       197.04175453
  Solvation  Ediel_sol  =         0.00000000
  ---------------------------------------------------
  free energy    TOTEN  =       -23.97212378 eV

  energy without entropy =      -24.00843076  energy(sigma->0) =      -23.98422611


--------------------------------------------------------------------------------------------------------




 average (electrostatic) potential at core
  the test charge radii are     0.5201  0.6991
  (the norm of the test charge is              1.0000)
       1 -41.5732       2 -41.4258       3 -41.5022       4 -41.4245       5 -57.9711



 E-fermi :  -9.1008     XC(G=0):  -0.6989     alpha+bet : -0.2105


 k-point     1 :       0.2500    0.2500    0.2500
  band No.  band energies     occupation 
      1     -16.8640      2.00000
      2      -9.3100      2.05851
      3      -9.2657      1.99193
      4      -9.2500      1.94968
      5      -0.3155      0.00000
      6       0.5621      0.00000
      7       0.6611      0.00000
      8       0.6971      0.00000

 k-point     2 :      -0.2500    0.2500    0.2500
  band No.  band energies     occupation 
      1     -16.8639      2.00000
      2      -9.3099      2.05844
      3      -9.2656      1.99189
      4      -9.2499      1.94945
      5      -0.3145      0.00000
      6       0.5566      0.00000
      7       0.6609      0.00000
      8       0.6911      0.00000

 k-point     3 :       0.2500   -0.2500    0.2500
  band No.  band energies     occupation 
      1     -16.8639      2.00000
      2      -9.3099      2.05844
      3      -9.2656      1.99192
      4      -9.2500      1.94959
      5      -0.3221      0.00000
      6       0.5665      0.00000
      7       0.6828      0.00000
      8       0.7146      0.00000

 k-point     4 :      -0.2500   -0.2500    0.2500
  band No.  band energies     occupation 
      1     -16.8640      2.00000
      2      -9.3100      2.05852
      3      -9.2657      1.99192
      4      -9.2500      1.94972
      5      -0.3172      0.00000
      6       0.5605      0.00000
      7       0.6630      0.00000
      8       0.7077      0.00000


--------------------------------------------------------------------------------------------------------


 soft charge-density along one line, spin component           1
         0         1         2         3         4         5         6         7         8         9
 total charge-density along one line

 pseudopotential strength for first ion, spin component:           1
 -2.341  -4.035  -0.001  -0.001   0.001
 -4.035  -6.867  -0.003  -0.004   0.002
 -0.001  -0.003  -0.336   0.002  -0.001
 -0.001  -0.004   0.002  -0.334  -0.001
  0.001   0.002  -0.001  -0.001  -0.337
 total augmentation occupancy for first ion, spin component:           1
  4.051  -0.816   0.254   0.368  -0.164
 -0.816   0.178  -0.052  -0.076   0.034
  0.254  -0.052   0.023   0.020  -0.009
  0.368  -0.076   0.020   0.037  -0.013
 -0.164   0.034  -0.009  -0.013   0.015


------------------------ aborting loop because EDIFF is reached ----------------------------------------


    CHARGE:  cpu time    0.1669: real time    0.1673
    FORLOC:  cpu time    0.1103: real time    0.1106
    FORNL :  cpu time    0.4943: real time    0.4955
    STRESS:  cpu time    1.6626: real time    1.6666
    FORCOR:  cpu time    1.6836: real time    1.6875
    FORHAR:  cpu time    0.5477: real time    0.5490
    MIXING:  cpu time    0.0589: real time    0.0590
    OFIELD:  cpu time    0.0000: real time    0.0000

  FORCE on cell =-STRESS in cart. coord.  units (eV):
  Direction    XX          YY          ZZ          XY          YZ          ZX
  --------------------------------------------------------------------------------------
  Alpha Z     0.24203     0.24203     0.24203
  Ewald      40.88364    43.50036    43.94353    -0.85724    -0.77003     0.10276
  Hartree    93.15876    94.93011    96.08292    -0.59847    -0.76120     0.28216
  E(xc)     -27.18431   -27.18864   -27.19616    -0.00541    -0.00646     0.00171
  Local    -192.85578  -197.33353  -198.66294     1.62743     1.71699    -0.38782
  n-local   -15.29289   -15.50235   -15.55249     0.15630     0.08530     0.51552
  augment     0.11535     0.11487     0.11003    -0.00261    -0.00157    -0.00002
  Kinetic   100.27046   101.85969   100.94850    -0.29872     0.16927    -0.43550
  Fock        0.00000     0.00000     0.00000     0.00000     0.00000     0.00000
  -------------------------------------------------------------------------------------
  Total      -0.66274     0.62254    -0.08457     0.02126     0.43229     0.07882
  in kB      -1.06088     0.99653    -0.13538     0.03404     0.69199     0.12617
  external pressure =       -0.07 kB  Pullay stress =        0.00 kB

  kinetic pressure (ideal gas correction) =      0.03 kB
  total pressure  =     -0.04 kB
  Total+kin.    -1.033       1.019      -0.104       0.041       0.673       0.135

 VOLUME and BASIS-vectors are now :
 -----------------------------------------------------------------------------
  energy-cutoff  :      400.00
  volume of cell :     1000.90
      direct lattice vectors                 reciprocal lattice vectors
    10.144928094  0.000000000  0.000000000     0.098571423  0.001111070 -0.001656696
    -0.112843452 10.011198217  0.000000000    -0.000000000  0.099888143  0.002588381
     0.168511283 -0.255369433  9.854956166     0.000000000 -0.000000000  0.101471786

  length of vectors
    10.144928094 10.011834167  9.859704388     0.098591605  0.099921674  0.101471786


 FORCES acting on ions
    electron-ion (+dipol)            ewald-force                    non-local-force                 convergence-correction
 -----------------------------------------------------------------------------------------------
   -.173E+02 0.287E+02 0.417E+02   0.194E+02 -.322E+02 -.465E+02   -.178E+01 0.266E+01 0.463E+01   -.305E-04 0.350E-04 0.844E-04
   0.514E+02 -.601E+01 0.314E+01   -.559E+02 0.666E+01 -.332E+01   0.521E+01 -.540E+00 0.269E+00   0.732E-04 -.308E-04 0.310E-04
   -.236E+02 -.476E+02 0.107E+01   0.260E+02 0.529E+02 -.117E+01   -.191E+01 -.438E+01 0.331E+00   -.304E-04 -.854E-04 0.224E-04
   -.128E+02 0.251E+02 -.442E+02   0.139E+02 -.276E+02 0.485E+02   -.115E+01 0.255E+01 -.418E+01   -.370E-04 0.429E-04 -.672E-04
   0.310E+01 -.220E+00 -.210E+01   -.341E+01 0.313E+00 0.245E+01   -.393E+00 0.244E+00 -.575E+00   -.664E-04 -.251E-03 0.306E-03
 -----------------------------------------------------------------------------------------------
   0.760E+00 0.156E-01 -.456E+00   0.178E-14 0.000E+00 0.000E+00   -.186E-01 0.528E+00 0.477E+00   -.910E-04 -.289E-03 0.377E-03


 POSITION                                       TOTAL-FORCE (eV/Angst)
 -----------------------------------------------------------------------------------
      5.47969      3.98617      3.54730         0.275735     -0.796291     -0.161117
      4.01854      4.70086      4.32023         0.713102      0.112114      0.092987
      5.60971      5.54547      4.36412         0.450811      0.888078      0.229622
      5.39699      4.03572      5.31829         0.002283      0.002110      0.080674
      5.12721      4.56796      4.38820        -0.700322      0.337160     -0.220695
 -----------------------------------------------------------------------------------
    total drift:                                0.741610      0.543172      0.021471


--------------------------------------------------------------------------------------------------------



  FREE ENERGIE OF THE ION-ELECTRON SYSTEM (eV)
  ---------------------------------------------------
  free  energy   TOTEN  =       -23.97212378 eV

  energy  without entropy=      -24.00843076  energy(sigma->0) =      -23.98422611



--------------------------------------------------------------------------------------------------------


    POTLOK:  cpu time    1.6707: real time    1.6746


--------------------------------------------------------------------------------------------------------


           RANDOM_SEED =         578495994                0                0
           RANDOM_SEED =         578495994               30                0
   IONSTEP:  cpu time    0.0016: real time    0.0018

  ENERGY OF THE ELECTRON-ION-THERMOSTAT SYSTEM (eV)
  ---------------------------------------------------
% ion-electron   TOTEN  =       -23.972124  see above
  kinetic energy EKIN   =         0.014998
  kin. lattice  EKIN_LAT=         0.000000  (temperature   29.01 K)
  nose potential ES     =         0.000000
  nose kinetic   EPS    =         0.000014
  ---------------------------------------------------
  total energy   ETOTAL =       -23.957112 eV

  maximum distance moved by ions :      0.26E-02


 mean value of Nose-termostat <S>:     0.995 mean value of <T> :    29.006
 mean temperature <T/S>/<1/S>  :    29.006

    WAVPRE:  cpu time    0.4465: real time    0.4529
    FEWALD:  cpu time    0.0004: real time    0.0004
    ORTHCH:  cpu time    0.1850: real time    0.1854
     LOOP+:  cpu time   86.9257: real time   87.1387


--------------------------------------- Iteration      2(   1)  ---------------------------------------


    POTLOK:  cpu time    1.6338: real time    1.6377
    SETDIJ:  cpu time    0.0066: real time    0.0066
     EDDAV:  cpu time    1.7311: real time    1.7352
       DOS:  cpu time    0.0002: real time    0.0002
    CHARGE:  cpu time    0.1654: real time    0.1658
    MIXING:  cpu time    0.0397: real time    0.0398
    --------------------------------------------
      LOOP:  cpu time    3.5768: real time    3.5854

 eigenvalue-minimisations  :    64
 total energy-change (2. order) :-0.1186378E-01  (-0.9487697E-01)
 number of electron       7.9999996 magnetization 
 augmentation part        0.1833756 magnetization 

 Broyden mixing:
  rms(total) = 0.55802E-01    rms(broyden)= 0.55737E-01
  rms(prec ) = 0.65569E-01
  weight for this iteration     100.00

 Free energy of the ion-electron system (eV)
  ---------------------------------------------------
  alpha Z        PSCENC =         0.24203350
  Ewald energy   TEWEN  =       127.49702705
  -Hartree energ DENC   =      -283.69050496
  -exchange      EXHF   =         0.00000000
  -V(xc)+E(xc)   XCENC  =        24.69770950
  PAW double counting   =       481.10157700     -481.88899977
  entropy T*S    EENTRO =         0.02578958
  eigenvalues    EBANDS =       -89.01037343
  atomic energy  EATOM  =       197.04175453
  Solvation  Ediel_sol  =         0.00000000
  ---------------------------------------------------
  free energy    TOTEN  =       -23.98398700 eV

  energy without entropy =      -24.00977659  energy(sigma->0) =      -23.99258353


--------------------------------------------------------------------------------------------------------




--------------------------------------- Iteration      2(   2)  ---------------------------------------


    POTLOK:  cpu time    1.5087: real time    1.5122
    SETDIJ:  cpu time    0.0066: real time    0.0066
    EDDIAG:  cpu time    0.3673: real time    0.3682
  RMM-DIIS:  cpu time    1.2767: real time    1.2798
    ORTHCH:  cpu time    0.0116: real time    0.0117
       DOS:  cpu time    0.0002: real time    0.0002
    CHARGE:  cpu time    0.1594: real time    0.1598
    MIXING:  cpu time    0.0605: real time    0.0606
    --------------------------------------------
      LOOP:  cpu time    3.3910: real time    3.3990

 eigenvalue-minimisations  :    64
 total energy-change (2. order) :-0.9453770E-03  (-0.4378811E-02)
 number of electron       7.9999996 magnetization 
 augmentation part        0.1827472 magnetization 

 Broyden mixing:
  rms(total) = 0.54461E-01    rms(broyden)= 0.54451E-01
  rms(prec ) = 0.65607E-01
  weight for this iteration     100.00

 eigenvalues of (default mixing * dielectric matrix)
  average eigenvalue GAMMA=   2.0770
  8.5478  5.5030  4.2305  3.2437  2.3916  2.1686  2.1686  1.7228  1.3754  1.3754
  1.2035  1.2035  1.1422  0.6807  0.6807  0.5761  0.6726  0.8983  0.8983  0.8562

 Free energy of the ion-electron system (eV)
  ---------------------------------------------------
  alpha Z        PSCENC =         0.24203350
[...]
  rms(prec ) = 0.28110E-03
  weight for this iteration     100.00

 eigenvalues of (default mixing * dielectric matrix)
  average eigenvalue GAMMA=   2.4501
  5.7477  5.3504  4.9309  4.1516  0.8285  0.8285  1.0388  1.0084  1.3742  1.3742
  1.2715  3.2639  3.2639  1.3886  1.6597  1.6597  2.1272  2.1272  2.2956  2.2956
  1.6340  3.1656  3.0681  2.0256  2.0256  2.9479  2.7967  2.7967  2.0304  2.4684
  2.4684  2.6480  2.6480  2.7327  2.2079  2.3173  2.3173  2.3260  2.3875  2.3875
  2.5986  2.5986  2.5700  2.5700  2.4904  2.4904

 Free energy of the ion-electron system (eV)
  ---------------------------------------------------
  alpha Z        PSCENC =         0.24203350
  Ewald energy   TEWEN  =       128.30352686
  -Hartree energ DENC   =      -284.03253813
  -exchange      EXHF   =         0.00000000
  -V(xc)+E(xc)   XCENC  =        24.71025469
  PAW double counting   =       453.59099772     -454.37866657
  entropy T*S    EENTRO =         0.01160227
  eigenvalues    EBANDS =       -89.39857711
  atomic energy  EATOM  =       197.04175453
  Solvation  Ediel_sol  =         0.00000000
  ---------------------------------------------------
  free energy    TOTEN  =       -23.90961222 eV

  energy without entropy =      -23.92121449  energy(sigma->0) =      -23.91347965


--------------------------------------------------------------------------------------------------------




--------------------------------------- Iteration     10(  11)  ---------------------------------------


    POTLOK:  cpu time    1.9702: real time    1.9749
    SETDIJ:  cpu time    0.0064: real time    0.0064
    EDDIAG:  cpu time    0.4545: real time    0.4556
  RMM-DIIS:  cpu time    1.2595: real time    1.2625
    ORTHCH:  cpu time    0.0114: real time    0.0114
       DOS:  cpu time    0.0002: real time    0.0002
    CHARGE:  cpu time    0.1519: real time    0.1523
    MIXING:  cpu time    0.2162: real time    0.2167
    --------------------------------------------
      LOOP:  cpu time    4.0703: real time    4.0799

 eigenvalue-minimisations  :    48
 total energy-change (2. order) :-0.1391068E-04  (-0.8683113E-07)
 number of electron       8.0000004 magnetization 
 augmentation part        0.1849795 magnetization 

 Broyden mixing:
  rms(total) = 0.15085E-03    rms(broyden)= 0.15082E-03
  rms(prec ) = 0.21022E-03
  weight for this iteration     100.00

 eigenvalues of (default mixing * dielectric matrix)
  average eigenvalue GAMMA=   2.4558
  5.6939  5.8346  4.9444  4.3823  0.8904  0.8904  1.0476  1.0476  1.0039  1.0560
  1.5323  1.5323  1.3455  1.4036  3.3169  3.3169  2.0847  2.0847  2.3026  2.3026
  3.3083  1.6741  2.0742  2.0742  2.9515  2.9066  2.9066  2.4603  2.4603  2.0316
  2.6319  2.6319  2.7455  2.6647  2.6647  2.6691  2.6691  2.2197  2.2197  2.3243
  2.3243  2.3805  2.3805  2.5150  2.5150  2.5415  2.4633

 Free energy of the ion-electron system (eV)
  ---------------------------------------------------
  alpha Z        PSCENC =         0.24203350
  Ewald energy   TEWEN  =       128.30352686
  -Hartree energ DENC   =      -284.03105178
  -exchange      EXHF   =         0.00000000
  -V(xc)+E(xc)   XCENC  =        24.71021860
  PAW double counting   =       453.62152717     -454.40918286
  entropy T*S    EENTRO =         0.01160230
  eigenvalues    EBANDS =       -89.40005445
  atomic energy  EATOM  =       197.04175453
  Solvation  Ediel_sol  =         0.00000000
  ---------------------------------------------------
  free energy    TOTEN  =       -23.90962613 eV

  energy without entropy =      -23.92122844  energy(sigma->0) =      -23.91349357


--------------------------------------------------------------------------------------------------------




--------------------------------------- Iteration     10(  12)  ---------------------------------------


    POTLOK:  cpu time    2.0134: real time    2.0191
    SETDIJ:  cpu time    0.0086: real time    0.0087
    EDDIAG:  cpu time    0.4392: real time    0.4402
  RMM-DIIS:  cpu time    1.2054: real time    1.2082
    ORTHCH:  cpu time    0.0118: real time    0.0118
       DOS:  cpu time    0.0002: real time    0.0002
    CHARGE:  cpu time    0.1868: real time    0.1872
    MIXING:  cpu time    0.2490: real time    0.2496
    --------------------------------------------
      LOOP:  cpu time    4.1144: real time    4.1251

 eigenvalue-minimisations  :    48
 total energy-change (2. order) :-0.5848864E-05  (-0.6878180E-07)
 number of electron       8.0000004 magnetization 
 augmentation part        0.1849824 magnetization 

 Broyden mixing:
  rms(total) = 0.60408E-04    rms(broyden)= 0.60404E-04
  rms(prec ) = 0.78617E-04
  weight for this iteration     100.00

 eigenvalues of (default mixing * dielectric matrix)
  average eigenvalue GAMMA=   2.4540
  5.8383  5.7159  4.9500  4.4588  3.8056  0.8794  0.8794  0.9763  0.9763  1.0005
  1.1388  1.2502  1.2502  1.3978  2.0840  2.0840  1.6491  1.6491  3.3194  3.1515
  3.1515  2.3260  2.3260  1.6427  2.9316  2.9316  2.0691  2.0691  2.9322  2.0016
  2.4483  2.4483  2.1443  2.6536  2.6536  2.7542  2.7542  2.2874  2.2874  2.3877
  2.3877  2.4440  2.4870  2.4870  2.5734  2.5734  2.5925  2.5925

 Free energy of the ion-electron system (eV)
  ---------------------------------------------------
  alpha Z        PSCENC =         0.24203350
  Ewald energy   TEWEN  =       128.30352686
  -Hartree energ DENC   =      -284.02718286
  -exchange      EXHF   =         0.00000000
  -V(xc)+E(xc)   XCENC  =        24.71004850
  PAW double counting   =       453.61970692     -454.40732100
  entropy T*S    EENTRO =         0.01160225
  eigenvalues    EBANDS =       -89.40380067
  atomic energy  EATOM  =       197.04175453
  Solvation  Ediel_sol  =         0.00000000
  ---------------------------------------------------
  free energy    TOTEN  =       -23.90963198 eV

  energy without entropy =      -23.92123423  energy(sigma->0) =      -23.91349940


--------------------------------------------------------------------------------------------------------




--------------------------------------- Iteration     10(  13)  ---------------------------------------


    POTLOK:  cpu time    1.9793: real time    2.0369
    SETDIJ:  cpu time    0.0120: real time    0.0120
    EDDIAG:  cpu time    0.4317: real time    0.4328
  RMM-DIIS:  cpu time    1.2364: real time    1.2393
    ORTHCH:  cpu time    0.0211: real time    0.0211
       DOS:  cpu time    0.0004: real time    0.0004
    CHARGE:  cpu time    0.2510: real time    0.2516
    MIXING:  cpu time    0.1680: real time    0.1684
    --------------------------------------------
      LOOP:  cpu time    4.0998: real time    4.1624

 eigenvalue-minimisations  :    48
 total energy-change (2. order) :-0.1366556E-05  (-0.4209765E-07)
 number of electron       8.0000004 magnetization 
 augmentation part        0.1849851 magnetization 

 Broyden mixing:
  rms(total) = 0.95684E-04    rms(broyden)= 0.95673E-04
  rms(prec ) = 0.12560E-03
  weight for this iteration     100.00

 eigenvalues of (default mixing * dielectric matrix)
  average eigenvalue GAMMA=   2.4514
  5.8557  5.7193  5.0530  4.4531  4.0909  0.7830  0.9222  0.9222  0.9644  0.9644
  1.0020  1.1269  1.5093  1.5093  1.3960  1.3960  2.1580  2.1580  3.3204  3.3204
  3.3203  1.5441  2.2742  2.2742  2.0105  2.0105  2.9032  2.9032  2.1111  2.1111
  2.9186  2.4169  2.4169  2.1781  2.6600  2.6600  2.7571  2.3175  2.3224  2.4095
  2.4095  2.5107  2.5107  2.6763  2.6763  2.6118  2.6118  2.5232  2.4450

 Free energy of the ion-electron system (eV)
  ---------------------------------------------------
  alpha Z        PSCENC =         0.24203350
  Ewald energy   TEWEN  =       128.30352686
  -Hartree energ DENC   =      -284.02558656
  -exchange      EXHF   =         0.00000000
  -V(xc)+E(xc)   XCENC  =        24.70999891
  PAW double counting   =       453.62960248     -454.41718785
  entropy T*S    EENTRO =         0.01160227
  eigenvalues    EBANDS =       -89.40537748
  atomic energy  EATOM  =       197.04175453
  Solvation  Ediel_sol  =         0.00000000
  ---------------------------------------------------
  free energy    TOTEN  =       -23.90963335 eV

  energy without entropy =      -23.92123562  energy(sigma->0) =      -23.91350077


--------------------------------------------------------------------------------------------------------




--------------------------------------- Iteration     10(  14)  ---------------------------------------


    POTLOK:  cpu time    1.9908: real time    1.9955
    SETDIJ:  cpu time    0.0064: real time    0.0064
    EDDIAG:  cpu time    0.3676: real time    0.3684
  RMM-DIIS:  cpu time    1.3092: real time    1.3123
    ORTHCH:  cpu time    0.0113: real time    0.0113
       DOS:  cpu time    0.0002: real time    0.0002
    --------------------------------------------
      LOOP:  cpu time    3.6855: real time    3.6942

 eigenvalue-minimisations  :    44
 total energy-change (2. order) :-0.7839884E-06  (-0.8008862E-08)
 number of electron       8.0000004 magnetization 
 augmentation part        0.1849851 magnetization 

 Free energy of the ion-electron system (eV)
  ---------------------------------------------------
  alpha Z        PSCENC =         0.24203350
  Ewald energy   TEWEN  =       128.30352686
  -Hartree energ DENC   =      -284.02596561
  -exchange      EXHF   =         0.00000000
  -V(xc)+E(xc)   XCENC  =        24.70999756
  PAW double counting   =       453.62448651     -454.41208083
  entropy T*S    EENTRO =         0.01160228
  eigenvalues    EBANDS =       -89.40498893
  atomic energy  EATOM  =       197.04175453
  Solvation  Ediel_sol  =         0.00000000
  ---------------------------------------------------
  free energy    TOTEN  =       -23.90963413 eV

  energy without entropy =      -23.92123641  energy(sigma->0) =      -23.91350156


--------------------------------------------------------------------------------------------------------




 average (electrostatic) potential at core
  the test charge radii are     0.5201  0.6991
  (the norm of the test charge is              1.0000)
       1 -41.7980       2 -41.1928       3 -41.6868       4 -41.3536       5 -57.9881



 E-fermi :  -8.6462     XC(G=0):  -0.6966     alpha+bet : -0.2105


 k-point     1 :       0.2500    0.2500    0.2500
  band No.  band energies     occupation 
      1     -16.9063      2.00000
      2      -9.6444      2.00000
      3      -9.3372      2.00001
      4      -8.8146      2.00005
      5      -0.3239      0.00000
      6       0.5616      0.00000
      7       0.6593      0.00000
      8       0.6942      0.00000

 k-point     2 :      -0.2500    0.2500    0.2500
  band No.  band energies     occupation 
      1     -16.9062      2.00000
      2      -9.6443      2.00000
      3      -9.3372      2.00001
      4      -8.8146      1.99993
      5      -0.3233      0.00000
      6       0.5569      0.00000
      7       0.6572      0.00000
      8       0.6937      0.00000

 k-point     3 :       0.2500   -0.2500    0.2500
  band No.  band energies     occupation 
      1     -16.9062      2.00000
      2      -9.6444      2.00000
      3      -9.3372      2.00001
      4      -8.8146      1.99997
      5      -0.3304      0.00000
      6       0.5702      0.00000
      7       0.6723      0.00000
      8       0.7192      0.00000

 k-point     4 :      -0.2500   -0.2500    0.2500
  band No.  band energies     occupation 
      1     -16.9062      2.00000
      2      -9.6444      2.00000
      3      -9.3373      2.00001
      4      -8.8146      2.00000
      5      -0.3252      0.00000
      6       0.5511      0.00000
      7       0.6634      0.00000
      8       0.7150      0.00000


--------------------------------------------------------------------------------------------------------


 soft charge-density along one line, spin component           1
         0         1         2         3         4         5         6         7         8         9
 total charge-density along one line

 pseudopotential strength for first ion, spin component:           1
 -2.343  -4.038  -0.001  -0.001   0.001
 -4.038  -6.874  -0.004  -0.004   0.002
 -0.001  -0.004  -0.335   0.003  -0.001
 -0.001  -0.004   0.003  -0.335  -0.002
  0.001   0.002  -0.001  -0.002  -0.337
 total augmentation occupancy for first ion, spin component:           1
  3.307  -0.519   0.300   0.291  -0.164
 -0.519   0.100  -0.046  -0.049   0.026
  0.300  -0.046   0.036   0.021  -0.013
  0.291  -0.049   0.021   0.032  -0.011
 -0.164   0.026  -0.013  -0.011   0.018


------------------------ aborting loop because EDIFF is reached ----------------------------------------


    CHARGE:  cpu time    0.1598: real time    0.1602
    FORLOC:  cpu time    0.1803: real time    0.1808
    FORNL :  cpu time    0.6116: real time    0.6131
    STRESS:  cpu time    2.0326: real time    2.0374
    FORCOR:  cpu time    2.0363: real time    2.0411
    FORHAR:  cpu time    0.6010: real time    0.6024
    MIXING:  cpu time    0.1694: real time    0.1698
    OFIELD:  cpu time    0.0000: real time    0.0000

  FORCE on cell =-STRESS in cart. coord.  units (eV):
  Direction    XX          YY          ZZ          XY          YZ          ZX
  --------------------------------------------------------------------------------------
  Alpha Z     0.24203     0.24203     0.24203
  Ewald      42.16196    49.55278    36.58877     2.01987    -1.23878    -4.31636
  Hartree    94.22517    95.77133    94.03373     0.40588    -1.16232    -0.65261
  E(xc)     -27.15311   -27.15182   -27.22000     0.01232    -0.01580    -0.01801
  Local    -195.61341  -202.35975  -190.66361    -2.10104     2.67200     3.90199
  n-local   -14.87898   -15.89291   -15.66667    -0.11194    -0.42603     0.31711
  augment     0.12623     0.10636     0.12719    -0.00064    -0.00422     0.00869
  Kinetic    99.71686    99.62626   103.58920    -0.68945     0.74731     0.85588
  Fock        0.00000     0.00000     0.00000     0.00000     0.00000     0.00000
  -------------------------------------------------------------------------------------
  Total      -1.17325    -0.10572     1.03063    -0.46499     0.57216     0.09669
  in kB      -1.87807    -0.16924     1.64977    -0.74433     0.91588     0.15478
  external pressure =       -0.13 kB  Pullay stress =        0.00 kB

  kinetic pressure (ideal gas correction) =      0.20 kB
  total pressure  =      0.07 kB
  Total+kin.    -1.708      -0.071       1.994      -0.686       1.056       0.174

 VOLUME and BASIS-vectors are now :
 -----------------------------------------------------------------------------
  energy-cutoff  :      400.00
  volume of cell :     1000.90
      direct lattice vectors                 reciprocal lattice vectors
    10.144928094  0.000000000  0.000000000     0.098571423  0.001111070 -0.001656696
    -0.112843452 10.011198217  0.000000000    -0.000000000  0.099888143  0.002588381
     0.168511283 -0.255369433  9.854956166     0.000000000 -0.000000000  0.101471786

  length of vectors
    10.144928094 10.011834167  9.859704388     0.098591605  0.099921674  0.101471786


 FORCES acting on ions
    electron-ion (+dipol)            ewald-force                    non-local-force                 convergence-correction
 -----------------------------------------------------------------------------------------------
   -.203E+02 0.334E+02 0.379E+02   0.229E+02 -.378E+02 -.434E+02   -.245E+01 0.385E+01 0.335E+01   0.196E-03 -.249E-03 -.353E-03
   0.506E+02 -.131E+01 0.168E+01   -.540E+02 0.159E+01 -.200E+01   0.443E+01 0.224E+00 0.568E+00   -.473E-03 0.630E-04 0.444E-06
   -.233E+02 -.478E+02 0.246E+01   0.257E+02 0.531E+02 -.260E+01   -.235E+01 -.507E+01 0.573E+00   0.200E-03 0.462E-03 -.266E-04
   -.112E+02 0.257E+02 -.443E+02   0.123E+02 -.278E+02 0.488E+02   -.771E+00 0.232E+01 -.402E+01   0.838E-04 -.180E-03 0.403E-03
   0.589E+01 -.101E+02 0.120E+01   -.707E+01 0.109E+02 -.789E+00   -.121E+01 -.614E+00 0.170E+00   -.361E-04 0.507E-03 0.756E-04
 -----------------------------------------------------------------------------------------------
   0.167E+01 -.118E+00 -.104E+01   0.000E+00 0.000E+00 -.711E-14   -.236E+01 0.711E+00 0.646E+00   -.290E-04 0.604E-03 0.100E-03


 POSITION                                       TOTAL-FORCE (eV/Angst)
 -----------------------------------------------------------------------------------
      5.52497      3.92159      3.65191         0.146433     -0.561356     -2.125921
      3.98294      4.59737      4.34755         1.078288      0.506778      0.249204
      5.61104      5.55398      4.33423         0.106187      0.269710      0.430340
      5.36541      4.02962      5.31207         0.365490      0.190035      0.472958
      5.12893      4.58175      4.38022        -2.385463      0.188794      0.577796
 -----------------------------------------------------------------------------------
    total drift:                               -0.689065      0.593962     -0.395623


--------------------------------------------------------------------------------------------------------



  FREE ENERGIE OF THE ION-ELECTRON SYSTEM (eV)
  ---------------------------------------------------
  free  energy   TOTEN  =       -23.90963413 eV

  energy  without entropy=      -23.92123641  energy(sigma->0) =      -23.91350156

 d Force =-0.3486959E-01[-0.295E+00, 0.226E+00]  d Energy =-0.5211204E-01 0.172E-01
 d Force =-0.6106995E+01[-0.648E+01,-0.573E+01]  d Ewald  =-0.6104343E+01-0.265E-02


--------------------------------------------------------------------------------------------------------


    POTLOK:  cpu time    2.0782: real time    2.1573


--------------------------------------------------------------------------------------------------------


           RANDOM_SEED =         578495994               30                0
   IONSTEP:  cpu time    0.0001: real time    0.0001

  ENERGY OF THE ELECTRON-ION-THERMOSTAT SYSTEM (eV)
  ---------------------------------------------------
% ion-electron   TOTEN  =       -23.909634  see above
  kinetic energy EKIN   =         0.069877
  kin. lattice  EKIN_LAT=         0.000000  (temperature  135.15 K)
  nose potential ES     =         0.015732
  nose kinetic   EPS    =         0.038044
  ---------------------------------------------------
  total energy   ETOTAL =       -23.785981 eV

  maximum distance moved by ions :      0.39E-02


 mean value of Nose-termostat <S>:     1.565 mean value of <T> :   135.148
 mean temperature <T/S>/<1/S>  :   135.148

    WAVPRE:  cpu time    0.5475: real time    0.5558
    FEWALD:  cpu time    0.0004: real time    0.0004
    ORTHCH:  cpu time    0.2568: real time    0.2574
 Prediction of Wavefunctions ALPHA= 0.101 BETA= 0.077
    POTLOK:  cpu time    2.0550: real time    2.0598
    EDDIAG:  cpu time    0.4344: real time    0.4354
     LOOP+:  cpu time   70.9555: real time   71.6705
    4ORBIT:  cpu time    0.0000: real time    0.0000

 total amount of memory used by VASP MPI-rank0   299555. kBytes
=======================================================================

   base      :      30000. kBytes
   nonlr-proj:        153. kBytes
   fftplans  :      86708. kBytes
   grid      :     154683. kBytes
   one-center:         15. kBytes
   wavefun   :      27996. kBytes

  
  
 General timing and accounting informations for this job:
 ========================================================
  
                  Total CPU time used (sec):      668.095
                            User time (sec):      654.355
                          System time (sec):       13.740
                         Elapsed time (sec):      671.834
  
                   Maximum memory used (kb):      468768.
                   Average memory used (kb):           0.
  
                          Minor page faults:      2196604
                          Major page faults:            0
                 Voluntary context switches:          410
