 running on    1 total cores
 distrk:  each k-point on    1 cores,    1 groups
 distr:  one band on    1 cores,    1 groups
 using from now: INCAR     
 vasp.5.4.4.18Apr17-6-g9f103f2a35 (build Jul 12 2018 13:43:46) complex           
 POSCAR found type information on POSCAR  H  C 
 POSCAR found :  2 types and       5 ions
 scaLAPACK will be used

 ----------------------------------------------------------------------------- 
|                                                                             |
|  ADVICE TO THIS USER RUNNING 'VASP/VAMP'   (HEAR YOUR MASTER'S VOICE ...):  |
|                                                                             |
|      You have a (more or less) 'small supercell' and for smaller cells      |
|      it is recommended  to use the reciprocal-space projection scheme!      |
|      The real space optimization is not  efficient for small cells and it   |
|      is also less accurate ...                                              |
|      Therefore set LREAL=.FALSE. in the  INCAR file                         |
|                                                                             |
 ----------------------------------------------------------------------------- 


 ----------------------------------------------------------------------------- 
|                                                                             |
|           W    W    AA    RRRRR   N    N  II  N    N   GGGG   !!!           |
|           W    W   A  A   R    R  NN   N  II  NN   N  G    G  !!!           |
|           W    W  A    A  R    R  N N  N  II  N N  N  G       !!!           |
|           W WW W  AAAAAA  RRRRR   N  N N  II  N  N N  G  GGG   !            |
|           WW  WW  A    A  R   R   N   NN  II  N   NN  G    G                |
|           W    W  A    A  R    R  N    N  II  N    N   GGGG   !!!           |
|                                                                             |
|     The real-space-projection scheme for the treatment of the nonlocal      |
|     pseudopotentials has been switched on -- but on file POTCAR I have      |
|     not found any entries signalling me that you have ever performed a      |
|     real-space optimization of all nonlocal projectors! BE WARNED that      |
|     a calculation using the real-space-projection scheme together with      |
|     nonlocal projectors which were not real-space-optimized (according      |
|     to the plane-wave-cutoff used in this calculation) might give more      |
|     or less inaccurate results                                              |
|     I hope you know what you are doing                                      |
|                                                                             |
 ----------------------------------------------------------------------------- 

 LDA part: xc-table for Pade appr. of Perdew
 generate k-points for:    2    2    2
 POSCAR, INCAR and KPOINTS ok, starting setup
 FFT: planning ...
 WAVECAR not read
 prediction of wavefunctions initialized - no I/O
 entering main loop
       N       E                     dE             d eps       ncg     rms          rms(c)
DAV:   1     0.137201862350E+02    0.13720E+02   -0.20309E+03    96   0.419E+02
DAV:   2    -0.227190287675E+02   -0.36439E+02   -0.36439E+02    64   0.110E+02
DAV:   3    -0.273060586671E+02   -0.45870E+01   -0.45979E+01    64   0.453E+01
DAV:   4    -0.274901659740E+02   -0.18411E+00   -0.18102E+00   128   0.973E+00
DAV:   5    -0.274902345530E+02   -0.68579E-04   -0.68578E-04    88   0.207E-01    0.877E+00
RMM:   6    -0.246074016181E+02    0.28828E+01   -0.53337E+00    64   0.141E+01    0.438E+00
RMM:   7    -0.241260615733E+02    0.48134E+00   -0.11807E+00    64   0.629E+00    0.244E+00
RMM:   8    -0.240158706241E+02    0.11019E+00   -0.99390E-02    64   0.202E+00    0.128E+00
RMM:   9    -0.239675403204E+02    0.48330E-01   -0.57223E-02    64   0.177E+00    0.426E-01
RMM:  10    -0.239648028432E+02    0.27375E-02   -0.82554E-03    64   0.530E-01    0.259E-01
RMM:  11    -0.239640085642E+02    0.79428E-03   -0.33852E-03    64   0.320E-01    0.124E-01
RMM:  12    -0.239597458595E+02    0.42627E-02   -0.23747E-03    64   0.336E-01    0.119E-01
RMM:  13    -0.239634610316E+02   -0.37152E-02   -0.12543E-03    64   0.230E-01    0.196E-01
RMM:  14    -0.239657967164E+02   -0.23357E-02   -0.39743E-04    64   0.116E-01    0.590E-02
RMM:  15    -0.239694998879E+02   -0.37032E-02   -0.76557E-04    64   0.175E-01    0.116E-01
RMM:  16    -0.239711818756E+02   -0.16820E-02   -0.56877E-04    64   0.136E-01    0.135E-01
RMM:  17    -0.239716270427E+02   -0.44517E-03   -0.25588E-04    64   0.979E-02    0.179E-02
RMM:  18    -0.239719228085E+02   -0.29577E-03   -0.28033E-05    64   0.354E-02    0.621E-03
RMM:  19    -0.239720753672E+02   -0.15256E-03   -0.22983E-05    64   0.280E-02    0.101E-02
RMM:  20    -0.239720977666E+02   -0.22399E-04   -0.42282E-06    60   0.123E-02    0.244E-03
RMM:  21    -0.239721189538E+02   -0.21187E-04   -0.40744E-06    60   0.133E-02    0.392E-03
RMM:  22    -0.239721215880E+02   -0.26341E-05   -0.12519E-06    48   0.719E-03    0.896E-04
RMM:  23    -0.239721232269E+02   -0.16390E-05   -0.20907E-07    48   0.401E-03    0.321E-04
RMM:  24    -0.239721237788E+02   -0.55189E-06   -0.64676E-08    44   0.217E-03
    1 T=    29. E= -.23957112E+02 F= -.23972124E+02 E0= -.23984226E+02  EK= 0.14998E-01 SP= 0.00E+00 SK= 0.14E-04
 bond charge predicted
       N       E                     dE             d eps       ncg     rms          rms(c)
DAV:   1    -0.239839870039E+02   -0.11864E-01   -0.94877E-01    64   0.896E+00    0.558E-01
RMM:   2    -0.239849323809E+02   -0.94538E-03   -0.43788E-02    64   0.166E+00    0.545E-01
RMM:   3    -0.239778604534E+02    0.70719E-02   -0.15415E-02    64   0.791E-01    0.355E-01
RMM:   4    -0.239788707736E+02   -0.10103E-02   -0.93302E-03    64   0.649E-01    0.205E-01
RMM:   5    -0.239813973980E+02   -0.25266E-02   -0.99039E-04    64   0.222E-01    0.134E-01
RMM:   6    -0.239811997451E+02    0.19765E-03   -0.12320E-03    64   0.202E-01    0.495E-02
RMM:   7    -0.239813185734E+02   -0.11883E-03   -0.26091E-04    64   0.108E-01    0.299E-02
RMM:   8    -0.239814538236E+02   -0.13525E-03   -0.36184E-05    64   0.427E-02    0.959E-03
RMM:   9    -0.239815676548E+02   -0.11383E-03   -0.35613E-05    64   0.380E-02    0.571E-03
RMM:  10    -0.239815900595E+02   -0.22405E-04   -0.38645E-06    56   0.133E-02    0.549E-03
RMM:  11    -0.239816001541E+02   -0.10095E-04   -0.39305E-06    60   0.124E-02    0.345E-03
RMM:  12    -0.239816048270E+02   -0.46729E-05   -0.19586E-06    48   0.875E-03    0.179E-03
RMM:  13    -0.239816080578E+02   -0.32308E-05   -0.92805E-07    48   0.728E-03    0.174E-03
RMM:  14    -0.239816090338E+02   -0.97598E-06   -0.19740E-07    48   0.342E-03
    2 T=    65. E= -.23948385E+02 F= -.23981609E+02 E0= -.23991268E+02  EK= 0.33468E-01 SP= -.27E-03 SK= 0.24E-04
 bond charge predicted
 prediction of wavefunctions
       N       E                     dE             d eps       ncg     rms          rms(c)
DAV:   1    -0.239419304447E+02    0.39678E-01   -0.10095E+00    64   0.969E+00    0.512E-01
RMM:   2    -0.239467310067E+02   -0.48006E-02   -0.11542E-01    64   0.210E+00    0.628E-01
RMM:   3    -0.239410502810E+02    0.56807E-02   -0.11825E-01    64   0.199E+00    0.560E-01
RMM:   4    -0.239362659393E+02    0.47843E-02   -0.70758E-03    64   0.527E-01    0.188E-01
RMM:   5    -0.239359529856E+02    0.31295E-03   -0.17418E-03    64   0.289E-01    0.881E-02
RMM:   6    -0.239359234348E+02    0.29551E-04   -0.68719E-04    64   0.169E-01    0.470E-02
RMM:   7    -0.239360469350E+02   -0.12350E-03   -0.39734E-04    64   0.125E-01    0.312E-02
RMM:   8    -0.239361062672E+02   -0.59332E-04   -0.12390E-04    64   0.663E-02    0.635E-03
RMM:   9    -0.239361500378E+02   -0.43771E-04   -0.25715E-05    64   0.325E-02    0.626E-03
RMM:  10    -0.239361698725E+02   -0.19835E-04   -0.46687E-06    64   0.133E-02    0.628E-03
RMM:  11    -0.239361792039E+02   -0.93314E-05   -0.10252E-06    48   0.615E-03    0.276E-03
RMM:  12    -0.239361857775E+02   -0.65737E-05   -0.18810E-06    48   0.881E-03    0.256E-03
RMM:  13    -0.239361873076E+02   -0.15300E-05   -0.58003E-07    48   0.591E-03    0.176E-03
RMM:  14    -0.239361880337E+02   -0.72607E-06   -0.19222E-07    48   0.305E-03
    3 T=    52. E= -.23909399E+02 F= -.23936188E+02 E0= -.23944515E+02  EK= 0.27134E-01 SP= -.35E-03 SK= 0.33E-05
 bond charge predicted
 prediction of wavefunctions
       N       E                     dE             d eps       ncg     rms          rms(c)
DAV:   1    -0.239759224551E+02   -0.39735E-01   -0.96883E-01    64   0.950E+00    0.505E-01
RMM:   2    -0.240014460999E+02   -0.25524E-01   -0.20269E-01    64   0.281E+00    0.972E-01
RMM:   3    -0.239738187221E+02    0.27627E-01   -0.19988E-01    64   0.257E+00    0.360E-01
RMM:   4    -0.239731886893E+02    0.63003E-03   -0.51846E-03    64   0.546E-01    0.282E-01
RMM:   5    -0.239710823972E+02    0.21063E-02   -0.87723E-03    64   0.536E-01    0.157E-01
RMM:   6    -0.239705934792E+02    0.48892E-03   -0.60843E-04    64   0.171E-01    0.107E-01
RMM:   7    -0.239703184752E+02    0.27500E-03   -0.65618E-04    64   0.164E-01    0.557E-02
RMM:   8    -0.239702717042E+02    0.46771E-04   -0.24742E-04    64   0.102E-01    0.259E-02
RMM:   9    -0.239702982035E+02   -0.26499E-04   -0.17005E-04    64   0.818E-02    0.892E-03
RMM:  10    -0.239703115300E+02   -0.13327E-04   -0.17670E-05    64   0.292E-02    0.763E-03
RMM:  11    -0.239703207183E+02   -0.91883E-05   -0.20110E-06    52   0.102E-02    0.564E-03
RMM:  12    -0.239703234781E+02   -0.27598E-05   -0.13197E-06    48   0.795E-03    0.424E-03
RMM:  13    -0.239703246689E+02   -0.11907E-05   -0.55821E-07    48   0.558E-03    0.290E-03
RMM:  14    -0.239703250735E+02   -0.40462E-06   -0.46979E-07    48   0.496E-03
    4 T=   104. E= -.23916975E+02 F= -.23970325E+02 E0= -.23974533E+02  EK= 0.53679E-01 SP= -.40E-03 SK= 0.68E-04
 bond charge predicted
 prediction of wavefunctions
       N       E                     dE             d eps       ncg     rms          rms(c)
DAV:   1    -0.239238924928E+02    0.46432E-01   -0.13318E+00    64   0.112E+01    0.665E-01
RMM:   2    -0.239406625566E+02   -0.16770E-01   -0.16624E-01    64   0.262E+00    0.822E-01
RMM:   3    -0.239255358174E+02    0.15127E-01   -0.89413E-02    64   0.179E+00    0.678E-01
RMM:   4    -0.239159228149E+02    0.96130E-02   -0.29992E-02    64   0.112E+00    0.333E-01
RMM:   5    -0.239136967172E+02    0.22261E-02   -0.27742E-03    64   0.360E-01    0.252E-01
RMM:   6    -0.239158903460E+02   -0.21936E-02   -0.32664E-02    64   0.106E+00    0.334E-01
RMM:   7    -0.239134968412E+02    0.23935E-02   -0.20879E-03    64   0.299E-01    0.143E-01
RMM:   8    -0.239133627321E+02    0.13411E-03   -0.21812E-03    64   0.283E-01    0.958E-02
RMM:   9    -0.239133666002E+02   -0.38681E-05   -0.51681E-04    64   0.149E-01    0.200E-02
RMM:  10    -0.239135005905E+02   -0.13399E-03   -0.18687E-04    64   0.900E-02    0.183E-02
RMM:  11    -0.239135624508E+02   -0.61860E-04   -0.29785E-05    64   0.348E-02    0.130E-02
RMM:  12    -0.239135740647E+02   -0.11614E-04   -0.79834E-06    64   0.181E-02    0.557E-03
RMM:  13    -0.239135854786E+02   -0.11414E-04   -0.45881E-06    60   0.134E-02    0.670E-03
RMM:  14    -0.239135870959E+02   -0.16173E-05   -0.80677E-07    48   0.600E-03    0.331E-03
RMM:  15    -0.239135874382E+02   -0.34239E-06   -0.16056E-06    48   0.837E-03
    5 T=    86. E= -.23868516E+02 F= -.23913587E+02 E0= -.23922414E+02  EK= 0.44246E-01 SP= 0.24E-03 SK= 0.59E-03
 bond charge predicted
 prediction of wavefunctions
       N       E                     dE             d eps       ncg     rms          rms(c)
DAV:   1    -0.238870894184E+02    0.26498E-01   -0.66148E-01    64   0.780E+00    0.432E-01
RMM:   2    -0.239048452960E+02   -0.17756E-01   -0.17701E-01    64   0.264E+00    0.864E-01
RMM:   3    -0.238855316564E+02    0.19314E-01   -0.40392E-02    64   0.124E+00    0.336E-01
RMM:   4    -0.238881262127E+02   -0.25946E-02   -0.54520E-02    64   0.145E+00    0.452E-01
RMM:   5    -0.238846338057E+02    0.34924E-02   -0.21825E-02    64   0.878E-01    0.126E-01
RMM:   6    -0.238849761208E+02   -0.34232E-03   -0.14479E-03    64   0.276E-01    0.119E-01
RMM:   7    -0.238849600269E+02    0.16094E-04   -0.11499E-03    64   0.201E-01    0.658E-02
RMM:   8    -0.238851333772E+02   -0.17335E-03   -0.18005E-04    64   0.895E-02    0.527E-02
RMM:   9    -0.238851418833E+02   -0.85061E-05   -0.99956E-05    64   0.629E-02    0.328E-02
RMM:  10    -0.238851567966E+02   -0.14913E-04   -0.60265E-05    64   0.509E-02    0.259E-02
RMM:  11    -0.238851660279E+02   -0.92313E-05   -0.15065E-05    64   0.266E-02    0.235E-02
RMM:  12    -0.238851575254E+02    0.85025E-05   -0.50128E-05    64   0.434E-02    0.165E-02
RMM:  13    -0.238851510518E+02    0.64735E-05   -0.15209E-05    64   0.249E-02    0.106E-02
RMM:  14    -0.238851576983E+02   -0.66465E-05   -0.34723E-05    64   0.366E-02    0.492E-03
RMM:  15    -0.238851656895E+02   -0.79912E-05   -0.20823E-06    48   0.117E-02    0.405E-03
RMM:  16    -0.238851674730E+02   -0.17835E-05   -0.44881E-07    48   0.541E-03    0.877E-04
RMM:  17    -0.238851687960E+02   -0.13231E-05   -0.24818E-07    48   0.355E-03    0.682E-04
RMM:  18    -0.238851699320E+02   -0.11360E-05   -0.55122E-08    44   0.202E-03    0.817E-04
RMM:  19    -0.238851701516E+02   -0.21957E-06    0.00000E+00    32   0.137E-03
    6 T=    59. E= -.23852062E+02 F= -.23885170E+02 E0= -.23895030E+02  EK= 0.30744E-01 SP= 0.13E-02 SK= 0.10E-02
 bond charge predicted
 prediction of wavefunctions
       N       E                     dE             d eps       ncg     rms          rms(c)
DAV:   1    -0.239467430564E+02   -0.61573E-01   -0.84654E-01    64   0.981E+00    0.510E-01
RMM:   2    -0.239535059696E+02   -0.67629E-02   -0.88984E-02    64   0.216E+00    0.549E-01
RMM:   3    -0.239513167315E+02    0.21892E-02   -0.32877E-02    64   0.111E+00    0.412E-01
RMM:   4    -0.239475052121E+02    0.38115E-02   -0.81805E-03    64   0.600E-01    0.211E-01
RMM:   5    -0.239477514087E+02   -0.24620E-03   -0.71793E-03    64   0.508E-01    0.189E-01
RMM:   6    -0.239470916889E+02    0.65972E-03   -0.24712E-03    64   0.308E-01    0.110E-01
RMM:   7    -0.239469612769E+02    0.13041E-03   -0.53266E-04    64   0.153E-01    0.706E-02
RMM:   8    -0.239468932686E+02    0.68008E-04   -0.20258E-04    64   0.916E-02    0.470E-02
RMM:   9    -0.239468872711E+02    0.59976E-05   -0.68754E-05    64   0.535E-02    0.334E-02
RMM:  10    -0.239468949026E+02   -0.76316E-05   -0.40864E-05    64   0.425E-02    0.189E-02
RMM:  11    -0.239469132598E+02   -0.18357E-04   -0.45218E-05    64   0.433E-02    0.568E-03
RMM:  12    -0.239469260155E+02   -0.12756E-04   -0.12336E-05    64   0.233E-02    0.667E-03
RMM:  13    -0.239469333357E+02   -0.73202E-05   -0.83396E-06    64   0.179E-02    0.417E-03
RMM:  14    -0.239469345504E+02   -0.12147E-05   -0.19714E-06    52   0.938E-03    0.104E-03
RMM:  15    -0.239469358484E+02   -0.12979E-05   -0.46998E-07    48   0.509E-03    0.105E-03
RMM:  16    -0.239469365003E+02   -0.65188E-06   -0.29606E-07    48   0.388E-03
    7 T=   175. E= -.23850560E+02 F= -.23946937E+02 E0= -.23951283E+02  EK= 0.90598E-01 SP= 0.25E-02 SK= 0.32E-02
 bond charge predicted
 prediction of wavefunctions
       N       E                     dE             d eps       ncg     rms          rms(c)
DAV:   1    -0.238958673111E+02    0.51069E-01   -0.12860E+00    64   0.116E+01    0.632E-01
RMM:   2    -0.238898150663E+02    0.60522E-02   -0.42373E-02    64   0.163E+00    0.344E-01
RMM:   3    -0.238993807008E+02   -0.95656E-02   -0.40586E-02    64   0.127E+00    0.432E-01
RMM:   4    -0.238937408648E+02    0.56398E-02   -0.21225E-02    64   0.835E-01    0.131E-01
RMM:   5    -0.238941689414E+02   -0.42808E-03   -0.16883E-03    64   0.273E-01    0.877E-02
RMM:   6    -0.238943278947E+02   -0.15895E-03   -0.13799E-03    64   0.229E-01    0.300E-02
RMM:   7    -0.238944522955E+02   -0.12440E-03   -0.37246E-04    64   0.117E-01    0.493E-02
RMM:   8    -0.238944098065E+02    0.42489E-04   -0.17259E-04    64   0.821E-02    0.170E-02
RMM:   9    -0.238944417585E+02   -0.31952E-04   -0.41424E-05    64   0.410E-02    0.740E-03
RMM:  10    -0.238944574157E+02   -0.15657E-04   -0.18876E-05    64   0.282E-02    0.272E-03
RMM:  11    -0.238944641571E+02   -0.67414E-05   -0.13896E-06    48   0.893E-03    0.230E-03
RMM:  12    -0.238944672490E+02   -0.30919E-05   -0.11419E-06    48   0.704E-03    0.980E-04
RMM:  13    -0.238944684364E+02   -0.11874E-05   -0.17436E-07    48   0.321E-03    0.997E-04
RMM:  14    -0.238944693597E+02   -0.92330E-06   -0.18021E-07    48   0.270E-03
    8 T=   151. E= -.23801758E+02 F= -.23894469E+02 E0= -.23899097E+02  EK= 0.77884E-01 SP= 0.53E-02 SK= 0.95E-02
 bond charge predicted
 prediction of wavefunctions
       N       E                     dE             d eps       ncg     rms          rms(c)
DAV:   1    -0.239640399555E+02   -0.69572E-01   -0.14495E+00    64   0.121E+01    0.660E-01
RMM:   2    -0.239641293311E+02   -0.89376E-04   -0.54791E-02    64   0.190E+00    0.566E-01
RMM:   3    -0.239676520970E+02   -0.35228E-02   -0.97506E-02    64   0.184E+00    0.586E-01
RMM:   4    -0.239623244870E+02    0.53276E-02   -0.67914E-02    64   0.154E+00    0.205E-01
RMM:   5    -0.239608057190E+02    0.15188E-02   -0.46730E-03    64   0.430E-01    0.776E-02
RMM:   6    -0.239614278370E+02   -0.62212E-03   -0.17277E-03    64   0.254E-01    0.650E-02
RMM:   7    -0.239615632007E+02   -0.13536E-03   -0.55888E-04    64   0.150E-01    0.199E-02
RMM:   8    -0.239617062653E+02   -0.14306E-03   -0.23140E-04    64   0.967E-02    0.341E-02
RMM:   9    -0.239617050076E+02    0.12577E-05   -0.16780E-04    64   0.777E-02    0.137E-02
RMM:  10    -0.239617228172E+02   -0.17810E-04   -0.28161E-05    64   0.328E-02    0.416E-03
RMM:  11    -0.239617338613E+02   -0.11044E-04   -0.10931E-05    64   0.197E-02    0.390E-03
RMM:  12    -0.239617396419E+02   -0.57806E-05   -0.34495E-06    60   0.116E-02    0.165E-03
RMM:  13    -0.239617441182E+02   -0.44762E-05   -0.66465E-07    48   0.549E-03    0.714E-04
RMM:  14    -0.239617456571E+02   -0.15389E-05   -0.14689E-07    48   0.273E-03    0.433E-04
RMM:  15    -0.239617461698E+02   -0.51266E-06   -0.42716E-08    40   0.164E-03
    9 T=   227. E= -.23812570E+02 F= -.23961746E+02 E0= -.23965624E+02  EK= 0.11755E+00 SP= 0.94E-02 SK= 0.22E-01
 bond charge predicted
 prediction of wavefunctions
       N       E                     dE             d eps       ncg     rms          rms(c)
DAV:   1    -0.239079277708E+02    0.53818E-01   -0.10125E+00    64   0.104E+01    0.606E-01
RMM:   2    -0.239118669080E+02   -0.39391E-02   -0.67392E-02    64   0.214E+00    0.471E-01
RMM:   3    -0.239132085251E+02   -0.13416E-02   -0.66569E-02    64   0.154E+00    0.459E-01
RMM:   4    -0.239092182823E+02    0.39902E-02   -0.42236E-02    64   0.123E+00    0.165E-01
RMM:   5    -0.239090745838E+02    0.14370E-03   -0.32579E-03    64   0.392E-01    0.101E-01
RMM:   6    -0.239092302633E+02   -0.15568E-03   -0.25967E-03    64   0.290E-01    0.316E-02
RMM:   7    -0.239093983196E+02   -0.16806E-03   -0.95687E-05    64   0.713E-02    0.222E-02
RMM:   8    -0.239095387447E+02   -0.14043E-03   -0.62076E-05    64   0.444E-02    0.945E-03
RMM:   9    -0.239096015822E+02   -0.62838E-04   -0.83132E-06    64   0.183E-02    0.614E-03
RMM:  10    -0.239096122230E+02   -0.10641E-04   -0.11101E-05    64   0.188E-02    0.205E-03
RMM:  11    -0.239096261337E+02   -0.13911E-04   -0.86831E-07    48   0.602E-03    0.151E-03
RMM:  12    -0.239096319826E+02   -0.58489E-05   -0.68782E-07    48   0.500E-03    0.604E-04
RMM:  13    -0.239096333491E+02   -0.13666E-05   -0.42098E-07    48   0.452E-03    0.957E-04
RMM:  14    -0.239096341331E+02   -0.78399E-06   -0.80089E-08    44   0.224E-03
   10 T=   135. E= -.23785981E+02 F= -.23909634E+02 E0= -.23913502E+02  EK= 0.69877E-01 SP= 0.16E-01 SK= 0.38E-01
 bond charge predicted
 prediction of wavefunctions
 wavefunctions rotated
