<?xml version="1.0" encoding="ISO-8859-1"?>
<modeling>
 <generator>
  <i name="program" type="string">vasp </i>
  <i name="version" type="string">5.4.4.18Apr17-6-g9f103f2a35  </i>
  <i name="subversion" type="string">(build Jul 12 2018 13:43:46) complex            parallel </i>
  <i name="platform" type="string">LinuxGNU </i>
  <i name="date" type="string">2019 06 22 </i>
  <i name="time" type="string">02:17:35 </i>
 </generator>
 <incar>
  <i type="int" name="ISTART">     0</i>
  <i type="string" name="PREC">a</i>
  <i type="string" name="ALGO">fast</i>
  <i type="int" name="MAXMIX">    50</i>
  <i type="int" name="ICHARG">     2</i>
  <i type="int" name="IBRION">     0</i>
  <i name="EDIFF">      0.00000100</i>
  <i type="int" name="NSW">    10</i>
  <i type="int" name="ISIF">     2</i>
  <i type="int" name="ISYM">     0</i>
  <i type="int" name="NBLOCK">     1</i>
  <i type="int" name="KBLOCK">   100</i>
  <i name="ENCUT">    400.00000000</i>
  <i name="POTIM">      2.00000000</i>
  <i name="TEBEG">     50.00000000</i>
  <i name="TEEND">     50.00000000</i>
  <i name="SMASS">      0.00000000</i>
  <i type="logical" name="LREAL"> T  </i>
  <i type="int" name="ISMEAR">     1</i>
  <i name="SIGMA">      0.20000000</i>
  <i name="KSPACING">      0.50000000</i>
  <i type="logical" name="KGAMMA"> F  </i>
  <i name="PSTRESS">      0.00000000</i>
  <i type="logical" name="LWAVE"> F  </i>
  <i type="logical" name="LCHARG"> F  </i>
  <v type="int" name="KPOINT_BSE">    -1     0     0     0</v>
 </incar>
 <structure name="primitive_cell" >
  <crystal>
   <varray name="basis" >
    <v>      10.14492809       0.00000000       0.00000000 </v>
    <v>      -0.11284345      10.01119822       0.00000000 </v>
    <v>       0.16851128      -0.25536943       9.85495617 </v>
   </varray>
   <i name="volume">   1000.89779011 </i>
   <varray name="rec_basis" >
    <v>       0.09857142       0.00111107      -0.00165670 </v>
    <v>      -0.00000000       0.09988814       0.00258838 </v>
    <v>       0.00000000      -0.00000000       0.10147179 </v>
   </varray>
  </crystal>
  <varray name="positions" >
   <v>      -0.46130661       0.40735271       0.35995054 </v>
   <v>      -0.49679792       0.46764359       0.44527841 </v>
   <v>      -0.44811112      -0.43477713       0.44283480 </v>
   <v>      -0.47233749       0.41688676      -0.46034391 </v>
   <v>       0.39417894       0.48074277       0.43838100 </v>
  </varray>
 </structure>
 <varray name="primitive_index" >
  <v type="int" >        1 </v>
  <v type="int" >        5 </v>
  <v type="int" >        3 </v>
  <v type="int" >        4 </v>
  <v type="int" >        2 </v>
 </varray>
 <kpoints>
  <generation param="Monkhorst-Pack">
   <v type="int" name="divisions">       2        2        2 </v>
   <v name="usershift">      0.00000000       0.00000000       0.00000000 </v>
   <v name="genvec1">      0.50000000       0.00000000       0.00000000 </v>
   <v name="genvec2">      0.00000000       0.50000000       0.00000000 </v>
   <v name="genvec3">      0.00000000       0.00000000       0.50000000 </v>
   <v name="shift">      0.50000000       0.50000000       0.50000000 </v>
  </generation>
  <varray name="kpointlist" >
   <v>       0.25000000       0.25000000       0.25000000 </v>
   <v>      -0.25000000       0.25000000       0.25000000 </v>
   <v>       0.25000000      -0.25000000       0.25000000 </v>
   <v>      -0.25000000      -0.25000000       0.25000000 </v>
  </varray>
  <varray name="weights" >
   <v>       0.25000000 </v>
   <v>       0.25000000 </v>
   <v>       0.25000000 </v>
   <v>       0.25000000 </v>
  </varray>
 </kpoints>
 <parameters>
  <separator name="general" >
   <i type="string" name="SYSTEM">unknown system</i>
   <i type="logical" name="LCOMPAT"> F  </i>
  </separator>
  <separator name="electronic" >
   <i type="string" name="PREC">a</i>
   <i name="ENMAX">    400.00000000</i>
   <i name="ENAUG">    644.87300000</i>
   <i name="EDIFF">      0.00000100</i>
   <i type="int" name="IALGO">    68</i>
   <i type="int" name="IWAVPR">    12</i>
   <i type="int" name="NBANDS">     8</i>
   <i name="NELECT">      8.00000000</i>
   <i type="int" name="TURBO">     0</i>
   <i type="int" name="IRESTART">     0</i>
   <i type="int" name="NREBOOT">     0</i>
   <i type="int" name="NMIN">     0</i>
   <i name="EREF">      0.00000000</i>
   <separator name="electronic smearing" >
    <i type="int" name="ISMEAR">     1</i>
    <i name="SIGMA">      0.20000000</i>
    <i name="KSPACING">      0.50000000</i>
    <i type="logical" name="KGAMMA"> F  </i>
   </separator>
   <separator name="electronic projectors" >
    <i type="logical" name="LREAL"> T  </i>
    <v name="ROPT">      0.00000000      0.00000000</v>
    <i type="int" name="LMAXPAW">  -100</i>
    <i type="int" name="LMAXMIX">     2</i>
    <i type="logical" name="NLSPLINE"> F  </i>
   </separator>
   <separator name="electronic startup" >
    <i type="int" name="ISTART">     0</i>
    <i type="int" name="ICHARG">     2</i>
    <i type="int" name="INIWAV">     1</i>
   </separator>
   <separator name="electronic spin" >
    <i type="int" name="ISPIN">     1</i>
    <i type="logical" name="LNONCOLLINEAR"> F  </i>
    <v name="MAGMOM">      1.00000000      1.00000000      1.00000000      1.00000000      1.00000000</v>
    <i name="NUPDOWN">     -1.00000000</i>
    <i type="logical" name="LSORBIT"> F  </i>
    <v name="SAXIS">      0.00000000      0.00000000      1.00000000</v>
    <i type="logical" name="LSPIRAL"> F  </i>
    <v name="QSPIRAL">      0.00000000      0.00000000      0.00000000</v>
    <i type="logical" name="LZEROZ"> F  </i>
   </separator>
   <separator name="electronic exchange-correlation" >
    <i type="logical" name="LASPH"> F  </i>
    <i type="logical" name="LMETAGGA"> F  </i>
   </separator>
   <separator name="electronic convergence" >
    <i type="int" name="NELM">    60</i>
    <i type="int" name="NELMDL">    -5</i>
    <i type="int" name="NELMIN">     2</i>
    <i name="ENINI">    400.00000000</i>
    <separator name="electronic convergence detail" >
     <i type="logical" name="LDIAG"> T  </i>
     <i type="logical" name="LSUBROT"> F  </i>
     <i name="WEIMIN">      0.00100000</i>
     <i name="EBREAK">      0.00000003</i>
     <i name="DEPER">      0.30000000</i>
     <i type="int" name="NRMM">     4</i>
     <i name="TIME">      0.40000000</i>
    </separator>
   </separator>
   <separator name="electronic mixer" >
    <i name="AMIX">      0.40000000</i>
    <i name="BMIX">      1.00000000</i>
    <i name="AMIN">      0.10000000</i>
    <i name="AMIX_MAG">      1.60000000</i>
    <i name="BMIX_MAG">      1.00000000</i>
    <separator name="electronic mixer details" >
     <i type="int" name="IMIX">     4</i>
     <i type="logical" name="MIXFIRST"> F  </i>
     <i type="int" name="MAXMIX">    50</i>
     <i name="WC">    100.00000000</i>
     <i type="int" name="INIMIX">     1</i>
     <i type="int" name="MIXPRE">     1</i>
     <i type="int" name="MREMOVE">     5</i>
    </separator>
   </separator>
   <separator name="electronic dipolcorrection" >
    <i type="logical" name="LDIPOL"> F  </i>
    <i type="logical" name="LMONO"> F  </i>
    <i type="int" name="IDIPOL">     0</i>
    <i name="EPSILON">      1.00000000</i>
    <v name="DIPOL">   -100.00000000   -100.00000000   -100.00000000</v>
    <i name="EFIELD">      0.00000000</i>
   </separator>
  </separator>
  <separator name="grids" >
   <i type="int" name="NGX">    70</i>
   <i type="int" name="NGY">    70</i>
   <i type="int" name="NGZ">    64</i>
   <i type="int" name="NGXF">   140</i>
   <i type="int" name="NGYF">   140</i>
   <i type="int" name="NGZF">   128</i>
   <i type="logical" name="ADDGRID"> F  </i>
  </separator>
  <separator name="ionic" >
   <i type="int" name="NSW">    10</i>
   <i type="int" name="IBRION">     0</i>
   <i type="int" name="MDALGO">     0</i>
   <i type="int" name="ISIF">     2</i>
   <i name="PSTRESS">      0.00000000</i>
   <i name="EDIFFG">      0.00001000</i>
   <i type="int" name="NFREE">     0</i>
   <i name="POTIM">      2.00000000</i>
   <i name="SMASS">      0.00157159</i>
   <i name="SCALEE">      1.00000000</i>
  </separator>
  <separator name="ionic md" >
   <i name="TEBEG">     50.00000000</i>
   <i name="TEEND">     50.00000000</i>
   <i type="int" name="NBLOCK">     1</i>
   <i type="int" name="KBLOCK">     1</i>
   <i type="int" name="NPACO">   256</i>
   <i name="APACO">     16.00000000</i>
  </separator>
  <separator name="symmetry" >
   <i type="int" name="ISYM">     0</i>
   <i name="SYMPREC">      0.00001000</i>
  </separator>
  <separator name="dos" >
   <i type="int" name="LORBIT">     0</i>
   <v name="RWIGS">     -1.00000000     -1.00000000</v>
   <i type="int" name="NEDOS">   301</i>
   <i name="EMIN">     10.00000000</i>
   <i name="EMAX">    -10.00000000</i>
   <i name="EFERMI">      0.00000000</i>
  </separator>
  <separator name="writing" >
   <i type="int" name="NWRITE">     2</i>
   <i type="logical" name="LWAVE"> F  </i>
   <i type="logical" name="LDOWNSAMPLE"> F  </i>
   <i type="logical" name="LCHARG"> F  </i>
   <i type="logical" name="LPARD"> F  </i>
   <i type="logical" name="LVTOT"> F  </i>
   <i type="logical" name="LVHAR"> F  </i>
   <i type="logical" name="LELF"> F  </i>
   <i type="logical" name="LOPTICS"> F  </i>
   <v name="STM">      0.00000000      0.00000000      0.00000000      0.00000000      0.00000000      0.00000000      0.00000000</v>
  </separator>
  <separator name="performance" >
   <i type="int" name="NPAR">     1</i>
   <i type="int" name="NSIM">     4</i>
   <i type="int" name="NBLK">    -1</i>
   <i type="logical" name="LPLANE"> T  </i>
   <i type="logical" name="LSCALAPACK"> T  </i>
   <i type="logical" name="LSCAAWARE"> F  </i>
   <i type="logical" name="LSCALU"> F  </i>
   <i type="logical" name="LASYNC"> F  </i>
   <i type="logical" name="LORBITALREAL"> F  </i>
  </separator>
  <separator name="miscellaneous" >
   <i type="int" name="IDIOT">     3</i>
   <i type="int" name="ISPECIAL">     0</i>
   <i type="logical" name="LMUSIC"> F  </i>
   <v name="POMASS">      1.00000000     12.01100000</v>
   <v name="DARWINR">      0.00000000      0.00000000</v>
   <v name="DARWINV">      1.00000000      1.00000000</v>
   <i type="logical" name="LCORR"> T  </i>
  </separator>
  <i type="logical" name="GGA_COMPAT"> T  </i>
  <i type="logical" name="LBERRY"> F  </i>
  <i type="int" name="ICORELEVEL">     0</i>
  <i type="logical" name="LDAU"> F  </i>
  <i type="int" name="I_CONSTRAINED_M">     0</i>
  <separator name="electronic exchange-correlation" >
   <i type="string" name="GGA">--</i>
   <i type="int" name="VOSKOWN">     0</i>
   <i type="logical" name="LHFCALC"> F  </i>
   <i type="string" name="PRECFOCK"></i>
   <i type="logical" name="LSYMGRAD"> F  </i>
   <i type="logical" name="LHFONE"> F  </i>
   <i type="logical" name="LRHFCALC"> F  </i>
   <i type="logical" name="LTHOMAS"> F  </i>
   <i type="logical" name="LMODELHF"> F  </i>
   <i name="ENCUT4O">     -1.00000000</i>
   <i type="int" name="EXXOEP">     0</i>
   <i type="int" name="FOURORBIT">     0</i>
   <i name="AEXX">      0.00000000</i>
   <i name="HFALPHA">      0.00000000</i>
   <i name="MCALPHA">      0.00000000</i>
   <i name="ALDAX">      1.00000000</i>
   <i name="AGGAX">      1.00000000</i>
   <i name="ALDAC">      1.00000000</i>
   <i name="AGGAC">      1.00000000</i>
   <i type="int" name="NKREDX">     1</i>
   <i type="int" name="NKREDY">     1</i>
   <i type="int" name="NKREDZ">     1</i>
   <i type="logical" name="SHIFTRED"> F  </i>
   <i type="logical" name="ODDONLY"> F  </i>
   <i type="logical" name="EVENONLY"> F  </i>
   <i type="int" name="LMAXFOCK">     0</i>
   <i type="int" name="NMAXFOCKAE">     0</i>
   <i type="logical" name="LFOCKAEDFT"> F  </i>
   <i name="HFSCREEN">      0.00000000</i>
   <i name="HFSCREENC">      0.00000000</i>
   <i type="int" name="NBANDSGWLOW">     0</i>
  </separator>
  <separator name="vdW DFT" >
   <i type="logical" name="LUSE_VDW"> F  </i>
   <i name="Zab_VDW">     -0.84910000</i>
   <i name="PARAM1">      0.12340000</i>
   <i name="PARAM2">      1.00000000</i>
   <i name="PARAM3">      0.00000000</i>
  </separator>
  <separator name="model GW" >
   <i type="int" name="MODEL_GW">     0</i>
   <i name="MODEL_EPS0">    120.10773481</i>
   <i name="MODEL_ALPHA">      1.00000000</i>
  </separator>
  <separator name="linear response parameters" >
   <i type="logical" name="LEPSILON"> F  </i>
   <i type="logical" name="LRPA"> F  </i>
   <i type="logical" name="LNABLA"> F  </i>
   <i type="logical" name="LVEL"> F  </i>
   <i type="int" name="KINTER">     0</i>
   <i name="CSHIFT">      0.10000000</i>
   <i name="OMEGAMAX">     -1.00000000</i>
   <i name="DEG_THRESHOLD">      0.00200000</i>
   <i name="RTIME">     -0.10000000</i>
   <i name="WPLASMAI">      0.00000000</i>
   <v name="DFIELD">      0.00000000      0.00000000      0.00000000</v>
   <v name="WPLASMA">      0.00000000      0.00000000      0.00000000      0.00000000      0.00000000      0.00000000      0.00000000      0.00000000      0.00000000</v>
  </separator>
  <separator name="orbital magnetization" >
   <i type="logical" name="NUCIND"> F  </i>
   <v name="MAGPOS">      0.00000000      0.00000000      0.00000000</v>
   <i type="logical" name="LNICSALL"> T  </i>
   <i type="logical" name="ORBITALMAG"> F  </i>
   <i type="logical" name="LMAGBLOCH"> F  </i>
   <i type="logical" name="LCHIMAG"> F  </i>
   <i type="logical" name="LGAUGE"> T  </i>
   <i type="int" name="MAGATOM">     0</i>
   <v name="MAGDIPOL">      0.00000000      0.00000000      0.00000000</v>
   <v name="AVECCONST">      0.00000000      0.00000000      0.00000000</v>
  </separator>
  <separator name="response functions" >
   <i type="logical" name="LADDER"> F  </i>
   <i type="logical" name="LRPAFORCE"> F  </i>
   <i type="logical" name="LFXC"> F  </i>
   <i type="logical" name="LHARTREE"> T  </i>
   <i type="int" name="IBSE">     0</i>
   <v type="int" name="KPOINT">    -1     0     0     0</v>
   <i type="logical" name="LTCTE"> F  </i>
   <i type="logical" name="LTETE"> F  </i>
   <i type="logical" name="LTRIPLET"> F  </i>
   <i type="logical" name="LFXCEPS"> F  </i>
   <i type="logical" name="LFXHEG"> F  </i>
   <i type="int" name="NATURALO">     2</i>
   <i type="logical" name="L2ORDER"> F  </i>
   <i type="logical" name="LMP2LT"> F  </i>
   <i type="logical" name="LUSEW"> F  </i>
   <i name="ENCUTGW">     -2.00000000</i>
   <i name="ENCUTGWSOFT">     -2.00000000</i>
   <i name="ENCUTLF">     -1.00000000</i>
   <i type="int" name="LMAXMP2">    -1</i>
   <i name="SCISSOR">      0.00000000</i>
   <i type="int" name="NOMEGA">     0</i>
   <i type="int" name="NOMEGAR">     0</i>
   <i type="int" name="NBANDSGW">    -1</i>
   <i type="int" name="NBANDSO">    -1</i>
   <i type="int" name="NBANDSV">    -1</i>
   <i type="int" name="NELM">     1</i>
   <i type="int" name="NELMHF">     1</i>
   <i type="int" name="DIM">     3</i>
   <i type="int" name="ANTIRES">     0</i>
   <i name="OMEGAMAX">    -30.00000000</i>
   <i name="OMEGAMIN">    -30.00000000</i>
   <i name="OMEGATL">   -200.00000000</i>
   <i type="int" name="OMEGAGRID">   140</i>
   <i name="CSHIFT">     -0.10000000</i>
   <i type="logical" name="SELFENERGY"> F  </i>
   <i type="logical" name="LSPECTRAL"> F  </i>
   <i type="logical" name="LSPECTRALGW"> F  </i>
   <i type="logical" name="LSINGLES"> F  </i>
   <i type="logical" name="LFERMIGW"> F  </i>
   <i type="logical" name="ODDONLYGW"> F  </i>
   <i type="logical" name="EVENONLYGW"> F  </i>
   <i type="int" name="NKREDLFX">     1</i>
   <i type="int" name="NKREDLFY">     1</i>
   <i type="int" name="NKREDLFZ">     1</i>
   <i type="int" name="MAXMEM">  2800</i>
   <i type="int" name="TELESCOPE">     0</i>
   <i type="int" name="TAUPAR">     1</i>
   <i type="int" name="OMEGAPAR">    -1</i>
   <i name="LAMBDA">      1.00000000</i>
  </separator>
  <separator name="External order field" >
   <i name="OFIELD_KAPPA">      0.00000000</i>
   <v name="OFIELD_K">      0.00000000      0.00000000      0.00000000</v>
   <i name="OFIELD_Q6_NEAR">      0.00000000</i>
   <i name="OFIELD_Q6_FAR">      0.00000000</i>
   <i name="OFIELD_A">      0.00000000</i>
  </separator>
 </parameters>
 <atominfo>
  <atoms>       5 </atoms>
  <types>       2 </types>
  <array name="atoms" >
   <dimension dim="1">ion</dimension>
   <field type="string">element</field>
   <field type="int">atomtype</field>
   <set>
    <rc><c>H </c><c>   1</c></rc>
    <rc><c>H </c><c>   1</c></rc>
    <rc><c>H </c><c>   1</c></rc>
    <rc><c>H </c><c>   1</c></rc>
    <rc><c>C </c><c>   2</c></rc>
   </set>
  </array>
  <array name="atomtypes" >
   <dimension dim="1">type</dimension>
   <field type="int">atomspertype</field>
   <field type="string">element</field>
   <field>mass</field>
   <field>valence</field>
   <field type="string">pseudopotential</field>
   <set>
    <rc><c>   4</c><c>H </c><c>      1.00000000</c><c>      1.00000000</c><c>  PAW_PBE H 15Jun2001                   </c></rc>
    <rc><c>   1</c><c>C </c><c>     12.01100000</c><c>      4.00000000</c><c>  PAW_PBE C 08Apr2002                   </c></rc>
   </set>
  </array>
 </atominfo>
 <structure name="initialpos" >
  <crystal>
   <varray name="basis" >
    <v>      10.14492809       0.00000000       0.00000000 </v>
    <v>      -0.11284345      10.01119822       0.00000000 </v>
    <v>       0.16851128      -0.25536943       9.85495617 </v>
   </varray>
   <i name="volume">   1000.89779011 </i>
   <varray name="rec_basis" >
    <v>       0.09857142       0.00111107      -0.00165670 </v>
    <v>      -0.00000000       0.09988814       0.00258838 </v>
    <v>       0.00000000      -0.00000000       0.10147179 </v>
   </varray>
  </crystal>
  <varray name="positions" >
   <v>       0.53869339       0.40735271       0.35995054 </v>
   <v>       0.39417894       0.48074277       0.43838100 </v>
   <v>       0.55188888       0.56522287       0.44283480 </v>
   <v>       0.52766251       0.41688676       0.53965609 </v>
   <v>       0.50320208       0.46764359       0.44527841 </v>
  </varray>
  <varray name="velocities" >
   <v>       0.00031464       0.00169318      -0.00078418 </v>
   <v>      -0.00143856       0.00021228      -0.00108043 </v>
   <v>      -0.00191234      -0.00081662      -0.00029245 </v>
   <v>       0.00042498       0.00113325      -0.00211602 </v>
   <v>       0.00021741      -0.00018500       0.00035576 </v>
  </varray>
 </structure>
 <calculation>
  <scstep>
   <time name="dav">    2.52    2.52</time>
   <time name="total">    4.23    4.24</time>
   <energy>
    <i name="alphaZ">      0.24203350 </i>
    <i name="ewald">    128.32754928 </i>
    <i name="hartreedc">   -243.79547103 </i>
    <i name="XCdc">     21.99882173 </i>
    <i name="pawpsdc">    117.05815612 </i>
    <i name="pawaedc">   -117.66307307 </i>
    <i name="eentropy">      0.00289895 </i>
    <i name="bandstr">    -89.49248378 </i>
    <i name="atom">    197.04175453 </i>
    <i name="e_fr_energy">     13.72018623 </i>
    <i name="e_wo_entrp">     13.71728728 </i>
    <i name="e_0_energy">     13.71921992 </i>
   </energy>
  </scstep>
  <scstep>
   <time name="dav">    1.78    1.79</time>
   <time name="total">    1.78    1.79</time>
   <energy>
    <i name="e_fr_energy">    -22.71902877 </i>
    <i name="e_wo_entrp">    -22.72192772 </i>
    <i name="e_0_energy">    -22.71999509 </i>
   </energy>
  </scstep>
  <scstep>
   <time name="dav">    1.79    1.80</time>
   <time name="total">    1.79    1.80</time>
   <energy>
    <i name="e_fr_energy">    -27.30605867 </i>
    <i name="e_wo_entrp">    -27.33955864 </i>
    <i name="e_0_energy">    -27.31722532 </i>
   </energy>
  </scstep>
  <scstep>
   <time name="dav">    3.23    3.24</time>
   <time name="total">    3.23    3.24</time>
   <energy>
    <i name="e_fr_energy">    -27.49016597 </i>
    <i name="e_wo_entrp">    -27.52552924 </i>
    <i name="e_0_energy">    -27.50195373 </i>
   </energy>
  </scstep>
  <scstep>
   <time name="dav">    2.30    2.31</time>
   <time name="total">    2.53    2.54</time>
   <energy>
    <i name="e_fr_energy">    -27.49023455 </i>
    <i name="e_wo_entrp">    -27.52559902 </i>
    <i name="e_0_energy">    -27.50202271 </i>
   </energy>
  </scstep>
  <scstep>
   <time name="diag">    0.37    0.37</time>
   <time name="diis">    1.30    1.30</time>
   <time name="orth">    0.01    0.01</time>
   <time name="total">    3.59    3.60</time>
   <energy>
    <i name="e_fr_energy">    -24.60740162 </i>
    <i name="e_wo_entrp">    -24.64564337 </i>
    <i name="e_0_energy">    -24.62014887 </i>
   </energy>
  </scstep>
  <scstep>
   <time name="diag">    0.38    0.38</time>
   <time name="diis">    1.28    1.29</time>
   <time name="orth">    0.01    0.01</time>
   <time name="total">    3.60    3.60</time>
   <energy>
    <i name="e_fr_energy">    -24.12606157 </i>
    <i name="e_wo_entrp">    -24.16667717 </i>
    <i name="e_0_energy">    -24.13960010 </i>
   </energy>
  </scstep>
  <scstep>
   <time name="diag">    0.38    0.38</time>
   <time name="diis">    1.29    1.30</time>
   <time name="orth">    0.01    0.01</time>
   <time name="total">    3.62    3.63</time>
   <energy>
    <i name="e_fr_energy">    -24.01587062 </i>
    <i name="e_wo_entrp">    -24.05656664 </i>
    <i name="e_0_energy">    -24.02943596 </i>
   </energy>
  </scstep>
  <scstep>
   <time name="diag">    0.40    0.40</time>
   <time name="diis">    1.26    1.27</time>
   <time name="orth">    0.01    0.01</time>
   <time name="total">    3.62    3.63</time>
   <energy>
    <i name="e_fr_energy">    -23.96754032 </i>
    <i name="e_wo_entrp">    -24.00456831 </i>
    <i name="e_0_energy">    -23.97988298 </i>
   </energy>
  </scstep>
  <scstep>
   <time name="diag">    0.40    0.40</time>
   <time name="diis">    1.32    1.32</time>
   <time name="orth">    0.01    0.01</time>
   <time name="total">    3.66    3.66</time>
   <energy>
    <i name="e_fr_energy">    -23.96480284 </i>
    <i name="e_wo_entrp">    -24.00146572 </i>
    <i name="e_0_energy">    -23.97702380 </i>
   </energy>
  </scstep>
  <scstep>
   <time name="diag">    0.39    0.39</time>
   <time name="diis">    1.36    1.36</time>
   <time name="orth">    0.01    0.01</time>
   <time name="total">    3.68    3.69</time>
   <energy>
    <i name="e_fr_energy">    -23.96400856 </i>
    <i name="e_wo_entrp">    -24.00039298 </i>
    <i name="e_0_energy">    -23.97613670 </i>
   </energy>
  </scstep>
  <scstep>
   <time name="diag">    0.39    0.39</time>
   <time name="diis">    1.38    1.39</time>
   <time name="orth">    0.01    0.01</time>
   <time name="total">    3.63    3.64</time>
   <energy>
    <i name="e_fr_energy">    -23.95974586 </i>
    <i name="e_wo_entrp">    -23.99612049 </i>
    <i name="e_0_energy">    -23.97187074 </i>
   </energy>
  </scstep>
  <scstep>
   <time name="diag">    0.37    0.37</time>
   <time name="diis">    1.39    1.39</time>
   <time name="orth">    0.01    0.01</time>
   <time name="total">    3.57    3.58</time>
   <energy>
    <i name="e_fr_energy">    -23.96346103 </i>
    <i name="e_wo_entrp">    -24.00022180 </i>
    <i name="e_0_energy">    -23.97571462 </i>
   </energy>
  </scstep>
  <scstep>
   <time name="diag">    0.37    0.37</time>
   <time name="diis">    1.37    1.37</time>
   <time name="orth">    0.01    0.01</time>
   <time name="total">    3.54    3.55</time>
   <energy>
    <i name="e_fr_energy">    -23.96579672 </i>
    <i name="e_wo_entrp">    -24.00211219 </i>
    <i name="e_0_energy">    -23.97790188 </i>
   </energy>
  </scstep>
  <scstep>
   <time name="diag">    0.39    0.39</time>
   <time name="diis">    1.34    1.35</time>
   <time name="orth">    0.01    0.01</time>
   <time name="total">    3.49    3.50</time>
   <energy>
    <i name="e_fr_energy">    -23.96949989 </i>
    <i name="e_wo_entrp">    -24.00582793 </i>
    <i name="e_0_energy">    -23.98160923 </i>
   </energy>
  </scstep>
  <scstep>
   <time name="diag">    0.39    0.39</time>
   <time name="diis">    1.35    1.35</time>
   <time name="orth">    0.01    0.01</time>
   <time name="total">    3.48    3.49</time>
   <energy>
    <i name="e_fr_energy">    -23.97118188 </i>
    <i name="e_wo_entrp">    -24.00773202 </i>
    <i name="e_0_energy">    -23.98336526 </i>
   </energy>
  </scstep>
  <scstep>
   <time name="diag">    0.39    0.39</time>
   <time name="diis">    1.35    1.36</time>
   <time name="orth">    0.01    0.01</time>
   <time name="total">    3.48    3.49</time>
   <energy>
    <i name="e_fr_energy">    -23.97162704 </i>
    <i name="e_wo_entrp">    -24.00793415 </i>
    <i name="e_0_energy">    -23.98372941 </i>
   </energy>
  </scstep>
  <scstep>
   <time name="diag">    0.39    0.39</time>
   <time name="diis">    1.41    1.41</time>
   <time name="orth">    0.01    0.01</time>
   <time name="total">    3.52    3.53</time>
   <energy>
    <i name="e_fr_energy">    -23.97192281 </i>
    <i name="e_wo_entrp">    -24.00824156 </i>
    <i name="e_0_energy">    -23.98402906 </i>
   </energy>
  </scstep>
  <scstep>
   <time name="diag">    0.39    0.39</time>
   <time name="diis">    1.39    1.39</time>
   <time name="orth">    0.01    0.01</time>
   <time name="total">    3.51    3.52</time>
   <energy>
    <i name="e_fr_energy">    -23.97207537 </i>
    <i name="e_wo_entrp">    -24.00837559 </i>
    <i name="e_0_energy">    -23.98417544 </i>
   </energy>
  </scstep>
  <scstep>
   <time name="diag">    0.36    0.37</time>
   <time name="diis">    1.29    1.29</time>
   <time name="orth">    0.01    0.01</time>
   <time name="total">    3.39    3.40</time>
   <energy>
    <i name="e_fr_energy">    -23.97209777 </i>
    <i name="e_wo_entrp">    -24.00840484 </i>
    <i name="e_0_energy">    -23.98420012 </i>
   </energy>
  </scstep>
  <scstep>
   <time name="diag">    0.36    0.36</time>
   <time name="diis">    1.28    1.28</time>
   <time name="orth">    0.01    0.01</time>
   <time name="total">    3.46    3.47</time>
   <energy>
    <i name="e_fr_energy">    -23.97211895 </i>
    <i name="e_wo_entrp">    -24.00842304 </i>
    <i name="e_0_energy">    -23.98422032 </i>
   </energy>
  </scstep>
  <scstep>
   <time name="diag">    0.37    0.37</time>
   <time name="diis">    1.01    1.01</time>
   <time name="orth">    0.01    0.01</time>
   <time name="total">    3.24    3.24</time>
   <energy>
    <i name="e_fr_energy">    -23.97212159 </i>
    <i name="e_wo_entrp">    -24.00842866 </i>
    <i name="e_0_energy">    -23.98422394 </i>
   </energy>
  </scstep>
  <scstep>
   <time name="diag">    0.37    0.37</time>
   <time name="diis">    1.00    1.00</time>
   <time name="orth">    0.01    0.01</time>
   <time name="total">    3.23    3.24</time>
   <energy>
    <i name="e_fr_energy">    -23.97212323 </i>
    <i name="e_wo_entrp">    -24.00843046 </i>
    <i name="e_0_energy">    -23.98422564 </i>
   </energy>
  </scstep>
  <scstep>
   <time name="diag">    0.37    0.37</time>
   <time name="diis">    0.99    0.99</time>
   <time name="orth">    0.01    0.01</time>
   <time name="total">    3.01    3.02</time>
   <energy>
    <i name="alphaZ">      0.24203350 </i>
    <i name="ewald">    128.32754928 </i>
    <i name="hartreedc">   -284.17225074 </i>
    <i name="XCdc">     24.72231198 </i>
    <i name="pawpsdc">    481.09827311 </i>
    <i name="pawaedc">   -481.88570263 </i>
    <i name="eentropy">      0.03630699 </i>
    <i name="bandstr">    -89.38239979 </i>
    <i name="atom">    197.04175453 </i>
    <i name="e_fr_energy">    -23.97212378 </i>
    <i name="e_wo_entrp">    -24.00843076 </i>
    <i name="e_0_energy">    -23.98422611 </i>
   </energy>
  </scstep>
  <structure>
   <crystal>
    <varray name="basis" >
     <v>      10.14492809       0.00000000       0.00000000 </v>
     <v>      -0.11284345      10.01119822       0.00000000 </v>
     <v>       0.16851128      -0.25536943       9.85495617 </v>
    </varray>
    <i name="volume">   1000.89779011 </i>
    <varray name="rec_basis" >
     <v>       0.09857142       0.00111107      -0.00165670 </v>
     <v>      -0.00000000       0.09988814       0.00258838 </v>
     <v>       0.00000000      -0.00000000       0.10147179 </v>
    </varray>
   </crystal>
   <varray name="positions" >
    <v>       0.53869339       0.40735271       0.35995054 </v>
    <v>       0.39417894       0.48074277       0.43838100 </v>
    <v>       0.55188888       0.56522287       0.44283480 </v>
    <v>       0.52766251       0.41688676       0.53965609 </v>
    <v>       0.50320208       0.46764359       0.44527841 </v>
   </varray>
  </structure>
  <varray name="forces" >
   <v>       0.27573476      -0.79629099      -0.16111726 </v>
   <v>       0.71310250       0.11211440       0.09298708 </v>
   <v>       0.45081145       0.88807836       0.22962217 </v>
   <v>       0.00228259       0.00210998       0.08067411 </v>
   <v>      -0.70032167       0.33716047      -0.22069463 </v>
  </varray>
  <varray name="stress" >
   <v>      -1.06087969       0.03403850       0.12617406 </v>
   <v>       0.03403850       0.99652531       0.69199055 </v>
   <v>       0.12617405       0.69199055      -0.13537882 </v>
  </varray>
  <energy>
   <i name="e_fr_energy">    -23.97212378 </i>
   <i name="e_wo_entrp">    -23.98422611 </i>
   <i name="e_0_energy">      0.03630699 </i>
   <i name="kinetic">      0.01499752 </i>
   <i name="lattice kinetic">      0.00000000 </i>
   <i name="nosepot">      0.00000000 </i>
   <i name="nosekinetic">      0.00001402 </i>
   <i name="total">    -23.95711224 </i>
  </energy>
  <dos>
   <i name="efermi">     -9.10082957 </i>
   <total>
    <array>
     <dimension dim="1">gridpoints</dimension>
     <dimension dim="2">spin</dimension>
     <field>energy</field>
     <field>total</field>
     <field>integrated</field>
     <set>
      <set comment="spin 1">
       <r>   -18.8640     0.0000     0.0000 </r>
       <r>   -18.7920     0.0000     0.0000 </r>
       <r>   -18.7201     0.0000     0.0000 </r>
       <r>   -18.6482     0.0000     0.0000 </r>
       <r>   -18.5763     0.0000     0.0000 </r>
       <r>   -18.5043    -0.0000    -0.0000 </r>
       <r>   -18.4324    -0.0000    -0.0000 </r>
       <r>   -18.3605    -0.0000    -0.0000 </r>
       <r>   -18.2885    -0.0000    -0.0000 </r>
       <r>   -18.2166    -0.0000    -0.0000 </r>
       <r>   -18.1447    -0.0000    -0.0000 </r>
       <r>   -18.0728    -0.0000    -0.0000 </r>
       <r>   -18.0008    -0.0000    -0.0000 </r>
       <r>   -17.9289    -0.0000    -0.0000 </r>
       <r>   -17.8570    -0.0000    -0.0000 </r>
       <r>   -17.7850    -0.0000    -0.0000 </r>
       <r>   -17.7131    -0.0000    -0.0000 </r>
       <r>   -17.6412    -0.0000    -0.0000 </r>
       <r>   -17.5693    -0.0001    -0.0000 </r>
       <r>   -17.4973    -0.0009    -0.0001 </r>
       <r>   -17.4254    -0.0063    -0.0005 </r>
       <r>   -17.3535    -0.0332    -0.0029 </r>
       <r>   -17.2815    -0.1250    -0.0119 </r>
       <r>   -17.2096    -0.3163    -0.0347 </r>
       <r>   -17.1377    -0.4316    -0.0657 </r>
       <r>   -17.0657     0.1895    -0.0521 </r>
       <r>   -16.9938     2.3661     0.1181 </r>
       <r>   -16.9219     5.7498     0.5317 </r>
       <r>   -16.8500     8.1513     1.1180 </r>
       <r>   -16.7780     7.5071     1.6580 </r>
       <r>   -16.7061     4.4000     1.9745 </r>
       <r>   -16.6342     1.3136     2.0690 </r>
       <r>   -16.5622    -0.2003     2.0545 </r>
       <r>   -16.4903    -0.4259     2.0239 </r>
       <r>   -16.4184    -0.2328     2.0072 </r>
       <r>   -16.3465    -0.0779     2.0016 </r>
       <r>   -16.2745    -0.0181     2.0003 </r>
       <r>   -16.2026    -0.0031     2.0000 </r>
       <r>   -16.1307    -0.0004     2.0000 </r>
       <r>   -16.0587    -0.0000     2.0000 </r>
       <r>   -15.9868    -0.0000     2.0000 </r>
       <r>   -15.9149    -0.0000     2.0000 </r>
       <r>   -15.8430    -0.0000     2.0000 </r>
       <r>   -15.7710    -0.0000     2.0000 </r>
       <r>   -15.6991    -0.0000     2.0000 </r>
       <r>   -15.6272    -0.0000     2.0000 </r>
       <r>   -15.5552     0.0000     2.0000 </r>
       <r>   -15.4833     0.0000     2.0000 </r>
       <r>   -15.4114     0.0000     2.0000 </r>
       <r>   -15.3395     0.0000     2.0000 </r>
       <r>   -15.2675     0.0000     2.0000 </r>
       <r>   -15.1956     0.0000     2.0000 </r>
       <r>   -15.1237     0.0000     2.0000 </r>
       <r>   -15.0517     0.0000     2.0000 </r>
       <r>   -14.9798     0.0000     2.0000 </r>
       <r>   -14.9079     0.0000     2.0000 </r>
       <r>   -14.8360     0.0000     2.0000 </r>
       <r>   -14.7640     0.0000     2.0000 </r>
       <r>   -14.6921     0.0000     2.0000 </r>
       <r>   -14.6202     0.0000     2.0000 </r>
       <r>   -14.5482     0.0000     2.0000 </r>
       <r>   -14.4763     0.0000     2.0000 </r>
       <r>   -14.4044     0.0000     2.0000 </r>
       <r>   -14.3325     0.0000     2.0000 </r>
       <r>   -14.2605     0.0000     2.0000 </r>
       <r>   -14.1886     0.0000     2.0000 </r>
       <r>   -14.1167     0.0000     2.0000 </r>
       <r>   -14.0447     0.0000     2.0000 </r>
       <r>   -13.9728     0.0000     2.0000 </r>
       <r>   -13.9009     0.0000     2.0000 </r>
       <r>   -13.8290     0.0000     2.0000 </r>
       <r>   -13.7570     0.0000     2.0000 </r>
       <r>   -13.6851     0.0000     2.0000 </r>
       <r>   -13.6132     0.0000     2.0000 </r>
       <r>   -13.5412     0.0000     2.0000 </r>
       <r>   -13.4693     0.0000     2.0000 </r>
       <r>   -13.3974     0.0000     2.0000 </r>
       <r>   -13.3255     0.0000     2.0000 </r>
       <r>   -13.2535     0.0000     2.0000 </r>
       <r>   -13.1816     0.0000     2.0000 </r>
       <r>   -13.1097     0.0000     2.0000 </r>
       <r>   -13.0377     0.0000     2.0000 </r>
       <r>   -12.9658     0.0000     2.0000 </r>
       <r>   -12.8939     0.0000     2.0000 </r>
       <r>   -12.8220     0.0000     2.0000 </r>
       <r>   -12.7500     0.0000     2.0000 </r>
       <r>   -12.6781     0.0000     2.0000 </r>
       <r>   -12.6062     0.0000     2.0000 </r>
       <r>   -12.5342     0.0000     2.0000 </r>
       <r>   -12.4623     0.0000     2.0000 </r>
       <r>   -12.3904     0.0000     2.0000 </r>
       <r>   -12.3185     0.0000     2.0000 </r>
       <r>   -12.2465     0.0000     2.0000 </r>
       <r>   -12.1746     0.0000     2.0000 </r>
       <r>   -12.1027     0.0000     2.0000 </r>
       <r>   -12.0307     0.0000     2.0000 </r>
       <r>   -11.9588     0.0000     2.0000 </r>
       <r>   -11.8869     0.0000     2.0000 </r>
       <r>   -11.8150     0.0000     2.0000 </r>
       <r>   -11.7430     0.0000     2.0000 </r>
       <r>   -11.6711     0.0000     2.0000 </r>
       <r>   -11.5992     0.0000     2.0000 </r>
       <r>   -11.5272     0.0000     2.0000 </r>
       <r>   -11.4553     0.0000     2.0000 </r>
       <r>   -11.3834     0.0000     2.0000 </r>
       <r>   -11.3115     0.0000     2.0000 </r>
       <r>   -11.2395     0.0000     2.0000 </r>
       <r>   -11.1676     0.0000     2.0000 </r>
       <r>   -11.0957     0.0000     2.0000 </r>
       <r>   -11.0237     0.0000     2.0000 </r>
       <r>   -10.9518    -0.0000     2.0000 </r>
       <r>   -10.8799    -0.0000     2.0000 </r>
       <r>   -10.8080    -0.0000     2.0000 </r>
       <r>   -10.7360    -0.0000     2.0000 </r>
       <r>   -10.6641    -0.0000     2.0000 </r>
       <r>   -10.5922    -0.0000     2.0000 </r>
       <r>   -10.5202    -0.0000     2.0000 </r>
       <r>   -10.4483    -0.0000     2.0000 </r>
       <r>   -10.3764    -0.0000     2.0000 </r>
       <r>   -10.3045    -0.0000     2.0000 </r>
       <r>   -10.2325    -0.0000     2.0000 </r>
       <r>   -10.1606    -0.0000     2.0000 </r>
       <r>   -10.0887    -0.0000     2.0000 </r>
       <r>   -10.0167    -0.0001     2.0000 </r>
       <r>    -9.9448    -0.0012     1.9999 </r>
       <r>    -9.8729    -0.0092     1.9992 </r>
       <r>    -9.8010    -0.0524     1.9955 </r>
       <r>    -9.7290    -0.2193     1.9797 </r>
       <r>    -9.6571    -0.6433     1.9334 </r>
       <r>    -9.5852    -1.1707     1.8492 </r>
       <r>    -9.5132    -0.5868     1.8070 </r>
       <r>    -9.4413     3.4797     2.0573 </r>
       <r>    -9.3694    12.0374     2.9231 </r>
       <r>    -9.2975    21.2358     4.4506 </r>
       <r>    -9.2255    24.1273     6.1860 </r>
       <r>    -9.1536    18.1728     7.4932 </r>
       <r>    -9.0817     8.4049     8.0977 </r>
       <r>    -9.0097     1.3661     8.1960 </r>
       <r>    -8.9378    -1.1024     8.1167 </r>
       <r>    -8.8659    -1.0120     8.0439 </r>
       <r>    -8.7939    -0.4477     8.0117 </r>
       <r>    -8.7220    -0.1308     8.0023 </r>
       <r>    -8.6501    -0.0273     8.0003 </r>
       <r>    -8.5782    -0.0042     8.0000 </r>
       <r>    -8.5062    -0.0005     8.0000 </r>
       <r>    -8.4343    -0.0000     8.0000 </r>
       <r>    -8.3624    -0.0000     8.0000 </r>
       <r>    -8.2904    -0.0000     8.0000 </r>
       <r>    -8.2185    -0.0000     8.0000 </r>
       <r>    -8.1466    -0.0000     8.0000 </r>
       <r>    -8.0747    -0.0000     8.0000 </r>
       <r>    -8.0027    -0.0000     8.0000 </r>
       <r>    -7.9308     0.0000     8.0000 </r>
       <r>    -7.8589     0.0000     8.0000 </r>
       <r>    -7.7869     0.0000     8.0000 </r>
       <r>    -7.7150     0.0000     8.0000 </r>
       <r>    -7.6431     0.0000     8.0000 </r>
       <r>    -7.5712     0.0000     8.0000 </r>
       <r>    -7.4992     0.0000     8.0000 </r>
       <r>    -7.4273     0.0000     8.0000 </r>
       <r>    -7.3554     0.0000     8.0000 </r>
       <r>    -7.2834     0.0000     8.0000 </r>
       <r>    -7.2115     0.0000     8.0000 </r>
       <r>    -7.1396     0.0000     8.0000 </r>
       <r>    -7.0677     0.0000     8.0000 </r>
       <r>    -6.9957     0.0000     8.0000 </r>
       <r>    -6.9238     0.0000     8.0000 </r>
       <r>    -6.8519     0.0000     8.0000 </r>
       <r>    -6.7799     0.0000     8.0000 </r>
       <r>    -6.7080     0.0000     8.0000 </r>
       <r>    -6.6361     0.0000     8.0000 </r>
       <r>    -6.5642     0.0000     8.0000 </r>
       <r>    -6.4922     0.0000     8.0000 </r>
       <r>    -6.4203     0.0000     8.0000 </r>
       <r>    -6.3484     0.0000     8.0000 </r>
       <r>    -6.2764     0.0000     8.0000 </r>
       <r>    -6.2045     0.0000     8.0000 </r>
       <r>    -6.1326     0.0000     8.0000 </r>
       <r>    -6.0607     0.0000     8.0000 </r>
       <r>    -5.9887     0.0000     8.0000 </r>
       <r>    -5.9168     0.0000     8.0000 </r>
       <r>    -5.8449     0.0000     8.0000 </r>
       <r>    -5.7729     0.0000     8.0000 </r>
       <r>    -5.7010     0.0000     8.0000 </r>
       <r>    -5.6291     0.0000     8.0000 </r>
       <r>    -5.5572     0.0000     8.0000 </r>
       <r>    -5.4852     0.0000     8.0000 </r>
       <r>    -5.4133     0.0000     8.0000 </r>
       <r>    -5.3414     0.0000     8.0000 </r>
       <r>    -5.2694     0.0000     8.0000 </r>
       <r>    -5.1975     0.0000     8.0000 </r>
       <r>    -5.1256     0.0000     8.0000 </r>
       <r>    -5.0537     0.0000     8.0000 </r>
       <r>    -4.9817     0.0000     8.0000 </r>
       <r>    -4.9098     0.0000     8.0000 </r>
       <r>    -4.8379     0.0000     8.0000 </r>
       <r>    -4.7659     0.0000     8.0000 </r>
       <r>    -4.6940     0.0000     8.0000 </r>
       <r>    -4.6221     0.0000     8.0000 </r>
       <r>    -4.5502     0.0000     8.0000 </r>
       <r>    -4.4782     0.0000     8.0000 </r>
       <r>    -4.4063     0.0000     8.0000 </r>
       <r>    -4.3344     0.0000     8.0000 </r>
       <r>    -4.2624     0.0000     8.0000 </r>
       <r>    -4.1905     0.0000     8.0000 </r>
       <r>    -4.1186     0.0000     8.0000 </r>
       <r>    -4.0467     0.0000     8.0000 </r>
       <r>    -3.9747     0.0000     8.0000 </r>
       <r>    -3.9028     0.0000     8.0000 </r>
       <r>    -3.8309     0.0000     8.0000 </r>
       <r>    -3.7589     0.0000     8.0000 </r>
       <r>    -3.6870     0.0000     8.0000 </r>
       <r>    -3.6151     0.0000     8.0000 </r>
       <r>    -3.5432     0.0000     8.0000 </r>
       <r>    -3.4712     0.0000     8.0000 </r>
       <r>    -3.3993     0.0000     8.0000 </r>
       <r>    -3.3274     0.0000     8.0000 </r>
       <r>    -3.2554     0.0000     8.0000 </r>
       <r>    -3.1835     0.0000     8.0000 </r>
       <r>    -3.1116     0.0000     8.0000 </r>
       <r>    -3.0397     0.0000     8.0000 </r>
       <r>    -2.9677     0.0000     8.0000 </r>
       <r>    -2.8958     0.0000     8.0000 </r>
       <r>    -2.8239     0.0000     8.0000 </r>
       <r>    -2.7519     0.0000     8.0000 </r>
       <r>    -2.6800     0.0000     8.0000 </r>
       <r>    -2.6081     0.0000     8.0000 </r>
       <r>    -2.5362     0.0000     8.0000 </r>
       <r>    -2.4642     0.0000     8.0000 </r>
       <r>    -2.3923     0.0000     8.0000 </r>
       <r>    -2.3204     0.0000     8.0000 </r>
       <r>    -2.2484     0.0000     8.0000 </r>
       <r>    -2.1765     0.0000     8.0000 </r>
       <r>    -2.1046     0.0000     8.0000 </r>
       <r>    -2.0327     0.0000     8.0000 </r>
       <r>    -1.9607    -0.0000     8.0000 </r>
       <r>    -1.8888    -0.0000     8.0000 </r>
       <r>    -1.8169    -0.0000     8.0000 </r>
       <r>    -1.7449    -0.0000     8.0000 </r>
       <r>    -1.6730    -0.0000     8.0000 </r>
       <r>    -1.6011    -0.0000     8.0000 </r>
       <r>    -1.5292    -0.0000     8.0000 </r>
       <r>    -1.4572    -0.0000     8.0000 </r>
       <r>    -1.3853    -0.0000     8.0000 </r>
       <r>    -1.3134    -0.0000     8.0000 </r>
       <r>    -1.2414    -0.0000     8.0000 </r>
       <r>    -1.1695    -0.0000     8.0000 </r>
       <r>    -1.0976    -0.0000     8.0000 </r>
       <r>    -1.0257    -0.0001     8.0000 </r>
       <r>    -0.9537    -0.0008     7.9999 </r>
       <r>    -0.8818    -0.0059     7.9995 </r>
       <r>    -0.8099    -0.0313     7.9973 </r>
       <r>    -0.7379    -0.1192     7.9887 </r>
       <r>    -0.6660    -0.3072     7.9666 </r>
       <r>    -0.5941    -0.4346     7.9353 </r>
       <r>    -0.5221     0.1375     7.9452 </r>
       <r>    -0.4502     2.2423     8.1065 </r>
       <r>    -0.3783     5.6074     8.5098 </r>
       <r>    -0.3064     8.1018     9.0926 </r>
       <r>    -0.2344     7.5958     9.6389 </r>
       <r>    -0.1625     4.5475     9.9660 </r>
       <r>    -0.0906     1.4161    10.0679 </r>
       <r>    -0.0186    -0.1719    10.0555 </r>
       <r>     0.0533    -0.4543    10.0229 </r>
       <r>     0.1252    -0.3484     9.9978 </r>
       <r>     0.1971    -0.4166     9.9678 </r>
       <r>     0.2691    -0.7216     9.9159 </r>
       <r>     0.3410    -0.7374     9.8629 </r>
       <r>     0.4129     0.8380     9.9232 </r>
       <r>     0.4849     5.4324    10.3139 </r>
       <r>     0.5568    12.7626    11.2319 </r>
       <r>     0.6287    19.5763    12.6400 </r>
       <r>     0.7006    21.4050    14.1796 </r>
       <r>     0.7726    16.6867    15.3799 </r>
       <r>     0.8445     8.6666    16.0033 </r>
       <r>     0.9164     2.2018    16.1616 </r>
       <r>     0.9884    -0.6239    16.1168 </r>
       <r>     1.0603    -0.9256    16.0502 </r>
       <r>     1.1322    -0.4881    16.0151 </r>
       <r>     1.2041    -0.1635    16.0033 </r>
       <r>     1.2761    -0.0386    16.0006 </r>
       <r>     1.3480    -0.0067    16.0001 </r>
       <r>     1.4199    -0.0009    16.0000 </r>
       <r>     1.4919    -0.0001    16.0000 </r>
       <r>     1.5638    -0.0000    16.0000 </r>
       <r>     1.6357    -0.0000    16.0000 </r>
       <r>     1.7076    -0.0000    16.0000 </r>
       <r>     1.7796    -0.0000    16.0000 </r>
       <r>     1.8515    -0.0000    16.0000 </r>
       <r>     1.9234    -0.0000    16.0000 </r>
       <r>     1.9954    -0.0000    16.0000 </r>
       <r>     2.0673     0.0000    16.0000 </r>
       <r>     2.1392     0.0000    16.0000 </r>
       <r>     2.2111     0.0000    16.0000 </r>
       <r>     2.2831     0.0000    16.0000 </r>
       <r>     2.3550     0.0000    16.0000 </r>
       <r>     2.4269     0.0000    16.0000 </r>
       <r>     2.4989     0.0000    16.0000 </r>
       <r>     2.5708     0.0000    16.0000 </r>
       <r>     2.6427     0.0000    16.0000 </r>
       <r>     2.7146     0.0000    16.0000 </r>
      </set>
     </set>
    </array>
   </total>
  </dos>
  <time name="totalsc">   86.93   87.14</time>
 </calculation>
 <calculation>
  <scstep>
   <time name="dav">    1.73    1.74</time>
   <time name="total">    3.58    3.59</time>
   <energy>
    <i name="alphaZ">      0.24203350 </i>
    <i name="ewald">    127.49702705 </i>
    <i name="hartreedc">   -283.69050496 </i>
    <i name="XCdc">     24.69770950 </i>
    <i name="pawpsdc">    481.10157700 </i>
    <i name="pawaedc">   -481.88899977 </i>
    <i name="eentropy">      0.02578958 </i>
    <i name="bandstr">    -89.01037343 </i>
    <i name="atom">    197.04175453 </i>
    <i name="e_fr_energy">    -23.98398700 </i>
    <i name="e_wo_entrp">    -24.00977659 </i>
    <i name="e_0_energy">    -23.99258353 </i>
   </energy>
  </scstep>
  <scstep>
   <time name="diag">    0.37    0.37</time>
   <time name="diis">    1.28    1.28</time>
   <time name="orth">    0.01    0.01</time>
   <time name="total">    3.39    3.40</time>
   <energy>
    <i name="e_fr_energy">    -23.98493238 </i>
    <i name="e_wo_entrp">    -24.01101263 </i>
    <i name="e_0_energy">    -23.99362580 </i>
   </energy>
  </scstep>
  <scstep>
   <time name="diag">    0.41    0.41</time>
   <time name="diis">    1.31    1.31</time>
   <time name="orth">    0.01    0.01</time>
   <time name="total">    3.51    3.52</time>
   <energy>
    <i name="e_fr_energy">    -23.97786045 </i>
    <i name="e_wo_entrp">    -24.00659273 </i>
    <i name="e_0_energy">    -23.98743788 </i>
   </energy>
  </scstep>
  <scstep>
   <time name="diag">    0.38    0.38</time>
   <time name="diis">    1.37    1.37</time>
   <time name="orth">    0.01    0.01</time>
   <time name="total">    3.51    3.51</time>
   <energy>
    <i name="e_fr_energy">    -23.97887077 </i>
    <i name="e_wo_entrp">    -24.00874253 </i>
    <i name="e_0_energy">    -23.98882802 </i>
   </energy>
  </scstep>
  <scstep>
   <time name="diag">    0.39    0.39</time>
   <time name="diis">    1.39    1.39</time>
   <time name="orth">    0.01    0.01</time>
   <time name="total">    3.55    3.56</time>
   <energy>
    <i name="e_fr_energy">    -23.98139740 </i>
    <i name="e_wo_entrp">    -24.01125641 </i>
    <i name="e_0_energy">    -23.99135040 </i>
   </energy>
  </scstep>
  <scstep>
   <time name="diag">    0.38    0.38</time>
   <time name="diis">    1.37    1.37</time>
   <time name="orth">    0.01    0.01</time>
   <time name="total">    3.53    3.54</time>
   <energy>
    <i name="e_fr_energy">    -23.98119975 </i>
    <i name="e_wo_entrp">    -24.01085785 </i>
    <i name="e_0_energy">    -23.99108578 </i>
   </energy>
  </scstep>
  <scstep>
   <time name="diag">    0.37    0.37</time>
   <time name="diis">    1.38    1.39</time>
   <time name="orth">    0.01    0.01</time>
   <time name="total">    3.53    3.54</time>
   <energy>
    <i name="e_fr_energy">    -23.98131857 </i>
    <i name="e_wo_entrp">    -24.01062110 </i>
    <i name="e_0_energy">    -23.99108608 </i>
   </energy>
  </scstep>
  <scstep>
   <time name="diag">    0.38    0.39</time>
   <time name="diis">    1.38    1.38</time>
   <time name="orth">    0.01    0.01</time>
   <time name="total">    3.55    3.56</time>
   <energy>
    <i name="e_fr_energy">    -23.98145382 </i>
    <i name="e_wo_entrp">    -24.01061187 </i>
    <i name="e_0_energy">    -23.99117317 </i>
   </energy>
  </scstep>
  <scstep>
   <time name="diag">    0.39    0.39</time>
   <time name="diis">    1.32    1.33</time>
   <time name="orth">    0.01    0.01</time>
   <time name="total">    3.52    3.53</time>
   <energy>
    <i name="e_fr_energy">    -23.98156765 </i>
    <i name="e_wo_entrp">    -24.01051812 </i>
    <i name="e_0_energy">    -23.99121781 </i>
   </energy>
  </scstep>
  <scstep>
   <time name="diag">    0.38    0.38</time>
   <time name="diis">    1.19    1.19</time>
   <time name="orth">    0.01    0.01</time>
   <time name="total">    3.38    3.39</time>
   <energy>
    <i name="e_fr_energy">    -23.98159006 </i>
    <i name="e_wo_entrp">    -24.01049795 </i>
    <i name="e_0_energy">    -23.99122602 </i>
   </energy>
  </scstep>
  <scstep>
   <time name="diag">    0.39    0.39</time>
   <time name="diis">    1.23    1.23</time>
   <time name="orth">    0.01    0.01</time>
   <time name="total">    3.48    3.49</time>
   <energy>
    <i name="e_fr_energy">    -23.98160015 </i>
    <i name="e_wo_entrp">    -24.01053168 </i>
    <i name="e_0_energy">    -23.99124399 </i>
   </energy>
  </scstep>
  <scstep>
   <time name="diag">    0.40    0.40</time>
   <time name="diis">    1.03    1.03</time>
   <time name="orth">    0.01    0.01</time>
   <time name="total">    3.28    3.29</time>
   <energy>
    <i name="e_fr_energy">    -23.98160483 </i>
    <i name="e_wo_entrp">    -24.01055232 </i>
    <i name="e_0_energy">    -23.99125399 </i>
   </energy>
  </scstep>
  <scstep>
   <time name="diag">    0.40    0.40</time>
   <time name="diis">    1.06    1.06</time>
   <time name="orth">    0.01    0.01</time>
   <time name="total">    3.40    3.40</time>
   <energy>
    <i name="e_fr_energy">    -23.98160806 </i>
    <i name="e_wo_entrp">    -24.01057478 </i>
    <i name="e_0_energy">    -23.99126363 </i>
   </energy>
  </scstep>
  <scstep>
   <time name="diag">    0.37    0.37</time>
   <time name="diis">    1.07    1.08</time>
   <time name="orth">    0.01    0.01</time>
   <time name="total">    3.08    3.09</time>
   <energy>
    <i name="alphaZ">      0.24203350 </i>
    <i name="ewald">    127.49702705 </i>
    <i name="hartreedc">   -283.43827462 </i>
    <i name="XCdc">     24.68320647 </i>
    <i name="pawpsdc">    477.10466502 </i>
    <i name="pawaedc">   -477.88929160 </i>
    <i name="eentropy">      0.02897637 </i>
    <i name="bandstr">    -89.25170575 </i>
    <i name="atom">    197.04175453 </i>
    <i name="e_fr_energy">    -23.98160903 </i>
    <i name="e_wo_entrp">    -24.01058540 </i>
    <i name="e_0_energy">    -23.99126782 </i>
   </energy>
  </scstep>
  <structure>
   <crystal>
    <varray name="basis" >
     <v>      10.14492809       0.00000000       0.00000000 </v>
     <v>      -0.11284345      10.01119822       0.00000000 </v>
     <v>       0.16851128      -0.25536943       9.85495617 </v>
    </varray>
    <i name="volume">   1000.89779011 </i>
    <varray name="rec_basis" >
     <v>       0.09857142       0.00111107      -0.00165670 </v>
     <v>      -0.00000000       0.09988814       0.00258838 </v>
     <v>       0.00000000      -0.00000000       0.10147179 </v>
    </varray>
   </crystal>
   <varray name="positions" >
    <v>       0.53985749       0.40582932       0.35852729 </v>
    <v>       0.39527406       0.48126658       0.43765714 </v>
    <v>       0.55153444       0.56772408       0.44343676 </v>
    <v>       0.52791441       0.41790807       0.53784568 </v>
    <v>       0.50302253       0.46743353       0.44555778 </v>
   </varray>
  </structure>
  <varray name="forces" >
   <v>       0.25079744       0.10773033       0.06463503 </v>
   <v>      -0.03034546      -0.12162868       0.29765864 </v>
   <v>       0.48790025       0.44166645       0.88193005 </v>
   <v>       0.05878408      -0.05979426       0.62232527 </v>
   <v>      -0.28082049       0.62984381      -1.23429237 </v>
  </varray>
  <varray name="stress" >
   <v>      -0.17048885       0.16903997       0.61818337 </v>
   <v>       0.16903997      -0.42769663      -0.06962858 </v>
   <v>       0.61818337      -0.06962858       0.80689951 </v>
  </varray>
  <energy>
   <i name="e_fr_energy">    -23.98160903 </i>
   <i name="e_wo_entrp">    -23.99126782 </i>
   <i name="e_0_energy">      0.02897637 </i>
   <i name="kinetic">      0.03346841 </i>
   <i name="lattice kinetic">      0.00000000 </i>
   <i name="nosepot">     -0.00026818 </i>
   <i name="nosekinetic">      0.00002390 </i>
   <i name="total">    -23.94838490 </i>
  </energy>
  <dos>
   <i name="efermi">     -9.02542298 </i>
   <total>
    <array>
     <dimension dim="1">gridpoints</dimension>
     <dimension dim="2">spin</dimension>
     <field>energy</field>
     <field>total</field>
     <field>integrated</field>
     <set>
      <set comment="spin 1">
       <r>   -18.8357     0.0000     0.0000 </r>
       <r>   -18.7638     0.0000     0.0000 </r>
       <r>   -18.6920     0.0000     0.0000 </r>
       <r>   -18.6202     0.0000     0.0000 </r>
       <r>   -18.5484     0.0000     0.0000 </r>
       <r>   -18.4765    -0.0000    -0.0000 </r>
       <r>   -18.4047    -0.0000    -0.0000 </r>
       <r>   -18.3329    -0.0000    -0.0000 </r>
       <r>   -18.2610    -0.0000    -0.0000 </r>
       <r>   -18.1892    -0.0000    -0.0000 </r>
       <r>   -18.1174    -0.0000    -0.0000 </r>
       <r>   -18.0455    -0.0000    -0.0000 </r>
       <r>   -17.9737    -0.0000    -0.0000 </r>
       <r>   -17.9019    -0.0000    -0.0000 </r>
       <r>   -17.8301    -0.0000    -0.0000 </r>
       <r>   -17.7582    -0.0000    -0.0000 </r>
       <r>   -17.6864    -0.0000    -0.0000 </r>
       <r>   -17.6146    -0.0000    -0.0000 </r>
       <r>   -17.5427    -0.0001    -0.0000 </r>
       <r>   -17.4709    -0.0008    -0.0001 </r>
       <r>   -17.3991    -0.0060    -0.0005 </r>
       <r>   -17.3273    -0.0319    -0.0028 </r>
       <r>   -17.2554    -0.1208    -0.0115 </r>
       <r>   -17.1836    -0.3096    -0.0337 </r>
       <r>   -17.1118    -0.4346    -0.0649 </r>
       <r>   -17.0399     0.1463    -0.0544 </r>
       <r>   -16.9681     2.2613     0.1080 </r>
       <r>   -16.8963     5.6269     0.5122 </r>
       <r>   -16.8244     8.1097     1.0947 </r>
       <r>   -16.7526     7.5925     1.6401 </r>
       <r>   -16.6808     4.5427     1.9664 </r>
       <r>   -16.6090     1.4150     2.0680 </r>
       <r>   -16.5371    -0.1679     2.0560 </r>
       <r>   -16.4653    -0.4304     2.0250 </r>
       <r>   -16.3935    -0.2424     2.0076 </r>
       <r>   -16.3216    -0.0828     2.0017 </r>
       <r>   -16.2498    -0.0196     2.0003 </r>
       <r>   -16.1780    -0.0034     2.0000 </r>
       <r>   -16.1061    -0.0004     2.0000 </r>
       <r>   -16.0343    -0.0000     2.0000 </r>
       <r>   -15.9625    -0.0000     2.0000 </r>
       <r>   -15.8907    -0.0000     2.0000 </r>
       <r>   -15.8188    -0.0000     2.0000 </r>
       <r>   -15.7470    -0.0000     2.0000 </r>
       <r>   -15.6752    -0.0000     2.0000 </r>
       <r>   -15.6033    -0.0000     2.0000 </r>
       <r>   -15.5315     0.0000     2.0000 </r>
       <r>   -15.4597     0.0000     2.0000 </r>
       <r>   -15.3879     0.0000     2.0000 </r>
       <r>   -15.3160     0.0000     2.0000 </r>
       <r>   -15.2442     0.0000     2.0000 </r>
       <r>   -15.1724     0.0000     2.0000 </r>
       <r>   -15.1005     0.0000     2.0000 </r>
       <r>   -15.0287     0.0000     2.0000 </r>
       <r>   -14.9569     0.0000     2.0000 </r>
       <r>   -14.8850     0.0000     2.0000 </r>
       <r>   -14.8132     0.0000     2.0000 </r>
       <r>   -14.7414     0.0000     2.0000 </r>
       <r>   -14.6696     0.0000     2.0000 </r>
       <r>   -14.5977     0.0000     2.0000 </r>
       <r>   -14.5259     0.0000     2.0000 </r>
       <r>   -14.4541     0.0000     2.0000 </r>
       <r>   -14.3822     0.0000     2.0000 </r>
       <r>   -14.3104     0.0000     2.0000 </r>
       <r>   -14.2386     0.0000     2.0000 </r>
       <r>   -14.1667     0.0000     2.0000 </r>
       <r>   -14.0949     0.0000     2.0000 </r>
       <r>   -14.0231     0.0000     2.0000 </r>
       <r>   -13.9513     0.0000     2.0000 </r>
       <r>   -13.8794     0.0000     2.0000 </r>
       <r>   -13.8076     0.0000     2.0000 </r>
       <r>   -13.7358     0.0000     2.0000 </r>
       <r>   -13.6639     0.0000     2.0000 </r>
       <r>   -13.5921     0.0000     2.0000 </r>
       <r>   -13.5203     0.0000     2.0000 </r>
       <r>   -13.4485     0.0000     2.0000 </r>
       <r>   -13.3766     0.0000     2.0000 </r>
       <r>   -13.3048     0.0000     2.0000 </r>
       <r>   -13.2330     0.0000     2.0000 </r>
       <r>   -13.1611     0.0000     2.0000 </r>
       <r>   -13.0893     0.0000     2.0000 </r>
       <r>   -13.0175     0.0000     2.0000 </r>
       <r>   -12.9456     0.0000     2.0000 </r>
       <r>   -12.8738     0.0000     2.0000 </r>
       <r>   -12.8020     0.0000     2.0000 </r>
       <r>   -12.7302     0.0000     2.0000 </r>
       <r>   -12.6583     0.0000     2.0000 </r>
       <r>   -12.5865     0.0000     2.0000 </r>
       <r>   -12.5147     0.0000     2.0000 </r>
       <r>   -12.4428     0.0000     2.0000 </r>
       <r>   -12.3710     0.0000     2.0000 </r>
       <r>   -12.2992     0.0000     2.0000 </r>
       <r>   -12.2273     0.0000     2.0000 </r>
       <r>   -12.1555     0.0000     2.0000 </r>
       <r>   -12.0837     0.0000     2.0000 </r>
       <r>   -12.0119     0.0000     2.0000 </r>
       <r>   -11.9400     0.0000     2.0000 </r>
       <r>   -11.8682     0.0000     2.0000 </r>
       <r>   -11.7964     0.0000     2.0000 </r>
       <r>   -11.7245     0.0000     2.0000 </r>
       <r>   -11.6527     0.0000     2.0000 </r>
       <r>   -11.5809     0.0000     2.0000 </r>
       <r>   -11.5091     0.0000     2.0000 </r>
       <r>   -11.4372     0.0000     2.0000 </r>
       <r>   -11.3654     0.0000     2.0000 </r>
       <r>   -11.2936     0.0000     2.0000 </r>
       <r>   -11.2217     0.0000     2.0000 </r>
       <r>   -11.1499     0.0000     2.0000 </r>
       <r>   -11.0781    -0.0000     2.0000 </r>
       <r>   -11.0062    -0.0000     2.0000 </r>
       <r>   -10.9344    -0.0000     2.0000 </r>
       <r>   -10.8626    -0.0000     2.0000 </r>
       <r>   -10.7908    -0.0000     2.0000 </r>
       <r>   -10.7189    -0.0000     2.0000 </r>
       <r>   -10.6471    -0.0000     2.0000 </r>
       <r>   -10.5753    -0.0000     2.0000 </r>
       <r>   -10.5034    -0.0000     2.0000 </r>
       <r>   -10.4316    -0.0000     2.0000 </r>
       <r>   -10.3598    -0.0000     2.0000 </r>
       <r>   -10.2879    -0.0000     2.0000 </r>
       <r>   -10.2161    -0.0000     2.0000 </r>
       <r>   -10.1443    -0.0000     2.0000 </r>
       <r>   -10.0725    -0.0004     2.0000 </r>
       <r>   -10.0006    -0.0028     1.9998 </r>
       <r>    -9.9288    -0.0170     1.9985 </r>
       <r>    -9.8570    -0.0745     1.9932 </r>
       <r>    -9.7851    -0.2295     1.9767 </r>
       <r>    -9.7133    -0.4528     1.9442 </r>
       <r>    -9.6415    -0.3719     1.9175 </r>
       <r>    -9.5697     0.7733     1.9730 </r>
       <r>    -9.4978     3.4042     2.2175 </r>
       <r>    -9.4260     6.8859     2.7121 </r>
       <r>    -9.3542    10.4229     3.4608 </r>
       <r>    -9.2823    14.0751     4.4718 </r>
       <r>    -9.2105    17.0788     5.6986 </r>
       <r>    -9.1387    16.7049     6.8985 </r>
       <r>    -9.0668    11.7039     7.7392 </r>
       <r>    -8.9950     5.0199     8.0998 </r>
       <r>    -8.9232     0.5383     8.1384 </r>
       <r>    -8.8514    -0.8645     8.0763 </r>
       <r>    -8.7795    -0.6831     8.0273 </r>
       <r>    -8.7077    -0.2830     8.0069 </r>
       <r>    -8.6359    -0.0784     8.0013 </r>
       <r>    -8.5640    -0.0156     8.0002 </r>
       <r>    -8.4922    -0.0023     8.0000 </r>
       <r>    -8.4204    -0.0002     8.0000 </r>
       <r>    -8.3485    -0.0000     8.0000 </r>
       <r>    -8.2767    -0.0000     8.0000 </r>
       <r>    -8.2049    -0.0000     8.0000 </r>
       <r>    -8.1331    -0.0000     8.0000 </r>
       <r>    -8.0612    -0.0000     8.0000 </r>
       <r>    -7.9894    -0.0000     8.0000 </r>
       <r>    -7.9176    -0.0000     8.0000 </r>
       <r>    -7.8457     0.0000     8.0000 </r>
       <r>    -7.7739     0.0000     8.0000 </r>
       <r>    -7.7021     0.0000     8.0000 </r>
       <r>    -7.6303     0.0000     8.0000 </r>
       <r>    -7.5584     0.0000     8.0000 </r>
       <r>    -7.4866     0.0000     8.0000 </r>
       <r>    -7.4148     0.0000     8.0000 </r>
       <r>    -7.3429     0.0000     8.0000 </r>
       <r>    -7.2711     0.0000     8.0000 </r>
       <r>    -7.1993     0.0000     8.0000 </r>
       <r>    -7.1274     0.0000     8.0000 </r>
       <r>    -7.0556     0.0000     8.0000 </r>
       <r>    -6.9838     0.0000     8.0000 </r>
       <r>    -6.9120     0.0000     8.0000 </r>
       <r>    -6.8401     0.0000     8.0000 </r>
       <r>    -6.7683     0.0000     8.0000 </r>
       <r>    -6.6965     0.0000     8.0000 </r>
       <r>    -6.6246     0.0000     8.0000 </r>
       <r>    -6.5528     0.0000     8.0000 </r>
       <r>    -6.4810     0.0000     8.0000 </r>
       <r>    -6.4092     0.0000     8.0000 </r>
       <r>    -6.3373     0.0000     8.0000 </r>
       <r>    -6.2655     0.0000     8.0000 </r>
       <r>    -6.1937     0.0000     8.0000 </r>
       <r>    -6.1218     0.0000     8.0000 </r>
       <r>    -6.0500     0.0000     8.0000 </r>
       <r>    -5.9782     0.0000     8.0000 </r>
       <r>    -5.9063     0.0000     8.0000 </r>
       <r>    -5.8345     0.0000     8.0000 </r>
       <r>    -5.7627     0.0000     8.0000 </r>
       <r>    -5.6909     0.0000     8.0000 </r>
       <r>    -5.6190     0.0000     8.0000 </r>
       <r>    -5.5472     0.0000     8.0000 </r>
       <r>    -5.4754     0.0000     8.0000 </r>
       <r>    -5.4035     0.0000     8.0000 </r>
       <r>    -5.3317     0.0000     8.0000 </r>
       <r>    -5.2599     0.0000     8.0000 </r>
       <r>    -5.1880     0.0000     8.0000 </r>
       <r>    -5.1162     0.0000     8.0000 </r>
       <r>    -5.0444     0.0000     8.0000 </r>
       <r>    -4.9726     0.0000     8.0000 </r>
       <r>    -4.9007     0.0000     8.0000 </r>
       <r>    -4.8289     0.0000     8.0000 </r>
       <r>    -4.7571     0.0000     8.0000 </r>
       <r>    -4.6852     0.0000     8.0000 </r>
       <r>    -4.6134     0.0000     8.0000 </r>
       <r>    -4.5416     0.0000     8.0000 </r>
       <r>    -4.4698     0.0000     8.0000 </r>
       <r>    -4.3979     0.0000     8.0000 </r>
       <r>    -4.3261     0.0000     8.0000 </r>
       <r>    -4.2543     0.0000     8.0000 </r>
       <r>    -4.1824     0.0000     8.0000 </r>
       <r>    -4.1106     0.0000     8.0000 </r>
       <r>    -4.0388     0.0000     8.0000 </r>
       <r>    -3.9669     0.0000     8.0000 </r>
       <r>    -3.8951     0.0000     8.0000 </r>
       <r>    -3.8233     0.0000     8.0000 </r>
       <r>    -3.7515     0.0000     8.0000 </r>
       <r>    -3.6796     0.0000     8.0000 </r>
       <r>    -3.6078     0.0000     8.0000 </r>
       <r>    -3.5360     0.0000     8.0000 </r>
       <r>    -3.4641     0.0000     8.0000 </r>
       <r>    -3.3923     0.0000     8.0000 </r>
       <r>    -3.3205     0.0000     8.0000 </r>
       <r>    -3.2486     0.0000     8.0000 </r>
       <r>    -3.1768     0.0000     8.0000 </r>
       <r>    -3.1050     0.0000     8.0000 </r>
       <r>    -3.0332     0.0000     8.0000 </r>
       <r>    -2.9613     0.0000     8.0000 </r>
       <r>    -2.8895     0.0000     8.0000 </r>
       <r>    -2.8177     0.0000     8.0000 </r>
       <r>    -2.7458     0.0000     8.0000 </r>
       <r>    -2.6740     0.0000     8.0000 </r>
       <r>    -2.6022     0.0000     8.0000 </r>
       <r>    -2.5304     0.0000     8.0000 </r>
       <r>    -2.4585     0.0000     8.0000 </r>
       <r>    -2.3867     0.0000     8.0000 </r>
       <r>    -2.3149     0.0000     8.0000 </r>
       <r>    -2.2430     0.0000     8.0000 </r>
       <r>    -2.1712     0.0000     8.0000 </r>
       <r>    -2.0994     0.0000     8.0000 </r>
       <r>    -2.0275     0.0000     8.0000 </r>
       <r>    -1.9557    -0.0000     8.0000 </r>
       <r>    -1.8839    -0.0000     8.0000 </r>
       <r>    -1.8121    -0.0000     8.0000 </r>
       <r>    -1.7402    -0.0000     8.0000 </r>
       <r>    -1.6684    -0.0000     8.0000 </r>
       <r>    -1.5966    -0.0000     8.0000 </r>
       <r>    -1.5247    -0.0000     8.0000 </r>
       <r>    -1.4529    -0.0000     8.0000 </r>
       <r>    -1.3811    -0.0000     8.0000 </r>
       <r>    -1.3092    -0.0000     8.0000 </r>
       <r>    -1.2374    -0.0000     8.0000 </r>
       <r>    -1.1656    -0.0000     8.0000 </r>
       <r>    -1.0938    -0.0000     8.0000 </r>
       <r>    -1.0219    -0.0001     8.0000 </r>
       <r>    -0.9501    -0.0010     7.9999 </r>
       <r>    -0.8783    -0.0071     7.9994 </r>
       <r>    -0.8064    -0.0364     7.9968 </r>
       <r>    -0.7346    -0.1337     7.9872 </r>
       <r>    -0.6628    -0.3285     7.9636 </r>
       <r>    -0.5910    -0.4242     7.9331 </r>
       <r>    -0.5191     0.2645     7.9521 </r>
       <r>    -0.4473     2.5282     8.1337 </r>
       <r>    -0.3755     5.9198     8.5589 </r>
       <r>    -0.3036     8.1962     9.1477 </r>
       <r>    -0.2318     7.3932     9.6787 </r>
       <r>    -0.1600     4.2340     9.9829 </r>
       <r>    -0.0881     1.2072    10.0696 </r>
       <r>    -0.0163    -0.2348    10.0527 </r>
       <r>     0.0555    -0.4488    10.0205 </r>
       <r>     0.1273    -0.3422     9.9959 </r>
       <r>     0.1992    -0.4284     9.9651 </r>
       <r>     0.2710    -0.7249     9.9130 </r>
       <r>     0.3428    -0.6619     9.8655 </r>
       <r>     0.4147     1.0554     9.9413 </r>
       <r>     0.4865     5.7401    10.3536 </r>
       <r>     0.5583    12.9824    11.2861 </r>
       <r>     0.6302    19.5703    12.6919 </r>
       <r>     0.7020    21.2125    14.2156 </r>
       <r>     0.7738    16.4542    15.3975 </r>
       <r>     0.8456     8.5037    16.0083 </r>
       <r>     0.9175     2.1298    16.1613 </r>
       <r>     0.9893    -0.6378    16.1154 </r>
       <r>     1.0611    -0.9196    16.0494 </r>
       <r>     1.1330    -0.4817    16.0148 </r>
       <r>     1.2048    -0.1606    16.0033 </r>
       <r>     1.2766    -0.0378    16.0005 </r>
       <r>     1.3484    -0.0065    16.0001 </r>
       <r>     1.4203    -0.0008    16.0000 </r>
       <r>     1.4921    -0.0001    16.0000 </r>
       <r>     1.5639    -0.0000    16.0000 </r>
       <r>     1.6358    -0.0000    16.0000 </r>
       <r>     1.7076    -0.0000    16.0000 </r>
       <r>     1.7794    -0.0000    16.0000 </r>
       <r>     1.8513    -0.0000    16.0000 </r>
       <r>     1.9231    -0.0000    16.0000 </r>
       <r>     1.9949    -0.0000    16.0000 </r>
       <r>     2.0667     0.0000    16.0000 </r>
       <r>     2.1386     0.0000    16.0000 </r>
       <r>     2.2104     0.0000    16.0000 </r>
       <r>     2.2822     0.0000    16.0000 </r>
       <r>     2.3541     0.0000    16.0000 </r>
       <r>     2.4259     0.0000    16.0000 </r>
       <r>     2.4977     0.0000    16.0000 </r>
       <r>     2.5696     0.0000    16.0000 </r>
       <r>     2.6414     0.0000    16.0000 </r>
       <r>     2.7132     0.0000    16.0000 </r>
      </set>
     </set>
    </array>
   </total>
  </dos>
  <time name="totalsc">   55.44   55.59</time>
 </calculation>
 <calculation>
  <scstep>
   <time name="dav">    1.77    1.77</time>
   <time name="total">    3.60    3.61</time>
   <energy>
    <i name="alphaZ">      0.24203350 </i>
    <i name="ewald">    124.26010049 </i>
    <i name="hartreedc">   -281.24398389 </i>
    <i name="XCdc">     24.57360121 </i>
    <i name="pawpsdc">    473.72221034 </i>
    <i name="pawaedc">   -474.50413368 </i>
    <i name="eentropy">      0.02436037 </i>
    <i name="bandstr">    -88.05787331 </i>
    <i name="atom">    197.04175453 </i>
    <i name="e_fr_energy">    -23.94193044 </i>
    <i name="e_wo_entrp">    -23.96629081 </i>
    <i name="e_0_energy">    -23.95005057 </i>
   </energy>
  </scstep>
  <scstep>
   <time name="diag">    0.36    0.36</time>
   <time name="diis">    1.33    1.34</time>
   <time name="orth">    0.01    0.01</time>
   <time name="total">    3.57    3.58</time>
   <energy>
    <i name="e_fr_energy">    -23.94673101 </i>
    <i name="e_wo_entrp">    -23.97274744 </i>
    <i name="e_0_energy">    -23.95540315 </i>
   </energy>
  </scstep>
  <scstep>
   <time name="diag">    0.36    0.36</time>
   <time name="diis">    1.34    1.34</time>
   <time name="orth">    0.01    0.01</time>
   <time name="total">    3.53    3.54</time>
   <energy>
    <i name="e_fr_energy">    -23.94105028 </i>
    <i name="e_wo_entrp">    -23.96508971 </i>
    <i name="e_0_energy">    -23.94906342 </i>
   </energy>
  </scstep>
  <scstep>
   <time name="diag">    0.36    0.36</time>
   <time name="diis">    1.36    1.36</time>
   <time name="orth">    0.01    0.01</time>
   <time name="total">    3.54    3.55</time>
   <energy>
    <i name="e_fr_energy">    -23.93626594 </i>
    <i name="e_wo_entrp">    -23.96126070 </i>
    <i name="e_0_energy">    -23.94459752 </i>
   </energy>
  </scstep>
  <scstep>
   <time name="diag">    0.37    0.37</time>
   <time name="diis">    1.30    1.31</time>
   <time name="orth">    0.01    0.01</time>
   <time name="total">    3.51    3.51</time>
   <energy>
    <i name="e_fr_energy">    -23.93595299 </i>
    <i name="e_wo_entrp">    -23.96135574 </i>
    <i name="e_0_energy">    -23.94442057 </i>
   </energy>
  </scstep>
  <scstep>
   <time name="diag">    0.37    0.37</time>
   <time name="diis">    1.26    1.27</time>
   <time name="orth">    0.01    0.01</time>
   <time name="total">    3.52    3.53</time>
   <energy>
    <i name="e_fr_energy">    -23.93592343 </i>
    <i name="e_wo_entrp">    -23.96121831 </i>
    <i name="e_0_energy">    -23.94435506 </i>
   </energy>
  </scstep>
  <scstep>
   <time name="diag">    0.36    0.36</time>
   <time name="diis">    1.24    1.25</time>
   <time name="orth">    0.01    0.01</time>
   <time name="total">    3.50    3.51</time>
   <energy>
    <i name="e_fr_energy">    -23.93604693 </i>
    <i name="e_wo_entrp">    -23.96114808 </i>
    <i name="e_0_energy">    -23.94441398 </i>
   </energy>
  </scstep>
  <scstep>
   <time name="diag">    0.38    0.38</time>
   <time name="diis">    1.28    1.28</time>
   <time name="orth">    0.01    0.01</time>
   <time name="total">    3.60    3.60</time>
   <energy>
    <i name="e_fr_energy">    -23.93610627 </i>
    <i name="e_wo_entrp">    -23.96110853 </i>
    <i name="e_0_energy">    -23.94444035 </i>
   </energy>
  </scstep>
  <scstep>
   <time name="diag">    0.38    0.38</time>
   <time name="diis">    1.33    1.33</time>
   <time name="orth">    0.01    0.01</time>
   <time name="total">    3.61    3.62</time>
   <energy>
    <i name="e_fr_energy">    -23.93615004 </i>
    <i name="e_wo_entrp">    -23.96110102 </i>
    <i name="e_0_energy">    -23.94446703 </i>
   </energy>
  </scstep>
  <scstep>
   <time name="diag">    0.40    0.40</time>
   <time name="diis">    1.37    1.37</time>
   <time name="orth">    0.01    0.01</time>
   <time name="total">    3.66    3.67</time>
   <energy>
    <i name="e_fr_energy">    -23.93616987 </i>
    <i name="e_wo_entrp">    -23.96110634 </i>
    <i name="e_0_energy">    -23.94448203 </i>
   </energy>
  </scstep>
  <scstep>
   <time name="diag">    0.40    0.40</time>
   <time name="diis">    1.06    1.06</time>
   <time name="orth">    0.01    0.01</time>
   <time name="total">    3.39    3.40</time>
   <energy>
    <i name="e_fr_energy">    -23.93617920 </i>
    <i name="e_wo_entrp">    -23.96114908 </i>
    <i name="e_0_energy">    -23.94450249 </i>
   </energy>
  </scstep>
  <scstep>
   <time name="diag">    0.38    0.38</time>
   <time name="diis">    1.03    1.03</time>
   <time name="orth">    0.01    0.01</time>
   <time name="total">    3.36    3.37</time>
   <energy>
    <i name="e_fr_energy">    -23.93618578 </i>
    <i name="e_wo_entrp">    -23.96118196 </i>
    <i name="e_0_energy">    -23.94451784 </i>
   </energy>
  </scstep>
  <scstep>
   <time name="diag">    0.38    0.38</time>
   <time name="diis">    1.07    1.07</time>
   <time name="orth">    0.01    0.01</time>
   <time name="total">    3.38    3.39</time>
   <energy>
    <i name="e_fr_energy">    -23.93618731 </i>
    <i name="e_wo_entrp">    -23.96117414 </i>
    <i name="e_0_energy">    -23.94451625 </i>
   </energy>
  </scstep>
  <scstep>
   <time name="diag">    0.38    0.39</time>
   <time name="diis">    1.07    1.07</time>
   <time name="orth">    0.01    0.01</time>
   <time name="total">    3.10    3.10</time>
   <energy>
    <i name="alphaZ">      0.24203350 </i>
    <i name="ewald">    124.26010049 </i>
    <i name="hartreedc">   -280.52292730 </i>
    <i name="XCdc">     24.53110349 </i>
    <i name="pawpsdc">    452.38733304 </i>
    <i name="pawaedc">   -453.16144466 </i>
    <i name="eentropy">      0.02498197 </i>
    <i name="bandstr">    -88.73912310 </i>
    <i name="atom">    197.04175453 </i>
    <i name="e_fr_energy">    -23.93618803 </i>
    <i name="e_wo_entrp">    -23.96117001 </i>
    <i name="e_0_energy">    -23.94451536 </i>
   </energy>
  </scstep>
  <structure>
   <crystal>
    <varray name="basis" >
     <v>      10.14492809       0.00000000       0.00000000 </v>
     <v>      -0.11284345      10.01119822       0.00000000 </v>
     <v>       0.16851128      -0.25536943       9.85495617 </v>
    </varray>
    <i name="volume">   1000.89779011 </i>
    <varray name="rec_basis" >
     <v>       0.09857142       0.00111107      -0.00165670 </v>
     <v>      -0.00000000       0.09988814       0.00258838 </v>
     <v>       0.00000000      -0.00000000       0.10147179 </v>
    </varray>
   </crystal>
   <varray name="positions" >
    <v>       0.54186584       0.40447865       0.35719786 </v>
    <v>       0.39611706       0.48110766       0.43794359 </v>
    <v>       0.55288464       0.57178294       0.44734550 </v>
    <v>       0.52823285       0.41851960       0.53831551 </v>
    <v>       0.50264620       0.46717038       0.44528007 </v>
   </varray>
  </structure>
  <varray name="forces" >
   <v>      -0.50983049       0.76663522       0.37753597 </v>
   <v>      -0.27692581      -0.00776860      -0.03280726 </v>
   <v>      -0.87392160      -1.92390262      -0.45060716 </v>
   <v>      -0.04374984      -0.02170435       0.95172242 </v>
   <v>       0.48494897       0.81461635      -1.82361736 </v>
  </varray>
  <varray name="stress" >
   <v>      -1.72021749      -0.68691711       1.05018035 </v>
   <v>      -0.68691711      -3.61013786      -1.43903891 </v>
   <v>       1.05018036      -1.43903890      -0.05359232 </v>
  </varray>
  <energy>
   <i name="e_fr_energy">    -23.93618803 </i>
   <i name="e_wo_entrp">    -23.94451536 </i>
   <i name="e_0_energy">      0.02498197 </i>
   <i name="kinetic">      0.02713405 </i>
   <i name="lattice kinetic">      0.00000000 </i>
   <i name="nosepot">     -0.00034860 </i>
   <i name="nosekinetic">      0.00000327 </i>
   <i name="total">    -23.90939931 </i>
  </energy>
  <dos>
   <i name="efermi">     -8.90913205 </i>
   <total>
    <array>
     <dimension dim="1">gridpoints</dimension>
     <dimension dim="2">spin</dimension>
     <field>energy</field>
     <field>total</field>
     <field>integrated</field>
     <set>
      <set comment="spin 1">
       <r>   -18.7409     0.0000     0.0000 </r>
       <r>   -18.6694     0.0000     0.0000 </r>
       <r>   -18.5979     0.0000     0.0000 </r>
       <r>   -18.5264     0.0000     0.0000 </r>
       <r>   -18.4548     0.0000     0.0000 </r>
       <r>   -18.3833    -0.0000    -0.0000 </r>
       <r>   -18.3118    -0.0000    -0.0000 </r>
       <r>   -18.2403    -0.0000    -0.0000 </r>
       <r>   -18.1688    -0.0000    -0.0000 </r>
       <r>   -18.0973    -0.0000    -0.0000 </r>
       <r>   -18.0258    -0.0000    -0.0000 </r>
       <r>   -17.9543    -0.0000    -0.0000 </r>
       <r>   -17.8828    -0.0000    -0.0000 </r>
       <r>   -17.8113    -0.0000    -0.0000 </r>
       <r>   -17.7398    -0.0000    -0.0000 </r>
       <r>   -17.6683    -0.0000    -0.0000 </r>
       <r>   -17.5968    -0.0000    -0.0000 </r>
       <r>   -17.5253    -0.0000    -0.0000 </r>
       <r>   -17.4538    -0.0001    -0.0000 </r>
       <r>   -17.3823    -0.0007    -0.0001 </r>
       <r>   -17.3108    -0.0051    -0.0004 </r>
       <r>   -17.2393    -0.0276    -0.0024 </r>
       <r>   -17.1678    -0.1077    -0.0101 </r>
       <r>   -17.0963    -0.2873    -0.0306 </r>
       <r>   -17.0248    -0.4393    -0.0621 </r>
       <r>   -16.9533     0.0163    -0.0609 </r>
       <r>   -16.8818     1.9275     0.0769 </r>
       <r>   -16.8103     5.2130     0.4497 </r>
       <r>   -16.7388     7.9390     1.0173 </r>
       <r>   -16.6673     7.8444     1.5782 </r>
       <r>   -16.5958     5.0144     1.9368 </r>
       <r>   -16.5243     1.7716     2.0634 </r>
       <r>   -16.4528    -0.0423     2.0604 </r>
       <r>   -16.3813    -0.4390     2.0290 </r>
       <r>   -16.3098    -0.2749     2.0094 </r>
       <r>   -16.2383    -0.1006     2.0022 </r>
       <r>   -16.1668    -0.0253     2.0004 </r>
       <r>   -16.0953    -0.0046     2.0000 </r>
       <r>   -16.0238    -0.0006     2.0000 </r>
       <r>   -15.9523    -0.0001     2.0000 </r>
       <r>   -15.8808    -0.0000     2.0000 </r>
       <r>   -15.8093    -0.0000     2.0000 </r>
       <r>   -15.7378    -0.0000     2.0000 </r>
       <r>   -15.6663    -0.0000     2.0000 </r>
       <r>   -15.5948    -0.0000     2.0000 </r>
       <r>   -15.5233    -0.0000     2.0000 </r>
       <r>   -15.4518    -0.0000     2.0000 </r>
       <r>   -15.3803     0.0000     2.0000 </r>
       <r>   -15.3087     0.0000     2.0000 </r>
       <r>   -15.2372     0.0000     2.0000 </r>
       <r>   -15.1657     0.0000     2.0000 </r>
       <r>   -15.0942     0.0000     2.0000 </r>
       <r>   -15.0227     0.0000     2.0000 </r>
       <r>   -14.9512     0.0000     2.0000 </r>
       <r>   -14.8797     0.0000     2.0000 </r>
       <r>   -14.8082     0.0000     2.0000 </r>
       <r>   -14.7367     0.0000     2.0000 </r>
       <r>   -14.6652     0.0000     2.0000 </r>
       <r>   -14.5937     0.0000     2.0000 </r>
       <r>   -14.5222     0.0000     2.0000 </r>
       <r>   -14.4507     0.0000     2.0000 </r>
       <r>   -14.3792     0.0000     2.0000 </r>
       <r>   -14.3077     0.0000     2.0000 </r>
       <r>   -14.2362     0.0000     2.0000 </r>
       <r>   -14.1647     0.0000     2.0000 </r>
       <r>   -14.0932     0.0000     2.0000 </r>
       <r>   -14.0217     0.0000     2.0000 </r>
       <r>   -13.9502     0.0000     2.0000 </r>
       <r>   -13.8787     0.0000     2.0000 </r>
       <r>   -13.8072     0.0000     2.0000 </r>
       <r>   -13.7357     0.0000     2.0000 </r>
       <r>   -13.6642     0.0000     2.0000 </r>
       <r>   -13.5927     0.0000     2.0000 </r>
       <r>   -13.5212     0.0000     2.0000 </r>
       <r>   -13.4497     0.0000     2.0000 </r>
       <r>   -13.3782     0.0000     2.0000 </r>
       <r>   -13.3067     0.0000     2.0000 </r>
       <r>   -13.2352     0.0000     2.0000 </r>
       <r>   -13.1637     0.0000     2.0000 </r>
       <r>   -13.0922     0.0000     2.0000 </r>
       <r>   -13.0207     0.0000     2.0000 </r>
       <r>   -12.9492     0.0000     2.0000 </r>
       <r>   -12.8777     0.0000     2.0000 </r>
[...]
       <r>     0.2683    -0.7187     9.9154 </r>
       <r>     0.3404    -0.7200     9.8635 </r>
       <r>     0.4125     0.8953     9.9280 </r>
       <r>     0.4845     5.5311    10.3268 </r>
       <r>     0.5566    12.8444    11.2526 </r>
       <r>     0.6287    19.5532    12.6621 </r>
       <r>     0.7008    21.2592    14.1946 </r>
       <r>     0.7729    16.5080    15.3846 </r>
       <r>     0.8450     8.5575    16.0014 </r>
       <r>     0.9171     2.1800    16.1586 </r>
       <r>     0.9891    -0.6054    16.1149 </r>
       <r>     1.0612    -0.9074    16.0495 </r>
       <r>     1.1333    -0.4799    16.0149 </r>
       <r>     1.2054    -0.1613    16.0033 </r>
       <r>     1.2775    -0.0382    16.0005 </r>
       <r>     1.3496    -0.0067    16.0001 </r>
       <r>     1.4216    -0.0009    16.0000 </r>
       <r>     1.4937    -0.0001    16.0000 </r>
       <r>     1.5658    -0.0000    16.0000 </r>
       <r>     1.6379    -0.0000    16.0000 </r>
       <r>     1.7100    -0.0000    16.0000 </r>
       <r>     1.7821    -0.0000    16.0000 </r>
       <r>     1.8542    -0.0000    16.0000 </r>
       <r>     1.9262    -0.0000    16.0000 </r>
       <r>     1.9983    -0.0000    16.0000 </r>
       <r>     2.0704     0.0000    16.0000 </r>
       <r>     2.1425     0.0000    16.0000 </r>
       <r>     2.2146     0.0000    16.0000 </r>
       <r>     2.2867     0.0000    16.0000 </r>
       <r>     2.3587     0.0000    16.0000 </r>
       <r>     2.4308     0.0000    16.0000 </r>
       <r>     2.5029     0.0000    16.0000 </r>
       <r>     2.5750     0.0000    16.0000 </r>
       <r>     2.6471     0.0000    16.0000 </r>
       <r>     2.7192     0.0000    16.0000 </r>
      </set>
     </set>
    </array>
   </total>
  </dos>
  <time name="totalsc">   70.96   71.67</time>
  <eigenvalues>
   <array>
    <dimension dim="1">band</dimension>
    <dimension dim="2">kpoint</dimension>
    <dimension dim="3">spin</dimension>
    <field>eigene</field>
    <field>occ</field>
    <set>
     <set comment="spin 1">
      <set comment="kpoint 1">
       <r>  -17.0192    1.0000 </r>
       <r>   -9.8528    1.0000 </r>
       <r>   -9.2893    1.0003 </r>
       <r>   -8.9040    0.9997 </r>
       <r>   -0.3077    0.0000 </r>
       <r>    0.5755    0.0000 </r>
       <r>    0.6706    0.0000 </r>
       <r>    0.6999    0.0000 </r>
      </set>
      <set comment="kpoint 2">
       <r>  -17.0192    1.0000 </r>
       <r>   -9.8528    1.0000 </r>
       <r>   -9.2893    1.0003 </r>
       <r>   -8.9040    0.9996 </r>
       <r>   -0.3065    0.0000 </r>
       <r>    0.5620    0.0000 </r>
       <r>    0.6765    0.0000 </r>
       <r>    0.6965    0.0000 </r>
      </set>
      <set comment="kpoint 3">
       <r>  -17.0192    1.0000 </r>
       <r>   -9.8528    1.0000 </r>
       <r>   -9.2893    1.0003 </r>
       <r>   -8.9040    0.9996 </r>
       <r>   -0.3141    0.0000 </r>
       <r>    0.5779    0.0000 </r>
       <r>    0.6882    0.0000 </r>
       <r>    0.7253    0.0000 </r>
      </set>
      <set comment="kpoint 4">
       <r>  -17.0192    1.0000 </r>
       <r>   -9.8527    1.0000 </r>
       <r>   -9.2894    1.0003 </r>
       <r>   -8.9040    0.9997 </r>
       <r>   -0.3092    0.0000 </r>
       <r>    0.5653    0.0000 </r>
       <r>    0.6733    0.0000 </r>
       <r>    0.7218    0.0000 </r>
      </set>
     </set>
    </set>
   </array>
  </eigenvalues>
  <separator name="orbital magnetization" >
   <v name="MAGDIPOLOUT">      0.00000000      0.00000000      0.00000000</v>
  </separator>
  <dos>
   <i name="efermi">     -8.73592920 </i>
   <total>
    <array>
     <dimension dim="1">gridpoints</dimension>
     <dimension dim="2">spin</dimension>
     <field>energy</field>
     <field>total</field>
     <field>integrated</field>
     <set>
      <set comment="spin 1">
       <r>   -19.0192     0.0000     0.0000 </r>
       <r>   -18.9468     0.0000     0.0000 </r>
       <r>   -18.8743     0.0000     0.0000 </r>
       <r>   -18.8018     0.0000     0.0000 </r>
       <r>   -18.7293     0.0000     0.0000 </r>
       <r>   -18.6568    -0.0000    -0.0000 </r>
       <r>   -18.5844    -0.0000    -0.0000 </r>
       <r>   -18.5119    -0.0000    -0.0000 </r>
       <r>   -18.4394    -0.0000    -0.0000 </r>
       <r>   -18.3669    -0.0000    -0.0000 </r>
       <r>   -18.2944    -0.0000    -0.0000 </r>
       <r>   -18.2219    -0.0000    -0.0000 </r>
       <r>   -18.1495    -0.0000    -0.0000 </r>
       <r>   -18.0770    -0.0000    -0.0000 </r>
       <r>   -18.0045    -0.0000    -0.0000 </r>
       <r>   -17.9320    -0.0000    -0.0000 </r>
       <r>   -17.8595    -0.0000    -0.0000 </r>
       <r>   -17.7871    -0.0000    -0.0000 </r>
       <r>   -17.7146    -0.0001    -0.0000 </r>
       <r>   -17.6421    -0.0012    -0.0001 </r>
       <r>   -17.5696    -0.0083    -0.0007 </r>
       <r>   -17.4971    -0.0420    -0.0037 </r>
       <r>   -17.4246    -0.1503    -0.0146 </r>
       <r>   -17.3522    -0.3530    -0.0402 </r>
       <r>   -17.2797    -0.4005    -0.0693 </r>
       <r>   -17.2072     0.4667    -0.0354 </r>
       <r>   -17.1347     2.9818     0.1807 </r>
       <r>   -17.0622     6.4080     0.6452 </r>
       <r>   -16.9898     8.2951     1.2464 </r>
       <r>   -16.9173     6.9590     1.7508 </r>
       <r>   -16.8448     3.6110     2.0126 </r>
       <r>   -16.7723     0.8048     2.0709 </r>
       <r>   -16.6998    -0.3377     2.0464 </r>
       <r>   -16.6273    -0.3893     2.0182 </r>
       <r>   -16.5549    -0.1827     2.0049 </r>
       <r>   -16.4824    -0.0547     2.0010 </r>
       <r>   -16.4099    -0.0115     2.0001 </r>
       <r>   -16.3374    -0.0018     2.0000 </r>
       <r>   -16.2649    -0.0002     2.0000 </r>
       <r>   -16.1924    -0.0000     2.0000 </r>
       <r>   -16.1200    -0.0000     2.0000 </r>
       <r>   -16.0475    -0.0000     2.0000 </r>
       <r>   -15.9750    -0.0000     2.0000 </r>
       <r>   -15.9025    -0.0000     2.0000 </r>
       <r>   -15.8300    -0.0000     2.0000 </r>
       <r>   -15.7576    -0.0000     2.0000 </r>
       <r>   -15.6851     0.0000     2.0000 </r>
       <r>   -15.6126     0.0000     2.0000 </r>
       <r>   -15.5401     0.0000     2.0000 </r>
       <r>   -15.4676     0.0000     2.0000 </r>
       <r>   -15.3951     0.0000     2.0000 </r>
       <r>   -15.3227     0.0000     2.0000 </r>
       <r>   -15.2502     0.0000     2.0000 </r>
       <r>   -15.1777     0.0000     2.0000 </r>
       <r>   -15.1052     0.0000     2.0000 </r>
       <r>   -15.0327     0.0000     2.0000 </r>
       <r>   -14.9603     0.0000     2.0000 </r>
       <r>   -14.8878     0.0000     2.0000 </r>
       <r>   -14.8153     0.0000     2.0000 </r>
       <r>   -14.7428     0.0000     2.0000 </r>
       <r>   -14.6703     0.0000     2.0000 </r>
       <r>   -14.5978     0.0000     2.0000 </r>
       <r>   -14.5254     0.0000     2.0000 </r>
       <r>   -14.4529     0.0000     2.0000 </r>
       <r>   -14.3804     0.0000     2.0000 </r>
       <r>   -14.3079     0.0000     2.0000 </r>
       <r>   -14.2354     0.0000     2.0000 </r>
       <r>   -14.1630     0.0000     2.0000 </r>
       <r>   -14.0905     0.0000     2.0000 </r>
       <r>   -14.0180     0.0000     2.0000 </r>
       <r>   -13.9455     0.0000     2.0000 </r>
       <r>   -13.8730     0.0000     2.0000 </r>
       <r>   -13.8005     0.0000     2.0000 </r>
       <r>   -13.7281     0.0000     2.0000 </r>
       <r>   -13.6556     0.0000     2.0000 </r>
       <r>   -13.5831     0.0000     2.0000 </r>
       <r>   -13.5106     0.0000     2.0000 </r>
       <r>   -13.4381     0.0000     2.0000 </r>
       <r>   -13.3657     0.0000     2.0000 </r>
       <r>   -13.2932     0.0000     2.0000 </r>
       <r>   -13.2207     0.0000     2.0000 </r>
       <r>   -13.1482     0.0000     2.0000 </r>
       <r>   -13.0757     0.0000     2.0000 </r>
       <r>   -13.0032     0.0000     2.0000 </r>
       <r>   -12.9308     0.0000     2.0000 </r>
       <r>   -12.8583     0.0000     2.0000 </r>
       <r>   -12.7858     0.0000     2.0000 </r>
       <r>   -12.7133     0.0000     2.0000 </r>
       <r>   -12.6408     0.0000     2.0000 </r>
       <r>   -12.5684     0.0000     2.0000 </r>
       <r>   -12.4959     0.0000     2.0000 </r>
       <r>   -12.4234     0.0000     2.0000 </r>
       <r>   -12.3509     0.0000     2.0000 </r>
       <r>   -12.2784     0.0000     2.0000 </r>
       <r>   -12.2059     0.0000     2.0000 </r>
       <r>   -12.1335     0.0000     2.0000 </r>
       <r>   -12.0610     0.0000     2.0000 </r>
       <r>   -11.9885     0.0000     2.0000 </r>
       <r>   -11.9160     0.0000     2.0000 </r>
       <r>   -11.8435     0.0000     2.0000 </r>
       <r>   -11.7711     0.0000     2.0000 </r>
       <r>   -11.6986     0.0000     2.0000 </r>
       <r>   -11.6261     0.0000     2.0000 </r>
       <r>   -11.5536     0.0000     2.0000 </r>
       <r>   -11.4811    -0.0000     2.0000 </r>
       <r>   -11.4086    -0.0000     2.0000 </r>
       <r>   -11.3362    -0.0000     2.0000 </r>
       <r>   -11.2637    -0.0000     2.0000 </r>
       <r>   -11.1912    -0.0000     2.0000 </r>
       <r>   -11.1187    -0.0000     2.0000 </r>
       <r>   -11.0462    -0.0000     2.0000 </r>
       <r>   -10.9738    -0.0000     2.0000 </r>
       <r>   -10.9013    -0.0000     2.0000 </r>
       <r>   -10.8288    -0.0000     2.0000 </r>
       <r>   -10.7563    -0.0000     2.0000 </r>
       <r>   -10.6838    -0.0000     2.0000 </r>
       <r>   -10.6113    -0.0000     2.0000 </r>
       <r>   -10.5389    -0.0002     2.0000 </r>
       <r>   -10.4664    -0.0016     1.9999 </r>
       <r>   -10.3939    -0.0104     1.9991 </r>
       <r>   -10.3214    -0.0504     1.9955 </r>
       <r>   -10.2489    -0.1720     1.9830 </r>
       <r>   -10.1764    -0.3784     1.9556 </r>
       <r>   -10.1040    -0.3614     1.9294 </r>
       <r>   -10.0315     0.6910     1.9795 </r>
       <r>    -9.9590     3.4083     2.2265 </r>
       <r>    -9.8865     6.7894     2.7186 </r>
       <r>    -9.8140     8.2932     3.3197 </r>
       <r>    -9.7416     6.5206     3.7923 </r>
       <r>    -9.6691     2.9625     4.0071 </r>
       <r>    -9.5966     0.1509     4.0180 </r>
       <r>    -9.5241    -0.6349     3.9720 </r>
       <r>    -9.4516     0.7871     4.0290 </r>
       <r>    -9.3791     3.9904     4.3183 </r>
       <r>    -9.3067     7.1869     4.8392 </r>
       <r>    -9.2342     7.8212     5.4061 </r>
       <r>    -9.1617     5.4754     5.8029 </r>
       <r>    -9.0892     2.9814     6.0190 </r>
       <r>    -9.0167     3.3248     6.2600 </r>
       <r>    -8.9443     6.0959     6.7019 </r>
       <r>    -8.8718     7.9879     7.2809 </r>
       <r>    -8.7993     6.7272     7.7685 </r>
       <r>    -8.7268     3.4472     8.0183 </r>
       <r>    -8.6543     0.7244     8.0708 </r>
       <r>    -8.5818    -0.3543     8.0451 </r>
       <r>    -8.5094    -0.3825     8.0174 </r>
       <r>    -8.4369    -0.1758     8.0047 </r>
       <r>    -8.3644    -0.0519     8.0009 </r>
       <r>    -8.2919    -0.0108     8.0001 </r>
       <r>    -8.2194    -0.0016     8.0000 </r>
       <r>    -8.1470    -0.0002     8.0000 </r>
       <r>    -8.0745    -0.0000     8.0000 </r>
       <r>    -8.0020    -0.0000     8.0000 </r>
       <r>    -7.9295    -0.0000     8.0000 </r>
       <r>    -7.8570    -0.0000     8.0000 </r>
       <r>    -7.7845    -0.0000     8.0000 </r>
       <r>    -7.7121    -0.0000     8.0000 </r>
       <r>    -7.6396    -0.0000     8.0000 </r>
       <r>    -7.5671     0.0000     8.0000 </r>
       <r>    -7.4946     0.0000     8.0000 </r>
       <r>    -7.4221     0.0000     8.0000 </r>
       <r>    -7.3497     0.0000     8.0000 </r>
       <r>    -7.2772     0.0000     8.0000 </r>
       <r>    -7.2047     0.0000     8.0000 </r>
       <r>    -7.1322     0.0000     8.0000 </r>
       <r>    -7.0597     0.0000     8.0000 </r>
       <r>    -6.9872     0.0000     8.0000 </r>
       <r>    -6.9148     0.0000     8.0000 </r>
       <r>    -6.8423     0.0000     8.0000 </r>
       <r>    -6.7698     0.0000     8.0000 </r>
       <r>    -6.6973     0.0000     8.0000 </r>
       <r>    -6.6248     0.0000     8.0000 </r>
       <r>    -6.5524     0.0000     8.0000 </r>
       <r>    -6.4799     0.0000     8.0000 </r>
       <r>    -6.4074     0.0000     8.0000 </r>
       <r>    -6.3349     0.0000     8.0000 </r>
       <r>    -6.2624     0.0000     8.0000 </r>
       <r>    -6.1899     0.0000     8.0000 </r>
       <r>    -6.1175     0.0000     8.0000 </r>
       <r>    -6.0450     0.0000     8.0000 </r>
       <r>    -5.9725     0.0000     8.0000 </r>
       <r>    -5.9000     0.0000     8.0000 </r>
       <r>    -5.8275     0.0000     8.0000 </r>
       <r>    -5.7551     0.0000     8.0000 </r>
       <r>    -5.6826     0.0000     8.0000 </r>
       <r>    -5.6101     0.0000     8.0000 </r>
       <r>    -5.5376     0.0000     8.0000 </r>
       <r>    -5.4651     0.0000     8.0000 </r>
       <r>    -5.3926     0.0000     8.0000 </r>
       <r>    -5.3202     0.0000     8.0000 </r>
       <r>    -5.2477     0.0000     8.0000 </r>
       <r>    -5.1752     0.0000     8.0000 </r>
       <r>    -5.1027     0.0000     8.0000 </r>
       <r>    -5.0302     0.0000     8.0000 </r>
       <r>    -4.9577     0.0000     8.0000 </r>
       <r>    -4.8853     0.0000     8.0000 </r>
       <r>    -4.8128     0.0000     8.0000 </r>
       <r>    -4.7403     0.0000     8.0000 </r>
       <r>    -4.6678     0.0000     8.0000 </r>
       <r>    -4.5953     0.0000     8.0000 </r>
       <r>    -4.5229     0.0000     8.0000 </r>
       <r>    -4.4504     0.0000     8.0000 </r>
       <r>    -4.3779     0.0000     8.0000 </r>
       <r>    -4.3054     0.0000     8.0000 </r>
       <r>    -4.2329     0.0000     8.0000 </r>
       <r>    -4.1604     0.0000     8.0000 </r>
       <r>    -4.0880     0.0000     8.0000 </r>
       <r>    -4.0155     0.0000     8.0000 </r>
       <r>    -3.9430     0.0000     8.0000 </r>
       <r>    -3.8705     0.0000     8.0000 </r>
       <r>    -3.7980     0.0000     8.0000 </r>
       <r>    -3.7256     0.0000     8.0000 </r>
       <r>    -3.6531     0.0000     8.0000 </r>
       <r>    -3.5806     0.0000     8.0000 </r>
       <r>    -3.5081     0.0000     8.0000 </r>
       <r>    -3.4356     0.0000     8.0000 </r>
       <r>    -3.3631     0.0000     8.0000 </r>
       <r>    -3.2907     0.0000     8.0000 </r>
       <r>    -3.2182     0.0000     8.0000 </r>
       <r>    -3.1457     0.0000     8.0000 </r>
       <r>    -3.0732     0.0000     8.0000 </r>
       <r>    -3.0007     0.0000     8.0000 </r>
       <r>    -2.9283     0.0000     8.0000 </r>
       <r>    -2.8558     0.0000     8.0000 </r>
       <r>    -2.7833     0.0000     8.0000 </r>
       <r>    -2.7108     0.0000     8.0000 </r>
       <r>    -2.6383     0.0000     8.0000 </r>
       <r>    -2.5658     0.0000     8.0000 </r>
       <r>    -2.4934     0.0000     8.0000 </r>
       <r>    -2.4209     0.0000     8.0000 </r>
       <r>    -2.3484     0.0000     8.0000 </r>
       <r>    -2.2759     0.0000     8.0000 </r>
       <r>    -2.2034     0.0000     8.0000 </r>
       <r>    -2.1310     0.0000     8.0000 </r>
       <r>    -2.0585     0.0000     8.0000 </r>
       <r>    -1.9860    -0.0000     8.0000 </r>
       <r>    -1.9135    -0.0000     8.0000 </r>
       <r>    -1.8410    -0.0000     8.0000 </r>
       <r>    -1.7685    -0.0000     8.0000 </r>
       <r>    -1.6961    -0.0000     8.0000 </r>
       <r>    -1.6236    -0.0000     8.0000 </r>
       <r>    -1.5511    -0.0000     8.0000 </r>
       <r>    -1.4786    -0.0000     8.0000 </r>
       <r>    -1.4061    -0.0000     8.0000 </r>
       <r>    -1.3337    -0.0000     8.0000 </r>
       <r>    -1.2612    -0.0000     8.0000 </r>
       <r>    -1.1887    -0.0000     8.0000 </r>
       <r>    -1.1162    -0.0000     8.0000 </r>
       <r>    -1.0437    -0.0000     8.0000 </r>
       <r>    -0.9712    -0.0004     8.0000 </r>
       <r>    -0.8988    -0.0031     7.9997 </r>
       <r>    -0.8263    -0.0183     7.9984 </r>
       <r>    -0.7538    -0.0793     7.9927 </r>
       <r>    -0.6813    -0.2371     7.9755 </r>
       <r>    -0.6088    -0.4282     7.9445 </r>
       <r>    -0.5364    -0.1721     7.9320 </r>
       <r>    -0.4639     1.4201     8.0349 </r>
       <r>    -0.3914     4.5781     8.3668 </r>
       <r>    -0.3189     7.6281     8.9197 </r>
       <r>    -0.2464     8.0703     9.5046 </r>
       <r>    -0.1739     5.4989     9.9032 </r>
       <r>    -0.1015     2.1279    10.0574 </r>
       <r>    -0.0290     0.0795    10.0632 </r>
       <r>     0.0435    -0.4532    10.0303 </r>
       <r>     0.1160    -0.3695    10.0035 </r>
       <r>     0.1885    -0.3705     9.9767 </r>
       <r>     0.2610    -0.6397     9.9303 </r>
       <r>     0.3334    -0.8093     9.8717 </r>
       <r>     0.4059     0.2680     9.8911 </r>
       <r>     0.4784     4.1435    10.1914 </r>
       <r>     0.5509    11.0915    10.9953 </r>
       <r>     0.6234    18.4360    12.3316 </r>
       <r>     0.6958    21.5673    13.8949 </r>
       <r>     0.7683    17.9804    15.1981 </r>
       <r>     0.8408    10.1350    15.9327 </r>
       <r>     0.9133     3.0783    16.1558 </r>
       <r>     0.9858    -0.3774    16.1285 </r>
       <r>     1.0583    -0.9630    16.0587 </r>
       <r>     1.1307    -0.5558    16.0184 </r>
       <r>     1.2032    -0.1959    16.0042 </r>
       <r>     1.2757    -0.0480    16.0007 </r>
       <r>     1.3482    -0.0086    16.0001 </r>
       <r>     1.4207    -0.0011    16.0000 </r>
       <r>     1.4931    -0.0001    16.0000 </r>
       <r>     1.5656    -0.0000    16.0000 </r>
       <r>     1.6381    -0.0000    16.0000 </r>
       <r>     1.7106    -0.0000    16.0000 </r>
       <r>     1.7831    -0.0000    16.0000 </r>
       <r>     1.8556    -0.0000    16.0000 </r>
       <r>     1.9280    -0.0000    16.0000 </r>
       <r>     2.0005    -0.0000    16.0000 </r>
       <r>     2.0730     0.0000    16.0000 </r>
       <r>     2.1455     0.0000    16.0000 </r>
       <r>     2.2180     0.0000    16.0000 </r>
       <r>     2.2904     0.0000    16.0000 </r>
       <r>     2.3629     0.0000    16.0000 </r>
       <r>     2.4354     0.0000    16.0000 </r>
       <r>     2.5079     0.0000    16.0000 </r>
       <r>     2.5804     0.0000    16.0000 </r>
       <r>     2.6529     0.0000    16.0000 </r>
       <r>     2.7253     0.0000    16.0000 </r>
      </set>
     </set>
    </array>
   </total>
  </dos>
 </calculation>
 <structure name="finalpos" >
  <crystal>
   <varray name="basis" >
    <v>      10.14492809       0.00000000       0.00000000 </v>
    <v>      -0.11284345      10.01119822       0.00000000 </v>
    <v>       0.16851128      -0.25536943       9.85495617 </v>
   </varray>
   <i name="volume">   1000.89779011 </i>
   <varray name="rec_basis" >
    <v>       0.09857142       0.00111107      -0.00165670 </v>
    <v>      -0.00000000       0.09988814       0.00258838 </v>
    <v>       0.00000000      -0.00000000       0.10147179 </v>
   </varray>
  </crystal>
  <varray name="positions" >
   <v>       0.54148630       0.40043934       0.36941761 </v>
   <v>       0.39133178       0.47071475       0.44062370 </v>
   <v>       0.55071229       0.56318666       0.43744827 </v>
   <v>       0.52381848       0.41699521       0.53895881 </v>
   <v>       0.50362460       0.46921458       0.44481001 </v>
  </varray>
  <varray name="velocities" >
   <v>      -0.00142473      -0.00073306      -0.00114865 </v>
   <v>       0.00082206       0.00023859      -0.00053016 </v>
   <v>      -0.00136666      -0.00280869      -0.00235375 </v>
   <v>      -0.00073444       0.00073393      -0.00006667 </v>
   <v>       0.00022511       0.00021391       0.00034129 </v>
  </varray>
 </structure>
</modeling>
