unknown system                          
           1
    10.144928    0.000000    0.000000
    -0.112843   10.011198    0.000000
     0.168511   -0.255369    9.854956
   H    C 
   4   1
Direct configuration=     1
   0.53869339  0.40735271  0.35995054
   0.39417894  0.48074277  0.43838100
   0.55188888  0.56522287  0.44283480
   0.52766251  0.41688676  0.53965609
   0.50320208  0.46764359  0.44527841
Direct configuration=     2
   0.53985749  0.40582932  0.35852729
   0.39527406  0.48126658  0.43765714
   0.55153444  0.56772408  0.44343676
   0.52791441  0.41790807  0.53784568
   0.50302253  0.46743353  0.44555778
Direct configuration=     3
   0.54186584  0.40447865  0.35719786
   0.39611706  0.48110766  0.43794359
   0.55288464  0.57178294  0.44734550
   0.52823285  0.41851960  0.53831551
   0.50264620  0.46717038  0.44528007
Direct configuration=     4
   0.54223172  0.40621708  0.35758552
   0.39619574  0.48101105  0.43834115
   0.55114311  0.56847613  0.44973267
   0.52861034  0.41923906  0.54275473
   0.50272276  0.46724910  0.44464635
Direct configuration=     5
   0.54263748  0.41108750  0.36017199
   0.39555833  0.48020450  0.43987317
   0.54910226  0.56354988  0.44875162
   0.52800444  0.42098042  0.54159163
   0.50296240  0.46717592  0.44448197
Direct configuration=     6
   0.54355237  0.41176930  0.36080308
   0.39751268  0.47841748  0.44170853
   0.54929122  0.56232713  0.44867283
   0.52762522  0.42208850  0.53794943
   0.50273936  0.46727748  0.44458642
Direct configuration=     7
   0.54462282  0.40860073  0.36105108
   0.39886398  0.47560631  0.44273499
   0.55233176  0.56536411  0.45010201
   0.52982440  0.42083286  0.53823895
   0.50210149  0.46762703  0.44433722
Direct configuration=     8
   0.54557230  0.40202737  0.36012086
   0.39725556  0.47393316  0.44329427
   0.55536208  0.57078549  0.44933512
   0.52936948  0.41787041  0.54081000
   0.50194193  0.46810888  0.44421790
Direct configuration=     9
   0.54543099  0.39931256  0.36305763
   0.39414569  0.47217390  0.44291080
   0.55423125  0.57022010  0.44440664
   0.52703280  0.41610680  0.54119155
   0.50250131  0.46867529  0.44438388
Direct configuration=    10
   0.54291102  0.40117240  0.37056626
   0.39050972  0.47047616  0.44115385
   0.55207895  0.56599536  0.43980203
   0.52455292  0.41626127  0.53902548
   0.50339950  0.46900067  0.44446872
