   5   5   0   0
  0.1929145E+03  0.9758886E-09  0.1004070E-08  0.9844120E-09  0.2000000E-14
   50.000000000000000     
  CAR 
 unknown system                          
      2.72172780    -18.98715471  301     -9.14957786      1.00000000
    -18.987  0.0000E+00  0.0000E+00
    -18.915  0.0000E+00  0.0000E+00
    -18.842  0.0000E+00  0.0000E+00
    -18.770  0.0000E+00  0.0000E+00
    -18.698  0.0000E+00  0.0000E+00
    -18.625 -0.4645E-27 -0.3361E-28
    -18.553 -0.1457E-24 -0.1057E-25
    -18.481 -0.3516E-22 -0.2555E-23
    -18.408 -0.6513E-20 -0.4739E-21
    -18.336 -0.9260E-18 -0.6748E-19
    -18.264 -0.1010E-15 -0.7374E-17
    -18.191 -0.8442E-14 -0.6183E-15
    -18.119 -0.5239E-12 -0.3853E-13
    -18.046 -0.2559E-10 -0.1890E-11
    -17.974 -0.9548E-09 -0.7098E-10
    -17.902 -0.2718E-07 -0.2038E-08
    -17.829 -0.5889E-06 -0.4465E-07
    -17.757 -0.9687E-05 -0.7456E-06
    -17.685 -0.1205E-03 -0.9464E-05
    -17.612 -0.1126E-02 -0.9094E-04
    -17.540 -0.7835E-02 -0.6579E-03
    -17.468 -0.3994E-01 -0.3548E-02
    -17.395 -0.1446E+00 -0.1401E-01
    -17.323 -0.3453E+00 -0.3900E-01
    -17.250 -0.4095E+00 -0.6863E-01
    -17.178  0.4019E+00 -0.3954E-01
    -17.106  0.2845E+01  0.1664E+00
    -17.033  0.6271E+01  0.6202E+00
    -16.961  0.8277E+01  0.1219E+01
    -16.889  0.7086E+01  0.1732E+01
    -16.816  0.3779E+01  0.2005E+01
    -16.744  0.9059E+00  0.2071E+01
    -16.672 -0.3140E+00  0.2048E+01
    -16.599 -0.3986E+00  0.2019E+01
    -16.527 -0.1930E+00  0.2005E+01
    -16.454 -0.5919E-01  0.2001E+01
    -16.382 -0.1272E-01  0.2000E+01
    -16.310 -0.1988E-02  0.2000E+01
    -16.237 -0.2306E-03  0.2000E+01
    -16.165 -0.2006E-04  0.2000E+01
    -16.093 -0.1317E-05  0.2000E+01
    -16.020 -0.6560E-07  0.2000E+01
    -15.948 -0.2486E-08  0.2000E+01
    -15.876 -0.7181E-10  0.2000E+01
    -15.803 -0.1579E-11  0.2000E+01
    -15.731 -0.3068E-13  0.2000E+01
    -15.658  0.0000E+00  0.2000E+01
    -15.586  0.0000E+00  0.2000E+01
    -15.514  0.0000E+00  0.2000E+01
    -15.441  0.0000E+00  0.2000E+01
    -15.369  0.0000E+00  0.2000E+01
    -15.297  0.0000E+00  0.2000E+01
    -15.224  0.0000E+00  0.2000E+01
    -15.152  0.0000E+00  0.2000E+01
    -15.080  0.0000E+00  0.2000E+01
    -15.007  0.0000E+00  0.2000E+01
    -14.935  0.0000E+00  0.2000E+01
    -14.862  0.0000E+00  0.2000E+01
    -14.790  0.0000E+00  0.2000E+01
    -14.718  0.0000E+00  0.2000E+01
    -14.645  0.0000E+00  0.2000E+01
    -14.573  0.0000E+00  0.2000E+01
    -14.501  0.0000E+00  0.2000E+01
    -14.428  0.0000E+00  0.2000E+01
    -14.356  0.0000E+00  0.2000E+01
    -14.284  0.0000E+00  0.2000E+01
    -14.211  0.0000E+00  0.2000E+01
    -14.139  0.0000E+00  0.2000E+01
    -14.066  0.0000E+00  0.2000E+01
    -13.994  0.0000E+00  0.2000E+01
    -13.922  0.0000E+00  0.2000E+01
    -13.849  0.0000E+00  0.2000E+01
    -13.777  0.0000E+00  0.2000E+01
    -13.705  0.0000E+00  0.2000E+01
    -13.632  0.0000E+00  0.2000E+01
    -13.560  0.0000E+00  0.2000E+01
    -13.488  0.0000E+00  0.2000E+01
    -13.415  0.0000E+00  0.2000E+01
    -13.343  0.0000E+00  0.2000E+01
    -13.270  0.0000E+00  0.2000E+01
    -13.198  0.0000E+00  0.2000E+01
    -13.126  0.0000E+00  0.2000E+01
    -13.053  0.0000E+00  0.2000E+01
    -12.981  0.0000E+00  0.2000E+01
    -12.909  0.0000E+00  0.2000E+01
    -12.836  0.0000E+00  0.2000E+01
    -12.764  0.0000E+00  0.2000E+01
    -12.692  0.0000E+00  0.2000E+01
    -12.619  0.0000E+00  0.2000E+01
    -12.547  0.0000E+00  0.2000E+01
    -12.474  0.0000E+00  0.2000E+01
    -12.402  0.0000E+00  0.2000E+01
    -12.330  0.0000E+00  0.2000E+01
    -12.257  0.0000E+00  0.2000E+01
    -12.185  0.0000E+00  0.2000E+01
    -12.113  0.0000E+00  0.2000E+01
    -12.040  0.0000E+00  0.2000E+01
    -11.968  0.0000E+00  0.2000E+01
    -11.896  0.0000E+00  0.2000E+01
    -11.823  0.0000E+00  0.2000E+01
    -11.751  0.0000E+00  0.2000E+01
    -11.678  0.0000E+00  0.2000E+01
    -11.606  0.0000E+00  0.2000E+01
    -11.534  0.0000E+00  0.2000E+01
    -11.461  0.0000E+00  0.2000E+01
    -11.389  0.0000E+00  0.2000E+01
    -11.317  0.0000E+00  0.2000E+01
    -11.244  0.0000E+00  0.2000E+01
    -11.172  0.0000E+00  0.2000E+01
    -11.100  0.0000E+00  0.2000E+01
    -11.027 -0.6368E-27  0.2000E+01
    -10.955 -0.1975E-24  0.2000E+01
    -10.883 -0.4703E-22  0.2000E+01
    -10.810 -0.8602E-20  0.2000E+01
    -10.738 -0.1208E-17  0.2000E+01
    -10.665 -0.1302E-15  0.2000E+01
    -10.593 -0.1076E-13  0.2000E+01
    -10.521 -0.6609E-12  0.2000E+01
    -10.448 -0.3200E-10  0.2000E+01
    -10.376 -0.1186E-08  0.2000E+01
    -10.304 -0.3361E-07  0.2000E+01
    -10.231 -0.7277E-06  0.2000E+01
    -10.159 -0.1202E-04  0.2000E+01
    -10.087 -0.1511E-03  0.2000E+01
    -10.014 -0.1440E-02  0.2000E+01
     -9.942 -0.1035E-01  0.1999E+01
     -9.869 -0.5557E-01  0.1995E+01
     -9.797 -0.2185E+00  0.1979E+01
     -9.725 -0.6024E+00  0.1936E+01
     -9.652 -0.1019E+01  0.1862E+01
     -9.580 -0.3534E+00  0.1836E+01
     -9.508  0.3429E+01  0.2085E+01
     -9.435  0.1119E+02  0.2894E+01
     -9.363  0.1977E+02  0.4325E+01
     -9.291  0.2314E+02  0.6000E+01
     -9.218  0.1846E+02  0.7335E+01
     -9.146  0.9468E+01  0.8020E+01
     -9.073  0.2231E+01  0.8182E+01
     -9.001 -0.7881E+00  0.8125E+01
     -8.929 -0.1014E+01  0.8051E+01
     -8.856 -0.5057E+00  0.8015E+01
     -8.784 -0.1612E+00  0.8003E+01
     -8.712 -0.3627E-01  0.8000E+01
     -8.639 -0.5971E-02  0.8000E+01
     -8.567 -0.7324E-03  0.8000E+01
     -8.495 -0.6761E-04  0.8000E+01
     -8.422 -0.4726E-05  0.8000E+01
     -8.350 -0.2512E-06  0.8000E+01
     -8.277 -0.1018E-07  0.8000E+01
     -8.205 -0.3152E-09  0.8000E+01
     -8.133 -0.7470E-11  0.8000E+01
     -8.060 -0.1350E-12  0.8000E+01
     -7.988  0.0000E+00  0.8000E+01
     -7.916  0.0000E+00  0.8000E+01
     -7.843  0.0000E+00  0.8000E+01
     -7.771  0.0000E+00  0.8000E+01
     -7.699  0.0000E+00  0.8000E+01
     -7.626  0.0000E+00  0.8000E+01
     -7.554  0.0000E+00  0.8000E+01
     -7.481  0.0000E+00  0.8000E+01
     -7.409  0.0000E+00  0.8000E+01
     -7.337  0.0000E+00  0.8000E+01
     -7.264  0.0000E+00  0.8000E+01
     -7.192  0.0000E+00  0.8000E+01
     -7.120  0.0000E+00  0.8000E+01
     -7.047  0.0000E+00  0.8000E+01
     -6.975  0.0000E+00  0.8000E+01
     -6.903  0.0000E+00  0.8000E+01
     -6.830  0.0000E+00  0.8000E+01
     -6.758  0.0000E+00  0.8000E+01
     -6.685  0.0000E+00  0.8000E+01
     -6.613  0.0000E+00  0.8000E+01
     -6.541  0.0000E+00  0.8000E+01
     -6.468  0.0000E+00  0.8000E+01
     -6.396  0.0000E+00  0.8000E+01
     -6.324  0.0000E+00  0.8000E+01
     -6.251  0.0000E+00  0.8000E+01
     -6.179  0.0000E+00  0.8000E+01
     -6.107  0.0000E+00  0.8000E+01
     -6.034  0.0000E+00  0.8000E+01
     -5.962  0.0000E+00  0.8000E+01
     -5.889  0.0000E+00  0.8000E+01
     -5.817  0.0000E+00  0.8000E+01
     -5.745  0.0000E+00  0.8000E+01
     -5.672  0.0000E+00  0.8000E+01
     -5.600  0.0000E+00  0.8000E+01
     -5.528  0.0000E+00  0.8000E+01
     -5.455  0.0000E+00  0.8000E+01
     -5.383  0.0000E+00  0.8000E+01
     -5.311  0.0000E+00  0.8000E+01
     -5.238  0.0000E+00  0.8000E+01
     -5.166  0.0000E+00  0.8000E+01
     -5.093  0.0000E+00  0.8000E+01
     -5.021  0.0000E+00  0.8000E+01
     -4.949  0.0000E+00  0.8000E+01
     -4.876  0.0000E+00  0.8000E+01
     -4.804  0.0000E+00  0.8000E+01
     -4.732  0.0000E+00  0.8000E+01
     -4.659  0.0000E+00  0.8000E+01
     -4.587  0.0000E+00  0.8000E+01
     -4.515  0.0000E+00  0.8000E+01
     -4.442  0.0000E+00  0.8000E+01
     -4.370  0.0000E+00  0.8000E+01
     -4.297  0.0000E+00  0.8000E+01
     -4.225  0.0000E+00  0.8000E+01
     -4.153  0.0000E+00  0.8000E+01
     -4.080  0.0000E+00  0.8000E+01
     -4.008  0.0000E+00  0.8000E+01
     -3.936  0.0000E+00  0.8000E+01
     -3.863  0.0000E+00  0.8000E+01
     -3.791  0.0000E+00  0.8000E+01
     -3.719  0.0000E+00  0.8000E+01
     -3.646  0.0000E+00  0.8000E+01
     -3.574  0.0000E+00  0.8000E+01
     -3.501  0.0000E+00  0.8000E+01
     -3.429  0.0000E+00  0.8000E+01
     -3.357  0.0000E+00  0.8000E+01
     -3.284  0.0000E+00  0.8000E+01
     -3.212  0.0000E+00  0.8000E+01
     -3.140  0.0000E+00  0.8000E+01
     -3.067  0.0000E+00  0.8000E+01
     -2.995  0.0000E+00  0.8000E+01
     -2.923  0.0000E+00  0.8000E+01
     -2.850  0.0000E+00  0.8000E+01
     -2.778  0.0000E+00  0.8000E+01
     -2.705  0.0000E+00  0.8000E+01
     -2.633  0.0000E+00  0.8000E+01
     -2.561  0.0000E+00  0.8000E+01
     -2.488  0.0000E+00  0.8000E+01
     -2.416  0.0000E+00  0.8000E+01
     -2.344  0.0000E+00  0.8000E+01
     -2.271  0.0000E+00  0.8000E+01
     -2.199  0.0000E+00  0.8000E+01
     -2.127  0.0000E+00  0.8000E+01
     -2.054  0.0000E+00  0.8000E+01
     -1.982  0.0000E+00  0.8000E+01
     -1.910 -0.2714E-26  0.8000E+01
     -1.837 -0.7855E-24  0.8000E+01
     -1.765 -0.1750E-21  0.8000E+01
     -1.692 -0.2993E-19  0.8000E+01
     -1.620 -0.3928E-17  0.8000E+01
     -1.548 -0.3953E-15  0.8000E+01
     -1.475 -0.2896E-13  0.8000E+01
     -1.403 -0.1746E-11  0.8000E+01
     -1.331 -0.7854E-10  0.8000E+01
     -1.258 -0.2701E-08  0.8000E+01
     -1.186 -0.7081E-07  0.8000E+01
     -1.114 -0.1412E-05  0.8000E+01
     -1.041 -0.2136E-04  0.8000E+01
     -0.969 -0.2439E-03  0.8000E+01
     -0.896 -0.2088E-02  0.8000E+01
     -0.824 -0.1325E-01  0.7999E+01
     -0.752 -0.6118E-01  0.7994E+01
     -0.679 -0.1976E+00  0.7980E+01
     -0.607 -0.4026E+00  0.7951E+01
     -0.535 -0.3017E+00  0.7929E+01
     -0.462  0.9567E+00  0.7998E+01
     -0.390  0.3863E+01  0.8278E+01
     -0.318  0.7150E+01  0.8795E+01
     -0.245  0.8264E+01  0.9393E+01
     -0.173  0.6194E+01  0.9842E+01
     -0.100  0.2767E+01  0.1004E+02
     -0.028  0.3630E+00  0.1007E+02
      0.044 -0.4246E+00  0.1004E+02
      0.117 -0.3933E+00  0.1001E+02
      0.189 -0.3408E+00  0.9984E+01
      0.261 -0.5655E+00  0.9943E+01
      0.334 -0.8590E+00  0.9881E+01
      0.406 -0.2583E+00  0.9862E+01
      0.478  0.2876E+01  0.1007E+02
      0.551  0.9412E+01  0.1075E+02
      0.623  0.1733E+02  0.1201E+02
      0.696  0.2187E+02  0.1359E+02
      0.768  0.1950E+02  0.1500E+02
      0.840  0.1183E+02  0.1586E+02
      0.913  0.4093E+01  0.1615E+02
      0.985 -0.1006E+00  0.1614E+02
      1.057 -0.1026E+01  0.1607E+02
      1.130 -0.6516E+00  0.1602E+02
      1.202 -0.2424E+00  0.1601E+02
      1.274 -0.6194E-01  0.1600E+02
      1.347 -0.1144E-01  0.1600E+02
      1.419 -0.1564E-02  0.1600E+02
      1.492 -0.1601E-03  0.1600E+02
      1.564 -0.1237E-04  0.1600E+02
      1.636 -0.7251E-06  0.1600E+02
      1.709 -0.3236E-07  0.1600E+02
      1.781 -0.1102E-08  0.1600E+02
      1.853 -0.2868E-10  0.1600E+02
      1.926 -0.5738E-12  0.1600E+02
      1.998 -0.6137E-14  0.1600E+02
      2.070  0.0000E+00  0.1600E+02
      2.143  0.0000E+00  0.1600E+02
      2.215  0.0000E+00  0.1600E+02
      2.288  0.0000E+00  0.1600E+02
      2.360  0.0000E+00  0.1600E+02
      2.432  0.0000E+00  0.1600E+02
      2.505  0.0000E+00  0.1600E+02
      2.577  0.0000E+00  0.1600E+02
      2.649  0.0000E+00  0.1600E+02
      2.722  0.0000E+00  0.1600E+02
      2.70891572    -18.70433538  301     -8.89525298      1.00000000
    -18.704  0.0000E+00  0.0000E+00
    -18.633  0.0000E+00  0.0000E+00
    -18.562  0.0000E+00  0.0000E+00
    -18.490  0.0000E+00  0.0000E+00
    -18.419  0.0000E+00  0.0000E+00
    -18.347 -0.3155E-27 -0.2252E-28
    -18.276 -0.9325E-25 -0.6679E-26
    -18.205 -0.2137E-22 -0.1532E-23
    -18.133 -0.3787E-20 -0.2719E-21
    -18.062 -0.5187E-18 -0.3729E-19
    -17.991 -0.5488E-16 -0.3954E-17
    -17.919 -0.4484E-14 -0.3240E-15
    -17.848 -0.2735E-12 -0.1984E-13
    -17.776 -0.1328E-10 -0.9680E-12
    -17.705 -0.4952E-09 -0.3631E-10
    -17.634 -0.1419E-07 -0.1049E-08
    -17.562 -0.3121E-06 -0.2333E-07
    -17.491 -0.5252E-05 -0.3982E-06
    -17.420 -0.6740E-04 -0.5209E-05
    -17.348 -0.6561E-03 -0.5204E-04
    -17.277 -0.4805E-02 -0.3950E-03
    -17.205 -0.2613E-01 -0.2260E-02
    -17.134 -0.1030E+00 -0.9610E-02
    -17.063 -0.2788E+00 -0.2951E-01
    -16.991 -0.4394E+00 -0.6087E-01
    -16.920 -0.2811E-01 -0.6287E-01
    -16.849  0.1806E+01  0.6601E-01
    -16.777  0.5053E+01  0.4267E+00
    -16.706  0.7861E+01  0.9878E+00
    -16.634  0.7928E+01  0.1554E+01
    -16.563  0.5193E+01  0.1924E+01
    -16.492  0.1916E+01  0.2061E+01
    -16.420  0.1365E-01  0.2062E+01
    -16.349 -0.4394E+00  0.2031E+01
    -16.278 -0.2875E+00  0.2010E+01
    -16.206 -0.1081E+00  0.2002E+01
    -16.135 -0.2780E-01  0.2000E+01
    -16.063 -0.5177E-02  0.2000E+01
    -15.992 -0.7152E-03  0.2000E+01
    -15.921 -0.7432E-04  0.2000E+01
    -15.849 -0.5856E-05  0.2000E+01
    -15.778 -0.3518E-06  0.2000E+01
    -15.706 -0.1617E-07  0.2000E+01
    -15.635 -0.5703E-09  0.2000E+01
    -15.564 -0.1547E-10  0.2000E+01
    -15.492 -0.3173E-12  0.2000E+01
    -15.421 -0.6222E-14  0.2000E+01
    -15.350  0.0000E+00  0.2000E+01
    -15.278  0.0000E+00  0.2000E+01
    -15.207  0.0000E+00  0.2000E+01
    -15.135  0.0000E+00  0.2000E+01
    -15.064  0.0000E+00  0.2000E+01
    -14.993  0.0000E+00  0.2000E+01
    -14.921  0.0000E+00  0.2000E+01
    -14.850  0.0000E+00  0.2000E+01
    -14.779  0.0000E+00  0.2000E+01
    -14.707  0.0000E+00  0.2000E+01
    -14.636  0.0000E+00  0.2000E+01
    -14.564  0.0000E+00  0.2000E+01
    -14.493  0.0000E+00  0.2000E+01
    -14.422  0.0000E+00  0.2000E+01
    -14.350  0.0000E+00  0.2000E+01
    -14.279  0.0000E+00  0.2000E+01
    -14.208  0.0000E+00  0.2000E+01
    -14.136  0.0000E+00  0.2000E+01
    -14.065  0.0000E+00  0.2000E+01
    -13.993  0.0000E+00  0.2000E+01
    -13.922  0.0000E+00  0.2000E+01
    -13.851  0.0000E+00  0.2000E+01
    -13.779  0.0000E+00  0.2000E+01
    -13.708  0.0000E+00  0.2000E+01
    -13.637  0.0000E+00  0.2000E+01
    -13.565  0.0000E+00  0.2000E+01
    -13.494  0.0000E+00  0.2000E+01
    -13.422  0.0000E+00  0.2000E+01
    -13.351  0.0000E+00  0.2000E+01
    -13.280  0.0000E+00  0.2000E+01
    -13.208  0.0000E+00  0.2000E+01
    -13.137  0.0000E+00  0.2000E+01
    -13.066  0.0000E+00  0.2000E+01
    -12.994  0.0000E+00  0.2000E+01
    -12.923  0.0000E+00  0.2000E+01
    -12.851  0.0000E+00  0.2000E+01
    -12.780  0.0000E+00  0.2000E+01
    -12.709  0.0000E+00  0.2000E+01
    -12.637  0.0000E+00  0.2000E+01
    -12.566  0.0000E+00  0.2000E+01
    -12.494  0.0000E+00  0.2000E+01
    -12.423  0.0000E+00  0.2000E+01
    -12.352  0.0000E+00  0.2000E+01
    -12.280  0.0000E+00  0.2000E+01
    -12.209  0.0000E+00  0.2000E+01
    -12.138  0.0000E+00  0.2000E+01
    -12.066  0.0000E+00  0.2000E+01
    -11.995  0.0000E+00  0.2000E+01
    -11.923  0.0000E+00  0.2000E+01
    -11.852  0.0000E+00  0.2000E+01
    -11.781  0.0000E+00  0.2000E+01
    -11.709  0.0000E+00  0.2000E+01
    -11.638  0.0000E+00  0.2000E+01
    -11.567  0.0000E+00  0.2000E+01
    -11.495  0.0000E+00  0.2000E+01
    -11.424  0.0000E+00  0.2000E+01
    -11.352  0.0000E+00  0.2000E+01
    -11.281  0.0000E+00  0.2000E+01
    -11.210  0.0000E+00  0.2000E+01
    -11.138  0.0000E+00  0.2000E+01
    -11.067 -0.2798E-27  0.2000E+01
    -10.996 -0.8315E-25  0.2000E+01
    -10.924 -0.1916E-22  0.2000E+01
    -10.853 -0.3413E-20  0.2000E+01
    -10.781 -0.4699E-18  0.2000E+01
    -10.710 -0.4998E-16  0.2000E+01
    -10.639 -0.4106E-14  0.2000E+01
    -10.567 -0.2525E-12  0.2000E+01
    -10.496 -0.1229E-10  0.2000E+01
    -10.425 -0.4608E-09  0.2000E+01
    -10.353 -0.1328E-07  0.2000E+01
    -10.282 -0.2936E-06  0.2000E+01
    -10.210 -0.4969E-05  0.2000E+01
    -10.139 -0.6413E-04  0.2000E+01
    -10.068 -0.6278E-03  0.2000E+01
     -9.996 -0.4625E-02  0.2000E+01
     -9.925 -0.2532E-01  0.1998E+01
     -9.854 -0.1005E+00  0.1991E+01
     -9.782 -0.2746E+00  0.1971E+01
     -9.711 -0.4413E+00  0.1940E+01
     -9.639 -0.6352E-01  0.1935E+01
     -9.568  0.1678E+01  0.2055E+01
     -9.497  0.4728E+01  0.2392E+01
     -9.425  0.7229E+01  0.2908E+01
     -9.354  0.7215E+01  0.3423E+01
     -9.283  0.5736E+01  0.3833E+01
     -9.211  0.6415E+01  0.4291E+01
     -9.140  0.1065E+02  0.5051E+01
     -9.068  0.1493E+02  0.6117E+01
     -8.997  0.1464E+02  0.7162E+01
     -8.926  0.9568E+01  0.7845E+01
     -8.854  0.3635E+01  0.8105E+01
     -8.783  0.1365E+00  0.8114E+01
     -8.711 -0.7721E+00  0.8059E+01
     -8.640 -0.5409E+00  0.8021E+01
     -8.569 -0.2152E+00  0.8005E+01
     -8.497 -0.5881E-01  0.8001E+01
     -8.426 -0.1169E-01  0.8000E+01
     -8.355 -0.1732E-02  0.8000E+01
     -8.283 -0.1940E-03  0.8000E+01
     -8.212 -0.1653E-04  0.8000E+01
     -8.140 -0.1077E-05  0.8000E+01
     -8.069 -0.5383E-07  0.8000E+01
     -7.998 -0.2068E-08  0.8000E+01
     -7.926 -0.6118E-10  0.8000E+01
     -7.855 -0.1398E-11  0.8000E+01
     -7.784 -0.2489E-13  0.8000E+01
     -7.712  0.0000E+00  0.8000E+01
     -7.641  0.0000E+00  0.8000E+01
     -7.569  0.0000E+00  0.8000E+01
     -7.498  0.0000E+00  0.8000E+01
     -7.427  0.0000E+00  0.8000E+01
     -7.355  0.0000E+00  0.8000E+01
     -7.284  0.0000E+00  0.8000E+01
     -7.213  0.0000E+00  0.8000E+01
     -7.141  0.0000E+00  0.8000E+01
     -7.070  0.0000E+00  0.8000E+01
     -6.998  0.0000E+00  0.8000E+01
     -6.927  0.0000E+00  0.8000E+01
     -6.856  0.0000E+00  0.8000E+01
     -6.784  0.0000E+00  0.8000E+01
     -6.713  0.0000E+00  0.8000E+01
     -6.642  0.0000E+00  0.8000E+01
     -6.570  0.0000E+00  0.8000E+01
     -6.499  0.0000E+00  0.8000E+01
     -6.427  0.0000E+00  0.8000E+01
     -6.356  0.0000E+00  0.8000E+01
     -6.285  0.0000E+00  0.8000E+01
     -6.213  0.0000E+00  0.8000E+01
     -6.142  0.0000E+00  0.8000E+01
     -6.071  0.0000E+00  0.8000E+01
     -5.999  0.0000E+00  0.8000E+01
     -5.928  0.0000E+00  0.8000E+01
     -5.856  0.0000E+00  0.8000E+01
     -5.785  0.0000E+00  0.8000E+01
     -5.714  0.0000E+00  0.8000E+01
     -5.642  0.0000E+00  0.8000E+01
     -5.571  0.0000E+00  0.8000E+01
     -5.499  0.0000E+00  0.8000E+01
     -5.428  0.0000E+00  0.8000E+01
     -5.357  0.0000E+00  0.8000E+01
     -5.285  0.0000E+00  0.8000E+01
     -5.214  0.0000E+00  0.8000E+01
     -5.143  0.0000E+00  0.8000E+01
     -5.071  0.0000E+00  0.8000E+01
     -5.000  0.0000E+00  0.8000E+01
     -4.928  0.0000E+00  0.8000E+01
     -4.857  0.0000E+00  0.8000E+01
     -4.786  0.0000E+00  0.8000E+01
     -4.714  0.0000E+00  0.8000E+01
     -4.643  0.0000E+00  0.8000E+01
     -4.572  0.0000E+00  0.8000E+01
     -4.500  0.0000E+00  0.8000E+01
     -4.429  0.0000E+00  0.8000E+01
     -4.357  0.0000E+00  0.8000E+01
     -4.286  0.0000E+00  0.8000E+01
     -4.215  0.0000E+00  0.8000E+01
     -4.143  0.0000E+00  0.8000E+01
     -4.072  0.0000E+00  0.8000E+01
     -4.001  0.0000E+00  0.8000E+01
     -3.929  0.0000E+00  0.8000E+01
     -3.858  0.0000E+00  0.8000E+01
     -3.786  0.0000E+00  0.8000E+01
     -3.715  0.0000E+00  0.8000E+01
     -3.644  0.0000E+00  0.8000E+01
     -3.572  0.0000E+00  0.8000E+01
     -3.501  0.0000E+00  0.8000E+01
     -3.430  0.0000E+00  0.8000E+01
     -3.358  0.0000E+00  0.8000E+01
     -3.287  0.0000E+00  0.8000E+01
     -3.215  0.0000E+00  0.8000E+01
     -3.144  0.0000E+00  0.8000E+01
     -3.073  0.0000E+00  0.8000E+01
     -3.001  0.0000E+00  0.8000E+01
     -2.930  0.0000E+00  0.8000E+01
     -2.859  0.0000E+00  0.8000E+01
     -2.787  0.0000E+00  0.8000E+01
     -2.716  0.0000E+00  0.8000E+01
     -2.644  0.0000E+00  0.8000E+01
     -2.573  0.0000E+00  0.8000E+01
     -2.502  0.0000E+00  0.8000E+01
     -2.430  0.0000E+00  0.8000E+01
     -2.359  0.0000E+00  0.8000E+01
     -2.288  0.0000E+00  0.8000E+01
     -2.216  0.0000E+00  0.8000E+01
     -2.145  0.0000E+00  0.8000E+01
     -2.073  0.0000E+00  0.8000E+01
     -2.002 -0.9803E-28  0.8000E+01
     -1.931 -0.3051E-25  0.8000E+01
     -1.859 -0.7360E-23  0.8000E+01
     -1.788 -0.1373E-20  0.8000E+01
     -1.716 -0.1980E-18  0.8000E+01
     -1.645 -0.2206E-16  0.8000E+01
     -1.574 -0.1898E-14  0.8000E+01
     -1.502 -0.1230E-12  0.8000E+01
     -1.431 -0.6242E-11  0.8000E+01
     -1.360 -0.2453E-09  0.8000E+01
     -1.288 -0.7410E-08  0.8000E+01
     -1.217 -0.1718E-06  0.8000E+01
     -1.145 -0.3052E-05  0.8000E+01
     -1.074 -0.4135E-04  0.8000E+01
     -1.003 -0.4256E-03  0.8000E+01
     -0.931 -0.3303E-02  0.8000E+01
     -0.860 -0.1909E-01  0.7998E+01
     -0.789 -0.8046E-01  0.7993E+01
     -0.717 -0.2365E+00  0.7976E+01
     -0.646 -0.4272E+00  0.7945E+01
     -0.574 -0.1993E+00  0.7931E+01
     -0.503  0.1300E+01  0.8024E+01
     -0.432  0.4355E+01  0.8335E+01
     -0.360  0.7463E+01  0.8867E+01
     -0.289  0.8182E+01  0.9451E+01
     -0.218  0.5870E+01  0.9870E+01
     -0.146  0.2497E+01  0.1005E+02
     -0.075  0.2565E+00  0.1007E+02
     -0.003 -0.4306E+00  0.1004E+02
      0.068 -0.3616E+00  0.1001E+02
      0.139 -0.2627E+00  0.9992E+01
      0.211 -0.4112E+00  0.9962E+01
      0.282 -0.7382E+00  0.9910E+01
      0.353 -0.6531E+00  0.9863E+01
      0.425  0.1151E+01  0.9945E+01
      0.496  0.5964E+01  0.1037E+02
      0.568  0.1330E+02  0.1132E+02
      0.639  0.1984E+02  0.1274E+02
      0.710  0.2130E+02  0.1426E+02
      0.782  0.1636E+02  0.1542E+02
      0.853  0.8343E+01  0.1602E+02
      0.924  0.2018E+01  0.1616E+02
      0.996 -0.6820E+00  0.1612E+02
      1.067 -0.9290E+00  0.1605E+02
      1.139 -0.4823E+00  0.1601E+02
      1.210 -0.1606E+00  0.1600E+02
      1.281 -0.3787E-01  0.1600E+02
      1.353 -0.6572E-02  0.1600E+02
      1.424 -0.8545E-03  0.1600E+02
      1.495 -0.8412E-04  0.1600E+02
      1.567 -0.6310E-05  0.1600E+02
      1.638 -0.3622E-06  0.1600E+02
      1.710 -0.1596E-07  0.1600E+02
      1.781 -0.5409E-09  0.1600E+02
      1.852 -0.1413E-10  0.1600E+02
      1.924 -0.2815E-12  0.1600E+02
      1.995 -0.6222E-14  0.1600E+02
      2.067  0.0000E+00  0.1600E+02
      2.138  0.0000E+00  0.1600E+02
      2.209  0.0000E+00  0.1600E+02
      2.281  0.0000E+00  0.1600E+02
      2.352  0.0000E+00  0.1600E+02
      2.423  0.0000E+00  0.1600E+02
      2.495  0.0000E+00  0.1600E+02
      2.566  0.0000E+00  0.1600E+02
      2.638  0.0000E+00  0.1600E+02
      2.709  0.0000E+00  0.1600E+02
      2.70702327    -18.60357326  301     -8.70919892      1.00000000
    -18.604  0.0000E+00  0.0000E+00
    -18.533  0.0000E+00  0.0000E+00
    -18.462  0.0000E+00  0.0000E+00
    -18.390  0.0000E+00  0.0000E+00
    -18.319  0.0000E+00  0.0000E+00
    -18.248 -0.2758E-27 -0.1959E-28
    -18.177 -0.7986E-25 -0.5693E-26
    -18.106 -0.1798E-22 -0.1283E-23
    -18.035 -0.3136E-20 -0.2240E-21
    -17.964 -0.4238E-18 -0.3033E-19
    -17.893 -0.4437E-16 -0.3182E-17
    -17.822 -0.3595E-14 -0.2586E-15
    -17.751 -0.2192E-12 -0.1583E-13
    -17.680 -0.1056E-10 -0.7658E-12
    -17.609 -0.3934E-09 -0.2871E-10
    -17.538 -0.1130E-07 -0.8313E-09
    -17.467 -0.2496E-06 -0.1856E-07
    -17.396 -0.4233E-05 -0.3192E-06
    -17.325 -0.5488E-04 -0.4218E-05
    -17.254 -0.5415E-03 -0.4268E-04
    -17.183 -0.4034E-02 -0.3292E-03
    -17.112 -0.2241E-01 -0.1921E-02
    -17.041 -0.9081E-01 -0.8372E-02
    -16.970 -0.2557E+00 -0.2654E-01
    -16.899 -0.4349E+00 -0.5743E-01
    -16.828 -0.1359E+00 -0.6708E-01
    -16.757  0.1488E+01  0.3864E-01
    -16.686  0.4610E+01  0.3661E+00
    -16.615  0.7612E+01  0.9069E+00
    -16.544  0.8116E+01  0.1483E+01
    -16.473  0.5675E+01  0.1887E+01
    -16.401  0.2334E+01  0.2052E+01
    -16.330  0.1908E+00  0.2066E+01
    -16.259 -0.4308E+00  0.2035E+01
    -16.188 -0.3222E+00  0.2012E+01
    -16.117 -0.1307E+00  0.2003E+01
    -16.046 -0.3585E-01  0.2001E+01
    -15.975 -0.7093E-02  0.2000E+01
    -15.904 -0.1041E-02  0.2000E+01
    -15.833 -0.1150E-03  0.2000E+01
    -15.762 -0.9650E-05  0.2000E+01
    -15.691 -0.6183E-06  0.2000E+01
    -15.620 -0.3037E-07  0.2000E+01
    -15.549 -0.1147E-08  0.2000E+01
    -15.478 -0.3337E-10  0.2000E+01
    -15.407 -0.7502E-12  0.2000E+01
    -15.336 -0.1250E-13  0.2000E+01
    -15.265  0.0000E+00  0.2000E+01
    -15.194  0.0000E+00  0.2000E+01
    -15.123  0.0000E+00  0.2000E+01
    -15.052  0.0000E+00  0.2000E+01
    -14.981  0.0000E+00  0.2000E+01
    -14.910  0.0000E+00  0.2000E+01
    -14.839  0.0000E+00  0.2000E+01
    -14.768  0.0000E+00  0.2000E+01
    -14.697  0.0000E+00  0.2000E+01
    -14.626  0.0000E+00  0.2000E+01
    -14.555  0.0000E+00  0.2000E+01
    -14.484  0.0000E+00  0.2000E+01
    -14.412  0.0000E+00  0.2000E+01
    -14.341  0.0000E+00  0.2000E+01
    -14.270  0.0000E+00  0.2000E+01
    -14.199  0.0000E+00  0.2000E+01
    -14.128  0.0000E+00  0.2000E+01
    -14.057  0.0000E+00  0.2000E+01
    -13.986  0.0000E+00  0.2000E+01
    -13.915  0.0000E+00  0.2000E+01
    -13.844  0.0000E+00  0.2000E+01
    -13.773  0.0000E+00  0.2000E+01
    -13.702  0.0000E+00  0.2000E+01
    -13.631  0.0000E+00  0.2000E+01
    -13.560  0.0000E+00  0.2000E+01
    -13.489  0.0000E+00  0.2000E+01
    -13.418  0.0000E+00  0.2000E+01
    -13.347  0.0000E+00  0.2000E+01
    -13.276  0.0000E+00  0.2000E+01
    -13.205  0.0000E+00  0.2000E+01
    -13.134  0.0000E+00  0.2000E+01
    -13.063  0.0000E+00  0.2000E+01
    -12.992  0.0000E+00  0.2000E+01
    -12.921  0.0000E+00  0.2000E+01
    -12.850  0.0000E+00  0.2000E+01
    -12.779  0.0000E+00  0.2000E+01
    -12.708  0.0000E+00  0.2000E+01
    -12.637  0.0000E+00  0.2000E+01
    -12.566  0.0000E+00  0.2000E+01
    -12.495  0.0000E+00  0.2000E+01
    -12.424  0.0000E+00  0.2000E+01
    -12.352  0.0000E+00  0.2000E+01
    -12.281  0.0000E+00  0.2000E+01
    -12.210  0.0000E+00  0.2000E+01
    -12.139  0.0000E+00  0.2000E+01
    -12.068  0.0000E+00  0.2000E+01
    -11.997  0.0000E+00  0.2000E+01
    -11.926  0.0000E+00  0.2000E+01
    -11.855  0.0000E+00  0.2000E+01
    -11.784  0.0000E+00  0.2000E+01
    -11.713  0.0000E+00  0.2000E+01
    -11.642  0.0000E+00  0.2000E+01
    -11.571  0.0000E+00  0.2000E+01
    -11.500  0.0000E+00  0.2000E+01
    -11.429  0.0000E+00  0.2000E+01
    -11.358  0.0000E+00  0.2000E+01
    -11.287  0.0000E+00  0.2000E+01
    -11.216  0.0000E+00  0.2000E+01
    -11.145  0.0000E+00  0.2000E+01
    -11.074 -0.4625E-26  0.2000E+01
    -11.003 -0.1181E-23  0.2000E+01
    -10.932 -0.2346E-21  0.2000E+01
    -10.861 -0.3610E-19  0.2000E+01
    -10.790 -0.4304E-17  0.2000E+01
    -10.719 -0.3973E-15  0.2000E+01
    -10.648 -0.2682E-13  0.2000E+01
    -10.577 -0.1519E-11  0.2000E+01
    -10.506 -0.6456E-10  0.2000E+01
    -10.435 -0.2117E-08  0.2000E+01
    -10.363 -0.5346E-07  0.2000E+01
    -10.292 -0.1037E-05  0.2000E+01
    -10.221 -0.1543E-04  0.2000E+01
    -10.150 -0.1750E-03  0.2000E+01
    -10.079 -0.1506E-02  0.2000E+01
    -10.008 -0.9732E-02  0.1999E+01
     -9.937 -0.4647E-01  0.1996E+01
     -9.866 -0.1589E+00  0.1985E+01
     -9.795 -0.3600E+00  0.1959E+01
     -9.724 -0.3994E+00  0.1931E+01
     -9.653  0.4474E+00  0.1962E+01
     -9.582  0.2866E+01  0.2166E+01
     -9.511  0.6161E+01  0.2604E+01
     -9.440  0.7993E+01  0.3171E+01
     -9.369  0.6730E+01  0.3650E+01
     -9.298  0.3817E+01  0.3921E+01
     -9.227  0.2489E+01  0.4098E+01
     -9.156  0.4191E+01  0.4395E+01
     -9.085  0.7302E+01  0.4914E+01
     -9.014  0.9516E+01  0.5590E+01
     -8.943  0.1026E+02  0.6318E+01
     -8.872  0.9871E+01  0.7020E+01
     -8.801  0.8085E+01  0.7594E+01
     -8.730  0.4927E+01  0.7944E+01
     -8.659  0.1764E+01  0.8069E+01
     -8.588 -0.4023E-01  0.8066E+01
     -8.517 -0.4696E+00  0.8033E+01
     -8.446 -0.3086E+00  0.8011E+01
     -8.374 -0.1186E+00  0.8003E+01
     -8.303 -0.3139E-01  0.8000E+01
     -8.232 -0.6028E-02  0.8000E+01
     -8.161 -0.8610E-03  0.8000E+01
     -8.090 -0.9269E-04  0.8000E+01
     -8.019 -0.7583E-05  0.8000E+01
     -7.948 -0.4741E-06  0.8000E+01
     -7.877 -0.2273E-07  0.8000E+01
     -7.806 -0.8380E-09  0.8000E+01
     -7.735 -0.2380E-10  0.8000E+01
     -7.664 -0.5236E-12  0.8000E+01
     -7.593 -0.6252E-14  0.8000E+01
     -7.522  0.0000E+00  0.8000E+01
     -7.451  0.0000E+00  0.8000E+01
     -7.380  0.0000E+00  0.8000E+01
     -7.309  0.0000E+00  0.8000E+01
     -7.238  0.0000E+00  0.8000E+01
     -7.167  0.0000E+00  0.8000E+01
     -7.096  0.0000E+00  0.8000E+01
     -7.025  0.0000E+00  0.8000E+01
     -6.954  0.0000E+00  0.8000E+01
     -6.883  0.0000E+00  0.8000E+01
     -6.812  0.0000E+00  0.8000E+01
     -6.741  0.0000E+00  0.8000E+01
     -6.670  0.0000E+00  0.8000E+01
     -6.599  0.0000E+00  0.8000E+01
     -6.528  0.0000E+00  0.8000E+01
     -6.457  0.0000E+00  0.8000E+01
     -6.385  0.0000E+00  0.8000E+01
     -6.314  0.0000E+00  0.8000E+01
     -6.243  0.0000E+00  0.8000E+01
     -6.172  0.0000E+00  0.8000E+01
     -6.101  0.0000E+00  0.8000E+01
     -6.030  0.0000E+00  0.8000E+01
     -5.959  0.0000E+00  0.8000E+01
     -5.888  0.0000E+00  0.8000E+01
     -5.817  0.0000E+00  0.8000E+01
     -5.746  0.0000E+00  0.8000E+01
     -5.675  0.0000E+00  0.8000E+01
     -5.604  0.0000E+00  0.8000E+01
     -5.533  0.0000E+00  0.8000E+01
     -5.462  0.0000E+00  0.8000E+01
     -5.391  0.0000E+00  0.8000E+01
     -5.320  0.0000E+00  0.8000E+01
     -5.249  0.0000E+00  0.8000E+01
     -5.178  0.0000E+00  0.8000E+01
     -5.107  0.0000E+00  0.8000E+01
     -5.036  0.0000E+00  0.8000E+01
     -4.965  0.0000E+00  0.8000E+01
     -4.894  0.0000E+00  0.8000E+01
     -4.823  0.0000E+00  0.8000E+01
     -4.752  0.0000E+00  0.8000E+01
     -4.681  0.0000E+00  0.8000E+01
     -4.610  0.0000E+00  0.8000E+01
     -4.539  0.0000E+00  0.8000E+01
     -4.468  0.0000E+00  0.8000E+01
     -4.397  0.0000E+00  0.8000E+01
     -4.325  0.0000E+00  0.8000E+01
     -4.254  0.0000E+00  0.8000E+01
     -4.183  0.0000E+00  0.8000E+01
     -4.112  0.0000E+00  0.8000E+01
     -4.041  0.0000E+00  0.8000E+01
     -3.970  0.0000E+00  0.8000E+01
     -3.899  0.0000E+00  0.8000E+01
     -3.828  0.0000E+00  0.8000E+01
     -3.757  0.0000E+00  0.8000E+01
     -3.686  0.0000E+00  0.8000E+01
     -3.615  0.0000E+00  0.8000E+01
     -3.544  0.0000E+00  0.8000E+01
     -3.473  0.0000E+00  0.8000E+01
     -3.402  0.0000E+00  0.8000E+01
     -3.331  0.0000E+00  0.8000E+01
     -3.260  0.0000E+00  0.8000E+01
     -3.189  0.0000E+00  0.8000E+01
     -3.118  0.0000E+00  0.8000E+01
     -3.047  0.0000E+00  0.8000E+01