    5    5    1    1
  0.1929145E+03  0.9758886E-09  0.1004070E-08  0.9844119E-09  0.2000000E-14
   50.000000000000000     
  CAR 
 unknown system                          
      8      4      8

  0.2500000E+00  0.2500000E+00  0.2500000E+00  0.2500000E+00
    1      -16.849032   1.000000
    2       -9.517238   1.000005
    3       -9.234089   1.006395
    4       -8.983421   0.993520
    5       -0.305500   0.000000
    6        0.583705   0.000000
    7        0.695746   0.000000
    8        0.722777   0.000000

 -0.2500000E+00  0.2500000E+00  0.2500000E+00  0.2500000E+00
    1      -16.848996   1.000000
    2       -9.517418   1.000005
    3       -9.234094   1.006394
    4       -8.983544   0.993669
    5       -0.306030   0.000000
    6        0.570699   0.000000
    7        0.689405   0.000000
    8        0.742786   0.000000

  0.2500000E+00 -0.2500000E+00  0.2500000E+00  0.2500000E+00
    1      -16.848985   1.000000
    2       -9.517303   1.000005
    3       -9.234148   1.006388
    4       -8.983488   0.993601
    5       -0.307146   0.000000
    6        0.573210   0.000000
    7        0.709034   0.000000
    8        0.732929   0.000000

 -0.2500000E+00 -0.2500000E+00  0.2500000E+00  0.2500000E+00
    1      -16.849048   1.000000
    2       -9.517318   1.000005
    3       -9.234118   1.006392
    4       -8.983505   0.993622
    5       -0.306235   0.000000
    6        0.572587   0.000000
    7        0.697011   0.000000
    8        0.740125   0.000000
