       N       E                     dE             d eps       ncg     rms          rms(c)
DAV:   1     0.938768841410E+01    0.93877E+01   -0.19919E+03   104   0.410E+02
DAV:   2    -0.240735005654E+02   -0.33461E+02   -0.33461E+02    64   0.111E+02
DAV:   3    -0.276308115597E+02   -0.35573E+01   -0.35689E+01    64   0.418E+01
DAV:   4    -0.277607294988E+02   -0.12992E+00   -0.12978E+00   128   0.876E+00
DAV:   5    -0.277607660083E+02   -0.36510E-04   -0.36510E-04    96   0.164E-01    0.900E+00
RMM:   6    -0.246748571504E+02    0.30859E+01   -0.57648E+00    64   0.148E+01    0.443E+00
RMM:   7    -0.241512266254E+02    0.52363E+00   -0.13821E+00    64   0.683E+00    0.243E+00
RMM:   8    -0.240353897254E+02    0.11584E+00   -0.13255E-01    64   0.240E+00    0.805E-01
RMM:   9    -0.240086925407E+02    0.26697E-01   -0.32997E-02    64   0.139E+00    0.543E-01
RMM:  10    -0.239926656265E+02    0.16027E-01   -0.19969E-02    64   0.826E-01    0.319E-01
RMM:  11    -0.239919302122E+02    0.73541E-03   -0.37855E-03    64   0.424E-01    0.199E-01
RMM:  12    -0.239894445293E+02    0.24857E-02   -0.41790E-03    64   0.429E-01    0.396E-01
RMM:  13    -0.239891491195E+02    0.29541E-03   -0.48742E-04    64   0.131E-01    0.284E-01
RMM:  14    -0.239926081119E+02   -0.34590E-02   -0.31916E-03    64   0.342E-01    0.243E-01
RMM:  15    -0.239971663568E+02   -0.45582E-02   -0.14283E-03    64   0.239E-01    0.277E-01
RMM:  16    -0.239976469330E+02   -0.48058E-03   -0.88594E-04    64   0.188E-01    0.430E-02
RMM:  17    -0.239982297242E+02   -0.58279E-03   -0.58464E-05    64   0.619E-02    0.917E-03
RMM:  18    -0.239991697683E+02   -0.94004E-03   -0.12059E-04    64   0.619E-02    0.422E-02
RMM:  19    -0.239993853853E+02   -0.21562E-03   -0.34557E-05    64   0.347E-02    0.127E-02
RMM:  20    -0.239994547845E+02   -0.69399E-04   -0.11476E-05    64   0.220E-02    0.214E-02
RMM:  21    -0.239995022031E+02   -0.47419E-04   -0.15824E-05    64   0.250E-02    0.104E-02
RMM:  22    -0.239995043573E+02   -0.21542E-05   -0.19075E-06    48   0.958E-03    0.398E-03
RMM:  23    -0.239995082705E+02   -0.39131E-05   -0.13421E-06    48   0.849E-03    0.142E-03
RMM:  24    -0.239995107844E+02   -0.25139E-05   -0.30163E-07    48   0.456E-03    0.851E-04
RMM:  25    -0.239995111863E+02   -0.40191E-06   -0.45888E-08    44   0.179E-03
    1 T=   116. E= -.23939617E+02 F= -.23999511E+02 E0= -.24011990E+02  EK= 0.59756E-01 SP= 0.00E+00 SK= 0.14E-03
       N       E                     dE             d eps       ncg     rms          rms(c)
DAV:   1    -0.239939502090E+02    0.55606E-02   -0.43584E+00    64   0.191E+01    0.112E+00
RMM:   2    -0.239787957623E+02    0.15154E-01   -0.32017E-01    64   0.335E+00    0.893E-01
RMM:   3    -0.239772680600E+02    0.15277E-02   -0.15122E-02    64   0.102E+00    0.968E-01
RMM:   4    -0.239638111795E+02    0.13457E-01   -0.49415E-02    64   0.131E+00    0.416E-01
RMM:   5    -0.239614119161E+02    0.23993E-02   -0.19713E-03    64   0.322E-01    0.295E-01
RMM:   6    -0.239601857317E+02    0.12262E-02   -0.13278E-03    64   0.229E-01    0.200E-01
RMM:   7    -0.239601181036E+02    0.67628E-04   -0.58366E-04    64   0.151E-01    0.175E-01
RMM:   8    -0.239592304931E+02    0.88761E-03   -0.37247E-03    64   0.369E-01    0.190E-02
RMM:   9    -0.239593159624E+02   -0.85469E-04   -0.54283E-04    64   0.150E-01    0.377E-02
RMM:  10    -0.239593089254E+02    0.70370E-05   -0.82969E-05    64   0.567E-02    0.225E-02
RMM:  11    -0.239593298358E+02   -0.20910E-04   -0.64687E-05    64   0.493E-02    0.136E-02
RMM:  12    -0.239593441247E+02   -0.14289E-04   -0.89896E-06    64   0.206E-02    0.595E-03
RMM:  13    -0.239593542084E+02   -0.10084E-04   -0.18762E-06    48   0.901E-03    0.453E-03
RMM:  14    -0.239593592592E+02   -0.50507E-05   -0.49273E-06    60   0.134E-02    0.235E-03
RMM:  15    -0.239593613022E+02   -0.20430E-05   -0.46840E-07    48   0.487E-03    0.552E-04
RMM:  16    -0.239593624391E+02   -0.11370E-05   -0.32339E-07    48   0.371E-03    0.888E-04
RMM:  17    -0.239593632067E+02   -0.76758E-06   -0.92083E-08    48   0.211E-03
    2 T=   162. E= -.23872865E+02 F= -.23959363E+02 E0= -.23967856E+02  EK= 0.83746E-01 SP= 0.83E-03 SK= 0.19E-02
       N       E                     dE             d eps       ncg     rms          rms(c)
DAV:   1    -0.239034040736E+02    0.55958E-01   -0.20751E+00    64   0.148E+01    0.611E-01
RMM:   2    -0.239165025069E+02   -0.13098E-01   -0.66755E-02    64   0.193E+00    0.702E-01
RMM:   3    -0.239397670352E+02   -0.23265E-01   -0.12020E-01    64   0.202E+00    0.974E-01
RMM:   4    -0.239230110791E+02    0.16756E-01   -0.23960E-02    64   0.104E+00    0.763E-01
RMM:   5    -0.239061772916E+02    0.16834E-01   -0.69226E-02    64   0.149E+00    0.264E-01
RMM:   6    -0.239056511073E+02    0.52618E-03   -0.19390E-03    64   0.336E-01    0.192E-01
RMM:   7    -0.239055111300E+02    0.13998E-03   -0.41354E-04    64   0.137E-01    0.172E-01
RMM:   8    -0.239048319508E+02    0.67918E-03   -0.17417E-03    64   0.249E-01    0.895E-02
RMM:   9    -0.239047548416E+02    0.77109E-04   -0.24859E-04    64   0.106E-01    0.698E-02
RMM:  10    -0.239046784026E+02    0.76439E-04   -0.11041E-04    64   0.683E-02    0.532E-02
RMM:  11    -0.239046376376E+02    0.40765E-04   -0.81590E-05    64   0.557E-02    0.428E-02
RMM:  12    -0.239046087555E+02    0.28882E-04   -0.43554E-05    64   0.403E-02    0.362E-02
RMM:  13    -0.239045868332E+02    0.21922E-04   -0.33181E-05    64   0.351E-02    0.316E-02
RMM:  14    -0.239045683460E+02    0.18487E-04   -0.32317E-05    64   0.356E-02    0.242E-02
RMM:  15    -0.239045538250E+02    0.14521E-04   -0.25149E-05    64   0.318E-02    0.165E-02
RMM:  16    -0.239045453133E+02    0.85117E-05   -0.23136E-05    64   0.295E-02    0.106E-02
RMM:  17    -0.239045421393E+02    0.31740E-05   -0.11225E-05    64   0.210E-02    0.743E-03
RMM:  18    -0.239045399447E+02    0.21946E-05   -0.10392E-05    64   0.202E-02    0.390E-03
RMM:  19    -0.239045392498E+02    0.69488E-06   -0.68755E-06    64   0.165E-02
    3 T=    98. E= -.23845737E+02 F= -.23904539E+02 E0= -.23910613E+02  EK= 0.50529E-01 SP= 0.31E-02 SK= 0.52E-02
       N       E                     dE             d eps       ncg     rms          rms(c)
DAV:   1    -0.239724026981E+02   -0.67863E-01   -0.16521E+00    64   0.126E+01    0.719E-01
RMM:   2    -0.245204257715E+02   -0.54802E+00   -0.20062E+00    64   0.851E+00    0.354E+00
RMM:   3    -0.242753902611E+02    0.24504E+00   -0.35351E+00    64   0.118E+01    0.301E+00
RMM:   4    -0.240561583114E+02    0.21923E+00   -0.89506E-01    64   0.555E+00    0.151E+00
RMM:   5    -0.239765459542E+02    0.79612E-01   -0.11647E-01    64   0.219E+00    0.536E-01
RMM:   6    -0.239746817558E+02    0.18642E-02   -0.91342E-03    64   0.632E-01    0.454E-01
RMM:   7    -0.239725789514E+02    0.21028E-02   -0.18817E-03    64   0.302E-01    0.362E-01
RMM:   8    -0.239686306429E+02    0.39483E-02   -0.77279E-03    64   0.551E-01    0.164E-01
RMM:   9    -0.239682474380E+02    0.38320E-03   -0.67415E-04    64   0.179E-01    0.127E-01
RMM:  10    -0.239676745806E+02    0.57286E-03   -0.10905E-03    64   0.217E-01    0.784E-02
RMM:  11    -0.239674293437E+02    0.24524E-03   -0.44016E-04    64   0.136E-01    0.632E-02
RMM:  12    -0.239672323512E+02    0.19699E-03   -0.36689E-04    64   0.121E-01    0.587E-02
RMM:  13    -0.239671016287E+02    0.13072E-03   -0.17947E-04    64   0.856E-02    0.548E-02
RMM:  14    -0.239669617583E+02    0.13987E-03   -0.18857E-04    64   0.883E-02    0.516E-02
RMM:  15    -0.239668849711E+02    0.76787E-04   -0.72276E-05    64   0.555E-02    0.490E-02
RMM:  16    -0.239668241865E+02    0.60785E-04   -0.50636E-05    64   0.464E-02    0.452E-02
RMM:  17    -0.239666519993E+02    0.17219E-03   -0.52900E-04    64   0.147E-01    0.240E-02
RMM:  18    -0.239666580156E+02   -0.60164E-05   -0.18794E-05    64   0.330E-02    0.220E-02
RMM:  19    -0.239666481513E+02    0.98643E-05   -0.14493E-05    64   0.263E-02    0.150E-02
RMM:  20    -0.239666470427E+02    0.11085E-05   -0.12619E-05    64   0.229E-02    0.142E-02
RMM:  21    -0.239666414503E+02    0.55925E-05   -0.13208E-05    64   0.227E-02    0.565E-03
RMM:  22    -0.239666431530E+02   -0.17027E-05   -0.28566E-06    56   0.117E-02    0.312E-03
RMM:  23    -0.239666435478E+02   -0.39486E-06   -0.45565E-07    48   0.564E-03
    4 T=   162. E= -.23866894E+02 F= -.23966644E+02 E0= -.23975182E+02  EK= 0.83526E-01 SP= 0.59E-02 SK= 0.10E-01
       N       E                     dE             d eps       ncg     rms          rms(c)
DAV:   1    -0.240401119253E+02   -0.73469E-01   -0.29766E+00    64   0.161E+01    0.100E+00
RMM:   2    -0.240716325149E+02   -0.31521E-01   -0.38756E-01    64   0.403E+00    0.162E+00
RMM:   3    -0.257152927118E+02   -0.16437E+01   -0.53835E+00    64   0.150E+01    0.665E+00
RMM:   4    -0.241072611332E+02    0.16080E+01   -0.24454E+00    64   0.104E+01    0.141E+00
RMM:   5    -0.241530390048E+02   -0.45778E-01   -0.11902E+00    64   0.695E+00    0.210E+00
RMM:   6    -0.241389262794E+02    0.14113E-01   -0.46458E-02    64   0.162E+00    0.195E+00
RMM:   7    -0.240152247089E+02    0.12370E+00   -0.26945E-01    64   0.342E+00    0.224E-01
RMM:   8    -0.240167913218E+02   -0.15666E-02   -0.53464E-03    64   0.560E-01    0.424E-01
RMM:   9    -0.240333248498E+02   -0.16534E-01   -0.31318E-02    64   0.118E+00    0.680E-01
RMM:  10    -0.240236531676E+02    0.96717E-02   -0.20343E-03    64   0.314E-01    0.641E-01
RMM:  11    -0.240159062614E+02    0.77469E-02   -0.15965E-02    64   0.790E-01    0.272E-01
RMM:  12    -0.240196551760E+02   -0.37489E-02   -0.48243E-03    64   0.445E-01    0.515E-01
RMM:  13    -0.240159882933E+02    0.36669E-02   -0.59859E-03    64   0.517E-01    0.198E-01
RMM:  14    -0.240170344210E+02   -0.10461E-02   -0.15474E-03    64   0.262E-01    0.276E-01
RMM:  15    -0.240188493316E+02   -0.18149E-02   -0.79946E-04    64   0.188E-01    0.452E-01
RMM:  16    -0.240172897917E+02    0.15595E-02   -0.16485E-04    64   0.911E-02    0.346E-01
RMM:  17    -0.240159901493E+02    0.12996E-02   -0.82003E-04    64   0.185E-01    0.138E-01
RMM:  18    -0.240160345343E+02   -0.44385E-04   -0.77364E-04    64   0.184E-01    0.660E-02
RMM:  19    -0.240161273980E+02   -0.92864E-04   -0.47341E-05    64   0.588E-02    0.773E-02
RMM:  20    -0.240160710020E+02    0.56396E-04   -0.15741E-05    64   0.277E-02    0.469E-02
RMM:  21    -0.240160670435E+02    0.39585E-05   -0.65893E-05    64   0.532E-02    0.225E-02
RMM:  22    -0.240160724135E+02   -0.53700E-05   -0.38900E-06    60   0.160E-02    0.335E-03
RMM:  23    -0.240160758863E+02   -0.34728E-05   -0.99007E-07    48   0.724E-03    0.867E-03
RMM:  24    -0.240160759403E+02   -0.54004E-07   -0.40040E-07    48   0.453E-03
    5 T=   134. E= -.23917705E+02 F= -.24016076E+02 E0= -.24025736E+02  EK= 0.69527E-01 SP= 0.10E-01 SK= 0.19E-01
       N       E                     dE             d eps       ncg     rms          rms(c)
DAV:   1    -0.239821232949E+02    0.33953E-01   -0.17030E+00    64   0.125E+01    0.568E-01
RMM:   2    -0.240218939714E+02   -0.39771E-01   -0.23192E-01    64   0.328E+00    0.133E+00
RMM:   3    -0.240929044487E+02   -0.71010E-01   -0.40533E-01    64   0.390E+00    0.192E+00
RMM:   4    -0.240299614193E+02    0.62943E-01   -0.76832E-01    64   0.568E+00    0.130E+00
RMM:   5    -0.239831578676E+02    0.46804E-01   -0.10070E-01    64   0.206E+00    0.312E-01
RMM:   6    -0.239922131737E+02   -0.90553E-02   -0.42989E-02    64   0.132E+00    0.564E-01
RMM:   7    -0.239907488649E+02    0.14643E-02   -0.23091E-03    64   0.342E-01    0.514E-01
RMM:   8    -0.239830986697E+02    0.76502E-02   -0.25290E-02    64   0.102E+00    0.119E-01
RMM:   9    -0.239829870879E+02    0.11158E-03   -0.46565E-04    64   0.174E-01    0.832E-02
RMM:  10    -0.239847999271E+02   -0.18128E-02   -0.63954E-03    64   0.537E-01    0.236E-01
RMM:  11    -0.239834877563E+02    0.13122E-02   -0.99549E-04    64   0.212E-01    0.140E-01
RMM:  12    -0.239830130513E+02    0.47470E-03   -0.13710E-03    64   0.245E-01    0.373E-02
RMM:  13    -0.239830541930E+02   -0.41142E-04   -0.40977E-05    64   0.501E-02    0.300E-02
RMM:  14    -0.239831659906E+02   -0.11180E-03   -0.12761E-04    64   0.708E-02    0.530E-02
RMM:  15    -0.239830836513E+02    0.82339E-04   -0.19590E-04    64   0.911E-02    0.228E-02
RMM:  16    -0.239830794434E+02    0.42079E-05   -0.12859E-05    64   0.241E-02    0.193E-02
RMM:  17    -0.239830754303E+02    0.40131E-05   -0.71078E-06    60   0.176E-02    0.166E-02
RMM:  18    -0.239830750689E+02    0.36142E-06   -0.14060E-05    64   0.247E-02    0.160E-02
RMM:  19    -0.239830735616E+02    0.15073E-05   -0.10144E-06    48   0.738E-03    0.146E-02
RMM:  20    -0.239830717761E+02    0.17855E-05   -0.11369E-06    48   0.751E-03    0.132E-02
RMM:  21    -0.239830693956E+02    0.23805E-05   -0.22876E-06    56   0.997E-03    0.107E-02
RMM:  22    -0.239830684649E+02    0.93073E-06   -0.48174E-07    48   0.538E-03
    6 T=   101. E= -.23889814E+02 F= -.23983068E+02 E0= -.23988103E+02  EK= 0.51970E-01 SP= 0.16E-01 SK= 0.26E-01
       N       E                     dE             d eps       ncg     rms          rms(c)
DAV:   1    -0.239756450051E+02    0.74244E-02   -0.13517E+00    64   0.121E+01    0.569E-01
RMM:   2    -0.241081991915E+02   -0.13255E+00   -0.39081E-01    64   0.407E+00    0.179E+00
RMM:   3    -0.242431519386E+02   -0.13495E+00   -0.32646E-01    64   0.362E+00    0.254E+00
RMM:   4    -0.241488340050E+02    0.94318E-01   -0.21146E-01    64   0.281E+00    0.207E+00
RMM:   5    -0.240726989541E+02    0.76135E-01   -0.63736E-02    64   0.159E+00    0.151E+00
RMM:   6    -0.240414440091E+02    0.31255E-01   -0.21653E-02    64   0.930E-01    0.126E+00
RMM:   7    -0.240178923397E+02    0.23552E-01   -0.11922E-02    64   0.693E-01    0.101E+00
RMM:   8    -0.240026000966E+02    0.15292E-01   -0.83795E-03    64   0.587E-01    0.794E-01
RMM:   9    -0.239862191652E+02    0.16381E-01   -0.15683E-02    64   0.796E-01    0.499E-01
RMM:  10    -0.239793379962E+02    0.68812E-02   -0.84892E-03    64   0.588E-01    0.346E-01
RMM:  11    -0.239771269372E+02    0.22111E-02   -0.20643E-03    64   0.301E-01    0.294E-01
RMM:  12    -0.239787655345E+02   -0.16386E-02   -0.49725E-04    64   0.156E-01    0.328E-01
RMM:  13    -0.239791866129E+02   -0.42108E-03   -0.12228E-04    64   0.714E-02    0.330E-01
RMM:  14    -0.239784986874E+02    0.68793E-03   -0.10658E-04    64   0.687E-02    0.317E-01
RMM:  15    -0.239751243723E+02    0.33743E-02   -0.40100E-03    64   0.405E-01    0.238E-01
RMM:  16    -0.239745173232E+02    0.60705E-03   -0.52351E-04    64   0.153E-01    0.207E-01
RMM:  17    -0.239740428437E+02    0.47448E-03   -0.29214E-04    64   0.112E-01    0.151E-01
RMM:  18    -0.239739175551E+02    0.12529E-03   -0.97048E-05    64   0.657E-02    0.128E-01
RMM:  19    -0.239739134750E+02    0.40800E-05   -0.54560E-06    64   0.195E-02    0.126E-01
RMM:  20    -0.239736282845E+02    0.28519E-03   -0.42509E-04    64   0.142E-01    0.568E-02
RMM:  21    -0.239736027662E+02    0.25518E-04   -0.81566E-05    64   0.615E-02    0.467E-02
RMM:  22    -0.239735970745E+02    0.56917E-05   -0.15807E-04    64   0.797E-02    0.326E-02
RMM:  23    -0.239735961536E+02    0.92090E-06   -0.12278E-05    64   0.254E-02    0.243E-02
RMM:  24    -0.239736030989E+02   -0.69453E-05   -0.40744E-06    64   0.141E-02    0.169E-02
RMM:  25    -0.239736072676E+02   -0.41686E-05   -0.28355E-06    52   0.109E-02    0.174E-02
RMM:  26    -0.239736079829E+02   -0.71536E-06   -0.15336E-05    64   0.241E-02    0.103E-02
RMM:  27    -0.239736079311E+02    0.51854E-07   -0.10986E-06    48   0.796E-03
    7 T=   159. E= -.23833282E+02 F= -.23973608E+02 E0= -.23983184E+02  EK= 0.82348E-01 SP= 0.22E-01 SK= 0.36E-01
       N       E                     dE             d eps       ncg     rms          rms(c)
DAV:   1    -0.239886843995E+02   -0.15076E-01   -0.19205E+00    64   0.139E+01    0.593E-01
RMM:   2    -0.249484181405E+02   -0.95973E+00   -0.27270E+00    64   0.104E+01    0.464E+00
RMM:   3    -0.240100961777E+02    0.93832E+00   -0.31007E+00    64   0.112E+01    0.102E+00
RMM:   4    -0.240396221121E+02   -0.29526E-01   -0.20173E-01    64   0.289E+00    0.105E+00
RMM:   5    -0.239981685112E+02    0.41454E-01   -0.37259E-02    64   0.124E+00    0.513E-01
RMM:   6    -0.239874356204E+02    0.10733E-01   -0.48135E-02    64   0.133E+00    0.933E-02
RMM:   7    -0.239880932283E+02   -0.65761E-03   -0.39846E-03    64   0.422E-01    0.112E-01
RMM:   8    -0.239878741318E+02    0.21910E-03   -0.72684E-04    64   0.172E-01    0.605E-02
RMM:   9    -0.239879188771E+02   -0.44745E-04   -0.50787E-04    64   0.140E-01    0.243E-02
RMM:  10    -0.239881564780E+02   -0.23760E-03   -0.74296E-04    64   0.170E-01    0.666E-02
RMM:  11    -0.239881096135E+02    0.46865E-04   -0.20452E-04    64   0.984E-02    0.533E-02
RMM:  12    -0.239880313971E+02    0.78216E-04   -0.21252E-04    64   0.885E-02    0.306E-02
RMM:  13    -0.239880128423E+02    0.18555E-04   -0.35179E-05    64   0.392E-02    0.156E-02
RMM:  14    -0.239880130185E+02   -0.17626E-06   -0.14191E-05    64   0.250E-02    0.114E-02
RMM:  15    -0.239880127654E+02    0.25309E-06   -0.64396E-06    64   0.168E-02
    8 T=    83. E= -.23869730E+02 F= -.23988013E+02 E0= -.23991967E+02  EK= 0.43054E-01 SP= 0.29E-01 SK= 0.46E-01
       N       E                     dE             d eps       ncg     rms          rms(c)
DAV:   1    -0.240447656400E+02   -0.56753E-01   -0.10834E+00    64   0.103E+01    0.459E-01
RMM:   2    -0.246628497057E+02   -0.61808E+00   -0.20960E+00    64   0.876E+00    0.363E+00
RMM:   3    -0.241240697847E+02    0.53878E+00   -0.62089E-01    64   0.486E+00    0.143E+00
RMM:   4    -0.240486930808E+02    0.75377E-01   -0.20657E-01    64   0.281E+00    0.424E-01
RMM:   5    -0.240476952994E+02    0.99778E-03   -0.51755E-02    64   0.153E+00    0.301E-01
RMM:   6    -0.240466084683E+02    0.10868E-02   -0.14230E-02    64   0.798E-01    0.183E-01
RMM:   7    -0.240465138807E+02    0.94588E-04   -0.87282E-04    64   0.201E-01    0.177E-01
RMM:   8    -0.240453748860E+02    0.11390E-02   -0.19098E-03    64   0.278E-01    0.747E-02
RMM:   9    -0.240452193425E+02    0.15554E-03   -0.42191E-04    64   0.129E-01    0.354E-02
RMM:  10    -0.240452404864E+02   -0.21144E-04   -0.12578E-04    64   0.719E-02    0.316E-02
RMM:  11    -0.240452637173E+02   -0.23231E-04   -0.10575E-05    64   0.244E-02    0.309E-02
RMM:  12    -0.240452599114E+02    0.38059E-05   -0.17136E-05    64   0.283E-02    0.221E-02
RMM:  13    -0.240452596031E+02    0.30829E-06   -0.42787E-06    64   0.147E-02
    9 T=   136. E= -.23881402E+02 F= -.24045260E+02 E0= -.24049175E+02  EK= 0.70116E-01 SP= 0.37E-01 SK= 0.57E-01
       N       E                     dE             d eps       ncg     rms          rms(c)
DAV:   1    -0.238981522572E+02    0.14711E+00   -0.77719E-01    64   0.915E+00    0.704E-01
RMM:   2    -0.239422424938E+02   -0.44090E-01   -0.23988E-01    64   0.364E+00    0.126E+00
RMM:   3    -0.240673005676E+02   -0.12506E+00   -0.99399E-01    64   0.644E+00    0.208E+00
RMM:   4    -0.239175066644E+02    0.14979E+00   -0.17224E-01    64   0.291E+00    0.653E-01
RMM:   5    -0.238972119796E+02    0.20295E-01   -0.10005E-01    64   0.189E+00    0.107E-01
RMM:   6    -0.239048392419E+02   -0.76273E-02   -0.29458E-02    64   0.114E+00    0.402E-01
RMM:   7    -0.238994170492E+02    0.54222E-02   -0.38708E-03    64   0.417E-01    0.202E-01
RMM:   8    -0.238985980619E+02    0.81899E-03   -0.46457E-03    64   0.432E-01    0.106E-01
RMM:   9    -0.238986000195E+02   -0.19576E-05   -0.18718E-04    64   0.104E-01    0.809E-02
RMM:  10    -0.238985495301E+02    0.50489E-04   -0.11166E-04    64   0.681E-02    0.613E-02
RMM:  11    -0.238985028456E+02    0.46684E-04   -0.66548E-05    64   0.531E-02    0.427E-02
RMM:  12    -0.238984664175E+02    0.36428E-04   -0.89492E-05    64   0.601E-02    0.203E-02
RMM:  13    -0.238984607426E+02    0.56749E-05   -0.29161E-05    64   0.348E-02    0.957E-03
RMM:  14    -0.238984615871E+02   -0.84452E-06   -0.12533E-05    64   0.229E-02    0.262E-03
RMM:  15    -0.238984633183E+02   -0.17311E-05   -0.16330E-06    48   0.990E-03    0.426E-04
RMM:  16    -0.238984642161E+02   -0.89785E-06   -0.52102E-07    48   0.611E-03
   10 T=    81. E= -.23744183E+02 F= -.23898464E+02 E0= -.23902951E+02  EK= 0.41633E-01 SP= 0.46E-01 SK= 0.67E-01
