 vasp.5.4.4.18Apr17-6-g9f103f2a35 (build Jul 12 2018 13:43:46) complex           
 executed on             LinuxGNU date 2019.06.22  02:17:35
 running on    1 total cores
 distrk:  each k-point on    1 cores,    1 groups
 distr:  one band on NCORES_PER_BAND=   1 cores,    1 groups


--------------------------------------------------------------------------------------------------------


 INCAR:
 POTCAR:    PAW_PBE H 15Jun2001                   
 POTCAR:    PAW_PBE C 08Apr2002                   
 POTCAR:    PAW_PBE H 15Jun2001                   
   VRHFIN =H: ultrasoft test                                                    
   LEXCH  = PE                                                                  
   EATOM  =    12.4884 eV,    0.9179 Ry                                         
                                                                                
   TITEL  = PAW_PBE H 15Jun2001                                                 
   LULTRA =        F    use ultrasoft PP ?                                      
   IUNSCR =        0    unscreen: 0-lin 1-nonlin 2-no                           
   RPACOR =    0.000    partial core radius                                     
   POMASS =    1.000; ZVAL   =    1.000    mass and valenz                      
   RCORE  =    1.100    outmost cutoff radius                                   
   RWIGS  =    0.700; RWIGS  =    0.370    wigner-seitz radius (au A)           
   ENMAX  =  250.000; ENMIN  =  200.000 eV                                      
   RCLOC  =    0.701    cutoff for local pot                                    
   LCOR   =        T    correct aug charges                                     
   LPAW   =        T    paw PP                                                  
   EAUG   =  400.000                                                            
   RMAX   =    1.123    core radius for proj-oper                               
   RAUG   =    1.200    factor for augmentation sphere                          
   RDEP   =    1.112    radius for radial grids                                 
   RDEPT  =    0.926    core radius for aug-charge                              
                                                                                
   Atomic configuration                                                         
    2 entries                                                                   
     n  l   j            E        occ.                                          
     1  0  0.50        -6.4927   1.0000                                         
     2  1  0.50        -3.4015   0.0000                                         
   Description                                                                  
     l       E           TYP  RCUT    TYP  RCUT                                 
     0     -6.4927494     23  1.100                                             
     0      6.8029130     23  1.100                                             
     1     -4.0817478     23  1.100                                             
  local pseudopotential read in
  atomic valenz-charges read in
  non local Contribution for L=           0  read in
    real space projection operators read in
  non local Contribution for L=           0  read in
    real space projection operators read in
  non local Contribution for L=           1  read in
    real space projection operators read in
    PAW grid and wavefunctions read in

   number of l-projection  operators is LMAX  =           3
   number of lm-projection operators is LMMAX =           5

 POTCAR:    PAW_PBE C 08Apr2002                   
   VRHFIN =C: s2p2                                                              
   LEXCH  = PE                                                                  
   EATOM  =   147.1560 eV,   10.8157 Ry                                         
                                                                                
   TITEL  = PAW_PBE C 08Apr2002                                                 
   LULTRA =        F    use ultrasoft PP ?                                      
   IUNSCR =        1    unscreen: 0-lin 1-nonlin 2-no                           
   RPACOR =    1.200    partial core radius                                     
   POMASS =   12.011; ZVAL   =    4.000    mass and valenz                      
   RCORE  =    1.500    outmost cutoff radius                                   
   RWIGS  =    1.630; RWIGS  =    0.863    wigner-seitz radius (au A)           
   ENMAX  =  400.000; ENMIN  =  300.000 eV                                      
   ICORE  =        2    local potential                                         
   LCOR   =        T    correct aug charges                                     
   LPAW   =        T    paw PP                                                  
   EAUG   =  644.873                                                            
   DEXC   =    0.000                                                            
   RMAX   =    1.529    core radius for proj-oper                               
   RAUG   =    1.300    factor for augmentation sphere                          
   RDEP   =    1.501    radius for radial grids                                 
   RDEPT  =    1.300    core radius for aug-charge                              
                                                                                
   Atomic configuration                                                         
    4 entries                                                                   
     n  l   j            E        occ.                                          
     1  0  0.50      -273.3789   2.0000                                         
     2  0  0.50       -13.7508   2.0000                                         
     2  1  0.50        -5.2854   2.0000                                         
     3  2  1.50        -5.4423   0.0000                                         
   Description                                                                  
     l       E           TYP  RCUT    TYP  RCUT                                 
     0    -13.7508458     23  1.200                                             
     0     -8.2022199     23  1.200                                             
     1     -5.2854383     23  1.500                                             
     1     34.0145650     23  1.500                                             
     2     -5.4423304      7  1.500                                             
  local pseudopotential read in
  partial core-charges read in
  partial kinetic energy density read in
  atomic valenz-charges read in
  non local Contribution for L=           0  read in
    real space projection operators read in
  non local Contribution for L=           0  read in
    real space projection operators read in
  non local Contribution for L=           1  read in
    real space projection operators read in
  non local Contribution for L=           1  read in
    real space projection operators read in
    PAW grid and wavefunctions read in

   number of l-projection  operators is LMAX  =           4
   number of lm-projection operators is LMMAX =           8


 ----------------------------------------------------------------------------- 
|                                                                             |
|  ADVICE TO THIS USER RUNNING 'VASP/VAMP'   (HEAR YOUR MASTER'S VOICE ...):  |
|                                                                             |
|      You have a (more or less) 'small supercell' and for smaller cells      |
|      it is recommended  to use the reciprocal-space projection scheme!      |
|      The real space optimization is not  efficient for small cells and it   |
|      is also less accurate ...                                              |
|      Therefore set LREAL=.FALSE. in the  INCAR file                         |
|                                                                             |
 ----------------------------------------------------------------------------- 


 ----------------------------------------------------------------------------- 
|                                                                             |
|           W    W    AA    RRRRR   N    N  II  N    N   GGGG   !!!           |
|           W    W   A  A   R    R  NN   N  II  NN   N  G    G  !!!           |
|           W    W  A    A  R    R  N N  N  II  N N  N  G       !!!           |
|           W WW W  AAAAAA  RRRRR   N  N N  II  N  N N  G  GGG   !            |
|           WW  WW  A    A  R   R   N   NN  II  N   NN  G    G                |
|           W    W  A    A  R    R  N    N  II  N    N   GGGG   !!!           |
|                                                                             |
|     The real-space-projection scheme for the treatment of the nonlocal      |
|     pseudopotentials has been switched on -- but on file POTCAR I have      |
|     not found any entries signalling me that you have ever performed a      |
|     real-space optimization of all nonlocal projectors! BE WARNED that      |
|     a calculation using the real-space-projection scheme together with      |
|     nonlocal projectors which were not real-space-optimized (according      |
|     to the plane-wave-cutoff used in this calculation) might give more      |
|     or less inaccurate results                                              |
|     I hope you know what you are doing                                      |
|                                                                             |
 ----------------------------------------------------------------------------- 

  PAW_PBE H 15Jun2001                   :
 energy of atom  1       EATOM=  -12.4884
 kinetic energy error for atom=    0.0098 (will be added to EATOM!!)
  PAW_PBE C 08Apr2002                   :
 energy of atom  2       EATOM= -147.1560
 kinetic energy error for atom=    0.0288 (will be added to EATOM!!)


 POSCAR:  H  C                                   
  positions in cartesian coordinates
  No initial velocities read in
 exchange correlation table for  LEXCH =        8
   RHO(1)=    0.500       N(1)  =     2000
   RHO(2)=  100.500       N(2)  =     4000



--------------------------------------------------------------------------------------------------------


 ion  position               nearest neighbor table
   1  0.538  0.407  0.361-   5 1.07
   2  0.395  0.480  0.439-   5 1.07
   3  0.552  0.566  0.443-   5 1.11
   4  0.528  0.416  0.539-   5 1.08
   5  0.503  0.467  0.445-   2 1.07   1 1.07   4 1.08   3 1.11


IMPORTANT INFORMATION: All symmetrisations will be switched off!
NOSYMM: (Re-)initialisation of all symmetry stuff for point group C_1.




Automatic generation of k-mesh.
 generate k-points for:    2    2    2
Space group operators:
 irot       det(A)        alpha          n_x          n_y          n_z        tau_x        tau_y        tau_z
    1     1.000000     0.000000     1.000000     0.000000     0.000000     0.000000     0.000000     0.000000
 
 Subroutine IBZKPT returns following result:
 ===========================================
 
 Found      4 irreducible k-points:
 
 Following reciprocal coordinates:
            Coordinates               Weight
  0.250000  0.250000  0.250000      2.000000
 -0.250000  0.250000  0.250000      2.000000
  0.250000 -0.250000  0.250000      2.000000
 -0.250000 -0.250000  0.250000      2.000000
 
 Following cartesian coordinates:
            Coordinates               Weight
  0.025618  0.024936  0.025533      2.000000
 -0.025618  0.024861  0.025517      2.000000
  0.025618 -0.024861  0.025275      2.000000
 -0.025618 -0.024936  0.025260      2.000000
 


--------------------------------------------------------------------------------------------------------




 Dimension of arrays:
   k-points           NKPTS =      4   k-points in BZ     NKDIM =      4   number of bands    NBANDS=      8
   number of dos      NEDOS =    301   number of ions     NIONS =      5
   non local maximal  LDIM  =      4   non local SUM 2l+1 LMDIM =      8
   total plane-waves  NPLWV = 286720
   max r-space proj   IRMAX =    709   max aug-charges    IRDMAX=   3707
   dimension x,y,z NGX =    64 NGY =   70 NGZ =   64
   dimension x,y,z NGXF=   128 NGYF=  140 NGZF=  128
   support grid    NGXF=   128 NGYF=  140 NGZF=  128
   ions per type =               4   1
   NGX,Y,Z   is equivalent  to a cutoff of  10.90, 11.59, 10.81 a.u.
   NGXF,Y,Z  is equivalent  to a cutoff of  21.81, 23.18, 21.62 a.u.

 SYSTEM =  unknown system                          
 POSCAR =   H  C                                   

 Startparameter for this run:
   NWRITE =      2    write-flag & timer
   PREC   = a         normal or accurate (medium, high low for compatibility)
   ISTART =      0    job   : 0-new  1-cont  2-samecut
   ICHARG =      2    charge: 1-file 2-atom 10-const
   ISPIN  =      1    spin polarized calculation?
   LNONCOLLINEAR =      F non collinear calculations
   LSORBIT =      F    spin-orbit coupling
   INIWAV =      1    electr: 0-lowe 1-rand  2-diag
   LASPH  =      F    aspherical Exc in radial PAW
   METAGGA=      F    non-selfconsistent MetaGGA calc.

 Electronic Relaxation 1
   ENCUT  =  400.0 eV  29.40 Ry    5.42 a.u.  15.91 16.37 16.05*2*pi/ulx,y,z
   ENINI  =  400.0     initial cutoff
   ENAUG  =  644.9 eV  augmentation charge cutoff
   NELM   =     60;   NELMIN=  2; NELMDL= -5     # of ELM steps 
   EDIFF  = 0.1E-05   stopping-criterion for ELM
   LREAL  =      T    real-space projection
   NLSPLINE    = F    spline interpolate recip. space projectors
   LCOMPAT=      F    compatible to vasp.4.4
   GGA_COMPAT  = T    GGA compatible to vasp.4.4-vasp.4.6
   LMAXPAW     = -100 max onsite density
   LMAXMIX     =    2 max onsite mixed and CHGCAR
   VOSKOWN=      0    Vosko Wilk Nusair interpolation
   ROPT   =    0.00000   0.00000
 Ionic relaxation
   EDIFFG = 0.1E-04   stopping-criterion for IOM
   NSW    =     10    number of steps for IOM
   NBLOCK =      1;   KBLOCK =      1    inner block; outer block 
   IBRION =      0    ionic relax: 0-MD 1-quasi-New 2-CG
   NFREE  =      0    steps in history (QN), initial steepest desc. (CG)
   ISIF   =      2    stress and relaxation
   IWAVPR =     12    prediction:  0-non 1-charg 2-wave 3-comb
   ISYM   =      0    0-nonsym 1-usesym 2-fastsym
   LCORR  =      T    Harris-Foulkes like correction to forces

   POTIM  = 2.0000    time-step for ionic-motion
   TEIN   =   50.0    initial temperature
   TEBEG  =   50.0;   TEEND  =  50.0 temperature during run
   SMASS  =   0.00    Nose mass-parameter (am)
   estimated Nose-frequenzy (Omega)   =  0.79E+14 period in steps = 40.00 mass=   0.123E-29a.u.
   SCALEE = 1.0000    scale energy and forces
   NPACO  =    256;   APACO  = 16.0  distance and # of slots for P.C.
   PSTRESS=    0.0 pullay stress

  Mass of Ions in am
   POMASS =   1.00 12.01
  Ionic Valenz
   ZVAL   =   1.00  4.00
  Atomic Wigner-Seitz radii
   RWIGS  =  -1.00 -1.00
  virtual crystal weights 
   VCA    =   1.00  1.00
   NELECT =       8.0000    total number of electrons
   NUPDOWN=      -1.0000    fix difference up-down

 DOS related values:
   EMIN   =  10.00;   EMAX   =-10.00  energy-range for DOS
   EFERMI =   0.00
   ISMEAR =     1;   SIGMA  =   0.20  broadening in eV -4-tet -1-fermi 0-gaus

 Electronic relaxation 2 (details)
   IALGO  =     68    algorithm
   LDIAG  =      T    sub-space diagonalisation (order eigenvalues)
   LSUBROT=      F    optimize rotation matrix (better conditioning)
   TURBO    =      0    0=normal 1=particle mesh
   IRESTART =      0    0=no restart 2=restart with 2 vectors
   NREBOOT  =      0    no. of reboots
   NMIN     =      0    reboot dimension
   EREF     =   0.00    reference energy to select bands
   IMIX   =      4    mixing-type and parameters
     AMIX     =   0.40;   BMIX     =  1.00
     AMIX_MAG =   1.60;   BMIX_MAG =  1.00
     AMIN     =   0.10
     WC   =   100.;   INIMIX=   1;  MIXPRE=   1;  MAXMIX=  50

 Intra band minimization:
   WEIMIN = 0.0010     energy-eigenvalue tresh-hold
   EBREAK =  0.31E-07  absolut break condition
   DEPER  =   0.30     relativ break condition  

   TIME   =   0.40     timestep for ELM

  volume/ion in A,a.u.               =     192.91      1301.85
  Fermi-wavevector in a.u.,A,eV,Ry     =   0.331380  0.626218  1.494094  0.109813
  Thomas-Fermi vector in A             =   1.227488

 Write flags
   LWAVE        =      F    write WAVECAR
   LDOWNSAMPLE  =      F    k-point downsampling of WAVECAR
   LCHARG       =      F    write CHGCAR
   LVTOT        =      F    write LOCPOT, total local potential
   LVHAR        =      F    write LOCPOT, Hartree potential only
   LELF         =      F    write electronic localiz. function (ELF)
   LORBIT       =      0    0 simple, 1 ext, 2 COOP (PROOUT), +10 PAW based schemes


 Dipole corrections
   LMONO  =      F    monopole corrections only (constant potential shift)
   LDIPOL =      F    correct potential (dipole corrections)
   IDIPOL =      0    1-x, 2-y, 3-z, 4-all directions 
   EPSILON=  1.0000000 bulk dielectric constant

 Exchange correlation treatment:
   GGA     =    --    GGA type
   LEXCH   =     8    internal setting for exchange type
   VOSKOWN=      0    Vosko Wilk Nusair interpolation
   LHFCALC =     F    Hartree Fock is set to
   LHFONE  =     F    Hartree Fock one center treatment
   AEXX    =    0.0000 exact exchange contribution

 Linear response parameters
   LEPSILON=     F    determine dielectric tensor
   LRPA    =     F    only Hartree local field effects (RPA)
   LNABLA  =     F    use nabla operator in PAW spheres
   LVEL    =     F    velocity operator in full k-point grid
   LINTERFAST=   F  fast interpolation
   KINTER  =     0    interpolate to denser k-point grid
   CSHIFT  =0.1000    complex shift for real part using Kramers Kronig
   OMEGAMAX=  -1.0    maximum frequency
   DEG_THRESHOLD= 0.2000000E-02 threshold for treating states as degnerate
   RTIME   =   -0.100 relaxation time in fs
  (WPLASMAI=    0.000 imaginary part of plasma frequency in eV, 0.658/RTIME)
   DFIELD  = 0.0000000 0.0000000 0.0000000 field for delta impulse in time

 Orbital magnetization related:
   ORBITALMAG=     F  switch on orbital magnetization
   LCHIMAG   =     F  perturbation theory with respect to B field
   DQ        =  0.001000  dq finite difference perturbation B field
   LLRAUG    =     F  two centre corrections for induced B field



--------------------------------------------------------------------------------------------------------


 molecular dynamics for ions
   using nose mass (canonical ensemble)
 charge density and potential will be updated during run
 non-spin polarized calculation
 RMM-DIIS sequential band-by-band and
  variant of blocked Davidson during initial phase
 perform sub-space diagonalisation
    before iterative eigenvector-optimisation
 modified Broyden-mixing scheme, WC =      100.0
 initial mixing is a Kerker type mixing with AMIX =  0.4000 and BMIX =      1.0000
 Hartree-type preconditioning will be used
 using additional bands            4
 real space projection scheme for non local part
 use partial core corrections
 calculate Harris-corrections to forces   (improved forces if not selfconsistent)
 use gradient corrections 
 use of overlap-Matrix (Vanderbilt PP)
 Methfessel and Paxton  Order N= 1 SIGMA  =   0.20


--------------------------------------------------------------------------------------------------------


  energy-cutoff  :      400.00
  volume of cell :      964.57
      direct lattice vectors                 reciprocal lattice vectors
     9.758885516  0.000000000  0.000000000     0.102470717  0.000150381  0.000031155
    -0.014735216 10.040692627  0.000000000    -0.000000000  0.099594723  0.000514791
    -0.002918251 -0.050882207  9.843987551     0.000000000 -0.000000000  0.101584850

  length of vectors
     9.758885516 10.040703439  9.844119484     0.102470832  0.099596053  0.101584850



 k-points in units of 2pi/SCALE and weight: read from INCAR                         
   0.02561768  0.02493628  0.02553270       0.250
  -0.02561768  0.02486109  0.02551712       0.250
   0.02561768 -0.02486109  0.02527530       0.250
  -0.02561768 -0.02493628  0.02525973       0.250

 k-points in reciprocal lattice and weights: read from INCAR                         
   0.25000000  0.25000000  0.25000000       0.250
  -0.25000000  0.25000000  0.25000000       0.250
   0.25000000 -0.25000000  0.25000000       0.250
  -0.25000000 -0.25000000  0.25000000       0.250

 position of ions in fractional coordinates (direct lattice) 
   0.53832733  0.40743975  0.36138069
   0.39500114  0.47995255  0.43877495
   0.55228866  0.56638817  0.44263088
   0.52809594  0.41630080  0.53903176
   0.50348873  0.46682263  0.44543318

 position of ions in cartesian coordinates  (Angst):
   5.24641650  4.07258941  3.55742701
   3.84641825  4.79673017  4.31929513
   5.38008426  5.66440753  4.35725286
   5.14592052  4.15252125  5.30622189
   4.90531029  4.66455788  4.38483864



--------------------------------------------------------------------------------------------------------


 k-point  1 :   0.2500 0.2500 0.2500  plane waves:   17527
 k-point  2 :  -0.2500 0.2500 0.2500  plane waves:   17533
 k-point  3 :   0.2500-0.2500 0.2500  plane waves:   17532
 k-point  4 :  -0.2500-0.2500 0.2500  plane waves:   17534

 maximum and minimum number of plane-waves per node :     17534    17527

 maximum number of plane-waves:     17534
 maximum index in each direction: 
   IXMAX=   16   IYMAX=   16   IZMAX=   15
   IXMIN=  -16   IYMIN=  -16   IZMIN=  -16


 serial   3D FFT for wavefunctions
 parallel 3D FFT for charge:
    minimum data exchange during FFTs selected (reduces bandwidth)


 total amount of memory used by VASP MPI-rank0   259848. kBytes
=======================================================================

   base      :      30000. kBytes
   nonlr-proj:        146. kBytes
   fftplans  :      79272. kBytes
   grid      :     141424. kBytes
   one-center:         15. kBytes
   wavefun   :       8991. kBytes

     INWAV:  cpu time    0.0000: real time    0.0000
 Broyden mixing: mesh for mixing (old mesh)
   NGX = 31   NGY = 33   NGZ = 33
  (NGX  =128   NGY  =140   NGZ  =128)
  gives a total of  33759 points

 initial charge density was supplied:
 charge density of overlapping atoms calculated
 number of electron       8.0000000 magnetization 
 keeping initial charge density in first step


--------------------------------------------------------------------------------------------------------


 Maximum index for non-local projection operator          641
 Maximum index for augmentation-charges         3403 (set IRDMAX)


--------------------------------------------------------------------------------------------------------


 First call to EWALD:  gamma=   0.179
 Maximum number of real-space cells 3x 3x 3
 Maximum number of reciprocal cells 3x 3x 3

    FEWALD:  cpu time    0.0007: real time    0.0007


--------------------------------------- Iteration      1(   1)  ---------------------------------------


    POTLOK:  cpu time    1.5894: real time    1.5934
    SETDIJ:  cpu time    0.0066: real time    0.0066
     EDDAV:  cpu time    2.5537: real time    2.5597
       DOS:  cpu time    0.0003: real time    0.0003
    --------------------------------------------
      LOOP:  cpu time    4.1499: real time    4.1600

 eigenvalue-minimisations  :   104
 total energy-change (2. order) : 0.9387688E+01  (-0.1991887E+03)
 number of electron       8.0000000 magnetization 
 augmentation part        8.0000000 magnetization 

 Free energy of the ion-electron system (eV)
  ---------------------------------------------------
  alpha Z        PSCENC =         0.25114831
  Ewald energy   TEWEN  =       130.60538819
  -Hartree energ DENC   =      -244.24892194
  -exchange      EXHF   =         0.00000000
  -V(xc)+E(xc)   XCENC  =        22.09022404
  PAW double counting   =       117.05815612     -117.66307307
  entropy T*S    EENTRO =         0.00289895
  eigenvalues    EBANDS =       -95.74988672
  atomic energy  EATOM  =       197.04175453
  Solvation  Ediel_sol  =         0.00000000
  ---------------------------------------------------
  free energy    TOTEN  =         9.38768841 eV

  energy without entropy =        9.38478946  energy(sigma->0) =        9.38672210


--------------------------------------------------------------------------------------------------------




--------------------------------------- Iteration      1(   2)  ---------------------------------------


     EDDAV:  cpu time    1.7226: real time    1.7269
       DOS:  cpu time    0.0002: real time    0.0002
    --------------------------------------------
      LOOP:  cpu time    1.7228: real time    1.7271

 eigenvalue-minimisations  :    64
 total energy-change (2. order) :-0.3346119E+02  (-0.3346119E+02)
 number of electron       8.0000000 magnetization 
 augmentation part        8.0000000 magnetization 

 Free energy of the ion-electron system (eV)
  ---------------------------------------------------
  alpha Z        PSCENC =         0.25114831
  Ewald energy   TEWEN  =       130.60538819
  -Hartree energ DENC   =      -244.24892194
  -exchange      EXHF   =         0.00000000
  -V(xc)+E(xc)   XCENC  =        22.09022404
  PAW double counting   =       117.05815612     -117.66307307
  entropy T*S    EENTRO =         0.00290294
  eigenvalues    EBANDS =      -129.21107968
  atomic energy  EATOM  =       197.04175453
  Solvation  Ediel_sol  =         0.00000000
  ---------------------------------------------------
  free energy    TOTEN  =       -24.07350057 eV

  energy without entropy =      -24.07640351  energy(sigma->0) =      -24.07446821


--------------------------------------------------------------------------------------------------------




--------------------------------------- Iteration      1(   3)  ---------------------------------------


     EDDAV:  cpu time    1.7093: real time    1.7134
       DOS:  cpu time    0.0002: real time    0.0002
    --------------------------------------------
      LOOP:  cpu time    1.7095: real time    1.7136

 eigenvalue-minimisations  :    64
 total energy-change (2. order) :-0.3557311E+01  (-0.3568900E+01)
 number of electron       8.0000000 magnetization 
 augmentation part        8.0000000 magnetization 

 Free energy of the ion-electron system (eV)
  ---------------------------------------------------
  alpha Z        PSCENC =         0.25114831
  Ewald energy   TEWEN  =       130.60538819
  -Hartree energ DENC   =      -244.24892194
  -exchange      EXHF   =         0.00000000
  -V(xc)+E(xc)   XCENC  =        22.09022404
  PAW double counting   =       117.05815612     -117.66307307
  entropy T*S    EENTRO =         0.02468057
  eigenvalues    EBANDS =      -132.79016831
  atomic energy  EATOM  =       197.04175453
  Solvation  Ediel_sol  =         0.00000000
  ---------------------------------------------------
  free energy    TOTEN  =       -27.63081156 eV

  energy without entropy =      -27.65549213  energy(sigma->0) =      -27.63903842


--------------------------------------------------------------------------------------------------------




--------------------------------------- Iteration      1(   4)  ---------------------------------------


     EDDAV:  cpu time    3.0886: real time    3.0960
       DOS:  cpu time    0.0002: real time    0.0002
    --------------------------------------------
      LOOP:  cpu time    3.0889: real time    3.0962

 eigenvalue-minimisations  :   128
 total energy-change (2. order) :-0.1299179E+00  (-0.1297833E+00)
 number of electron       8.0000000 magnetization 
 augmentation part        8.0000000 magnetization 

 Free energy of the ion-electron system (eV)
  ---------------------------------------------------
  alpha Z        PSCENC =         0.25114831
  Ewald energy   TEWEN  =       130.60538819
  -Hartree energ DENC   =      -244.24892194
  -exchange      EXHF   =         0.00000000
  -V(xc)+E(xc)   XCENC  =        22.09022404
  PAW double counting   =       117.05815612     -117.66307307
  entropy T*S    EENTRO =         0.02399702
  eigenvalues    EBANDS =      -132.91940270
  atomic energy  EATOM  =       197.04175453
  Solvation  Ediel_sol  =         0.00000000
  ---------------------------------------------------
  free energy    TOTEN  =       -27.76072950 eV

  energy without entropy =      -27.78472652  energy(sigma->0) =      -27.76872851


--------------------------------------------------------------------------------------------------------




--------------------------------------- Iteration      1(   5)  ---------------------------------------


     EDDAV:  cpu time    2.3568: real time    2.3625
       DOS:  cpu time    0.0002: real time    0.0002
    CHARGE:  cpu time    0.1659: real time    0.1663
    MIXING:  cpu time    0.0364: real time    0.0364
    --------------------------------------------
      LOOP:  cpu time    2.5593: real time    2.5654

 eigenvalue-minimisations  :    96
 total energy-change (2. order) :-0.3650956E-04  (-0.3650979E-04)
 number of electron       8.0000002 magnetization 
 augmentation part        0.2311183 magnetization 

 Broyden mixing:
  rms(total) = 0.90037E+00    rms(broyden)= 0.90013E+00
  rms(prec ) = 0.12777E+01
  weight for this iteration     100.00

 Free energy of the ion-electron system (eV)
  ---------------------------------------------------
  alpha Z        PSCENC =         0.25114831
  Ewald energy   TEWEN  =       130.60538819
  -Hartree energ DENC   =      -244.24892194
  -exchange      EXHF   =         0.00000000
  -V(xc)+E(xc)   XCENC  =        22.09022404
  PAW double counting   =       117.05815612     -117.66307307
  entropy T*S    EENTRO =         0.02399682
  eigenvalues    EBANDS =      -132.91943900
  atomic energy  EATOM  =       197.04175453
  Solvation  Ediel_sol  =         0.00000000
  ---------------------------------------------------
  free energy    TOTEN  =       -27.76076601 eV

  energy without entropy =      -27.78476282  energy(sigma->0) =      -27.76876495


--------------------------------------------------------------------------------------------------------




--------------------------------------- Iteration      1(   6)  ---------------------------------------


    POTLOK:  cpu time    1.5829: real time    1.5867
    SETDIJ:  cpu time    0.0065: real time    0.0065
    EDDIAG:  cpu time    0.3674: real time    0.3683
  RMM-DIIS:  cpu time    1.2570: real time    1.2600
    ORTHCH:  cpu time    0.0113: real time    0.0114
       DOS:  cpu time    0.0002: real time    0.0002
    CHARGE:  cpu time    0.1604: real time    0.1608
    MIXING:  cpu time    0.0374: real time    0.0375
    --------------------------------------------
      LOOP:  cpu time    3.4233: real time    3.4314

 eigenvalue-minimisations  :    64
 total energy-change (2. order) : 0.3085909E+01  (-0.5764776E+00)
 number of electron       8.0000002 magnetization 
 augmentation part        0.2036725 magnetization 

 Broyden mixing:
  rms(total) = 0.44263E+00    rms(broyden)= 0.44254E+00
  rms(prec ) = 0.57697E+00
  weight for this iteration     100.00

 eigenvalues of (default mixing * dielectric matrix)
  average eigenvalue GAMMA=   1.3158
  1.3158

 Free energy of the ion-electron system (eV)
  ---------------------------------------------------
  alpha Z        PSCENC =         0.25114831
  Ewald energy   TEWEN  =       130.60538819
  -Hartree energ DENC   =      -264.59262123
  -exchange      EXHF   =         0.00000000
  -V(xc)+E(xc)   XCENC  =        23.32498781
  PAW double counting   =       243.16209231     -243.95073297
  entropy T*S    EENTRO =         0.03593507
  eigenvalues    EBANDS =      -110.55280916
  atomic energy  EATOM  =       197.04175453
  Solvation  Ediel_sol  =         0.00000000
  ---------------------------------------------------
  free energy    TOTEN  =       -24.67485715 eV

  energy without entropy =      -24.71079223  energy(sigma->0) =      -24.68683551


--------------------------------------------------------------------------------------------------------




--------------------------------------- Iteration      1(   7)  ---------------------------------------


    POTLOK:  cpu time    1.5570: real time    1.5607
    SETDIJ:  cpu time    0.0065: real time    0.0065
    EDDIAG:  cpu time    0.3531: real time    0.3539
  RMM-DIIS:  cpu time    1.3019: real time    1.3050
    ORTHCH:  cpu time    0.0111: real time    0.0111
       DOS:  cpu time    0.0002: real time    0.0002
    CHARGE:  cpu time    0.1535: real time    0.1539
    MIXING:  cpu time    0.0375: real time    0.0376
    --------------------------------------------
      LOOP:  cpu time    3.4208: real time    3.4289

 eigenvalue-minimisations  :    64
 total energy-change (2. order) : 0.5236305E+00  (-0.1382133E+00)
 number of electron       8.0000002 magnetization 
 augmentation part        0.1923471 magnetization 

 Broyden mixing:
  rms(total) = 0.24257E+00    rms(broyden)= 0.24249E+00
  rms(prec ) = 0.29553E+00
  weight for this iteration     100.00

 eigenvalues of (default mixing * dielectric matrix)
  average eigenvalue GAMMA=   1.5983
  1.5983  1.5983

 Free energy of the ion-electron system (eV)
  ---------------------------------------------------
  alpha Z        PSCENC =         0.25114831
  Ewald energy   TEWEN  =       130.60538819
  -Hartree energ DENC   =      -276.87858622
  -exchange      EXHF   =         0.00000000
  -V(xc)+E(xc)   XCENC  =        24.22195919
  PAW double counting   =       378.34414114     -379.17745969
  entropy T*S    EENTRO =         0.03849645
  eigenvalues    EBANDS =       -98.59806852
  atomic energy  EATOM  =       197.04175453
  Solvation  Ediel_sol  =         0.00000000
  ---------------------------------------------------
  free energy    TOTEN  =       -24.15122663 eV

  energy without entropy =      -24.18972308  energy(sigma->0) =      -24.16405878


--------------------------------------------------------------------------------------------------------




--------------------------------------- Iteration      1(   8)  ---------------------------------------


    POTLOK:  cpu time    1.5927: real time    1.5965
    SETDIJ:  cpu time    0.0064: real time    0.0065
    EDDIAG:  cpu time    0.3491: real time    0.3500
  RMM-DIIS:  cpu time    1.2591: real time    1.2621
    ORTHCH:  cpu time    0.0111: real time    0.0111
       DOS:  cpu time    0.0002: real time    0.0002
    CHARGE:  cpu time    0.1570: real time    0.1573
    MIXING:  cpu time    0.0407: real time    0.0408
    --------------------------------------------
      LOOP:  cpu time    3.4164: real time    3.4245

 eigenvalue-minimisations  :    64
 total energy-change (2. order) : 0.1158369E+00  (-0.1325486E-01)
 number of electron       8.0000002 magnetization 
 augmentation part        0.1913124 magnetization 

 Broyden mixing:
  rms(total) = 0.80529E-01    rms(broyden)= 0.80475E-01
  rms(prec ) = 0.11285E+00
  weight for this iteration     100.00

 eigenvalues of (default mixing * dielectric matrix)
  average eigenvalue GAMMA=   1.4717
  2.2318  1.4708  0.7126

 Free energy of the ion-electron system (eV)
  ---------------------------------------------------
  alpha Z        PSCENC =         0.25114831
  Ewald energy   TEWEN  =       130.60538819
  -Hartree energ DENC   =      -280.73157199
  -exchange      EXHF   =         0.00000000
  -V(xc)+E(xc)   XCENC  =        24.60465079
  PAW double counting   =       459.96012003     -460.76846378
  entropy T*S    EENTRO =         0.02332503
  eigenvalues    EBANDS =       -95.02174084
  atomic energy  EATOM  =       197.04175453
  Solvation  Ediel_sol  =         0.00000000
  ---------------------------------------------------
  free energy    TOTEN  =       -24.03538973 eV

  energy without entropy =      -24.05871476  energy(sigma->0) =      -24.04316474


--------------------------------------------------------------------------------------------------------




--------------------------------------- Iteration      1(   9)  ---------------------------------------


    POTLOK:  cpu time    1.5712: real time    1.5749
    SETDIJ:  cpu time    0.0064: real time    0.0064
    EDDIAG:  cpu time    0.3650: real time    0.3659
  RMM-DIIS:  cpu time    1.2454: real time    1.2484
    ORTHCH:  cpu time    0.0115: real time    0.0116
       DOS:  cpu time    0.0002: real time    0.0002
    CHARGE:  cpu time    0.1573: real time    0.1576
    MIXING:  cpu time    0.0392: real time    0.0393
    --------------------------------------------
      LOOP:  cpu time    3.3962: real time    3.4043

 eigenvalue-minimisations  :    64
 total energy-change (2. order) : 0.2669718E-01  (-0.3299723E-02)
 number of electron       8.0000002 magnetization 
 augmentation part        0.1906980 magnetization 

 Broyden mixing:
  rms(total) = 0.54269E-01    rms(broyden)= 0.54255E-01
  rms(prec ) = 0.80528E-01
  weight for this iteration     100.00

 eigenvalues of (default mixing * dielectric matrix)
  average eigenvalue GAMMA=   1.3827
  2.1152  1.4065  1.0045  1.0045

 Free energy of the ion-electron system (eV)
  ---------------------------------------------------
  alpha Z        PSCENC =         0.25114831
  Ewald energy   TEWEN  =       130.60538819
  -Hartree energ DENC   =      -283.00191754
  -exchange      EXHF   =         0.00000000
  -V(xc)+E(xc)   XCENC  =        24.79988949
  PAW double counting   =       496.30225842     -497.10315628
  entropy T*S    EENTRO =         0.02884784
  eigenvalues    EBANDS =       -92.93290550
  atomic energy  EATOM  =       197.04175453
  Solvation  Ediel_sol  =         0.00000000
  ---------------------------------------------------
  free energy    TOTEN  =       -24.00869254 eV

  energy without entropy =      -24.03754038  energy(sigma->0) =      -24.01830849


--------------------------------------------------------------------------------------------------------




--------------------------------------- Iteration      1(  10)  ---------------------------------------


    POTLOK:  cpu time    1.5722: real time    1.5759
    SETDIJ:  cpu time    0.0064: real time    0.0065
    EDDIAG:  cpu time    0.3672: real time    0.3681
  RMM-DIIS:  cpu time    1.2980: real time    1.3010
    ORTHCH:  cpu time    0.0116: real time    0.0116
       DOS:  cpu time    0.0002: real time    0.0002
    CHARGE:  cpu time    0.1497: real time    0.1501
    MIXING:  cpu time    0.0389: real time    0.0390
    --------------------------------------------
      LOOP:  cpu time    3.4442: real time    3.4523

 eigenvalue-minimisations  :    64
 total energy-change (2. order) : 0.1602691E-01  (-0.1996894E-02)
 number of electron       8.0000002 magnetization 
 augmentation part        0.1900488 magnetization 

 Broyden mixing:
  rms(total) = 0.31934E-01    rms(broyden)= 0.31915E-01
  rms(prec ) = 0.50612E-01
  weight for this iteration     100.00

 eigenvalues of (default mixing * dielectric matrix)
  average eigenvalue GAMMA=   1.3050
  2.1292  1.5344  1.0834  1.0834  0.6949

 Free energy of the ion-electron system (eV)
  ---------------------------------------------------
  alpha Z        PSCENC =         0.25114831
  Ewald energy   TEWEN  =       130.60538819
  -Hartree energ DENC   =      -283.99004082
  -exchange      EXHF   =         0.00000000
  -V(xc)+E(xc)   XCENC  =        24.83697539
  PAW double counting   =       491.58968580     -492.39494330
  entropy T*S    EENTRO =         0.03853218
  eigenvalues    EBANDS =       -91.97116590
  atomic energy  EATOM  =       197.04175453
  Solvation  Ediel_sol  =         0.00000000
  ---------------------------------------------------
  free energy    TOTEN  =       -23.99266563 eV

  energy without entropy =      -24.03119781  energy(sigma->0) =      -24.00550969


--------------------------------------------------------------------------------------------------------




--------------------------------------- Iteration      1(  11)  ---------------------------------------


    POTLOK:  cpu time    1.5577: real time    1.5615
    SETDIJ:  cpu time    0.0063: real time    0.0064
    EDDIAG:  cpu time    0.3678: real time    0.3686
  RMM-DIIS:  cpu time    1.2946: real time    1.2977
    ORTHCH:  cpu time    0.0116: real time    0.0116
       DOS:  cpu time    0.0002: real time    0.0002
    CHARGE:  cpu time    0.1664: real time    0.1668
    MIXING:  cpu time    0.0418: real time    0.0419
    --------------------------------------------
      LOOP:  cpu time    3.4465: real time    3.4547

 eigenvalue-minimisations  :    64
 total energy-change (2. order) : 0.7354143E-03  (-0.3785541E-03)
 number of electron       8.0000002 magnetization 
 augmentation part        0.1900400 magnetization 

 Broyden mixing:
  rms(total) = 0.19949E-01    rms(broyden)= 0.19868E-01
  rms(prec ) = 0.34877E-01
  weight for this iteration     100.00

 eigenvalues of (default mixing * dielectric matrix)
  average eigenvalue GAMMA=   1.4956
  2.2641  2.2641  1.3340  1.3340  1.1485  0.6287

 Free energy of the ion-electron system (eV)
  ---------------------------------------------------
  alpha Z        PSCENC =         0.25114831
  Ewald energy   TEWEN  =       130.60538819
  -Hartree energ DENC   =      -284.26630920
  -exchange      EXHF   =         0.00000000
  -V(xc)+E(xc)   XCENC  =        24.84832915
  PAW double counting   =       490.84143280     -491.64316291
  entropy T*S    EENTRO =         0.03715033
  eigenvalues    EBANDS =       -91.70766140
  atomic energy  EATOM  =       197.04175453
  Solvation  Ediel_sol  =         0.00000000
  ---------------------------------------------------
  free energy    TOTEN  =       -23.99193021 eV

  energy without entropy =      -24.02908054  energy(sigma->0) =      -24.00431366


--------------------------------------------------------------------------------------------------------




--------------------------------------- Iteration      1(  12)  ---------------------------------------


    POTLOK:  cpu time    1.5207: real time    1.5243
    SETDIJ:  cpu time    0.0064: real time    0.0064
    EDDIAG:  cpu time    0.3401: real time    0.3409
  RMM-DIIS:  cpu time    1.2827: real time    1.2857
    ORTHCH:  cpu time    0.0113: real time    0.0113
       DOS:  cpu time    0.0002: real time    0.0002
    CHARGE:  cpu time    0.1600: real time    0.1604
    MIXING:  cpu time    0.0416: real time    0.0417
    --------------------------------------------
      LOOP:  cpu time    3.3630: real time    3.3710

 eigenvalue-minimisations  :    64
 total energy-change (2. order) : 0.2485683E-02  (-0.4178962E-03)
 number of electron       8.0000002 magnetization 
 augmentation part        0.1898520 magnetization 

 Broyden mixing:
  rms(total) = 0.39598E-01    rms(broyden)= 0.39578E-01
  rms(prec ) = 0.53598E-01
  weight for this iteration     100.00

 eigenvalues of (default mixing * dielectric matrix)
  average eigenvalue GAMMA=   1.4658
  2.9652  2.3530  1.1739  1.0766  1.0766  0.8075  0.8075

 Free energy of the ion-electron system (eV)
  ---------------------------------------------------
  alpha Z        PSCENC =         0.25114831
  Ewald energy   TEWEN  =       130.60538819
  -Hartree energ DENC   =      -285.54118348
  -exchange      EXHF   =         0.00000000
  -V(xc)+E(xc)   XCENC  =        24.90336226
  PAW double counting   =       488.10103729     -488.90129511
  entropy T*S    EENTRO =         0.03729124
  eigenvalues    EBANDS =       -90.48694776
  atomic energy  EATOM  =       197.04175453
  Solvation  Ediel_sol  =         0.00000000
  ---------------------------------------------------
  free energy    TOTEN  =       -23.98944453 eV

  energy without entropy =      -24.02673577  energy(sigma->0) =      -24.00187494


--------------------------------------------------------------------------------------------------------




--------------------------------------- Iteration      1(  13)  ---------------------------------------


    POTLOK:  cpu time    1.5147: real time    1.5182
    SETDIJ:  cpu time    0.0064: real time    0.0064
    EDDIAG:  cpu time    0.3572: real time    0.3580
  RMM-DIIS:  cpu time    1.2114: real time    1.2143
    ORTHCH:  cpu time    0.0110: real time    0.0111
       DOS:  cpu time    0.0002: real time    0.0002
    CHARGE:  cpu time    0.1594: real time    0.1598
    MIXING:  cpu time    0.0429: real time    0.0430
    --------------------------------------------
      LOOP:  cpu time    3.3032: real time    3.3110

 eigenvalue-minimisations  :    64
 total energy-change (2. order) : 0.2954098E-03  (-0.4874240E-04)
 number of electron       8.0000002 magnetization 
 augmentation part        0.1896984 magnetization 

 Broyden mixing:
  rms(total) = 0.28434E-01    rms(broyden)= 0.28432E-01
  rms(prec ) = 0.38854E-01
  weight for this iteration     100.00

 eigenvalues of (default mixing * dielectric matrix)
  average eigenvalue GAMMA=   1.4709
  3.2381  2.4455  1.2138  1.2138  1.3725  0.9646  0.7508  0.5683

 Free energy of the ion-electron system (eV)
  ---------------------------------------------------
  alpha Z        PSCENC =         0.25114831
  Ewald energy   TEWEN  =       130.60538819
  -Hartree energ DENC   =      -285.79598557
  -exchange      EXHF   =         0.00000000
  -V(xc)+E(xc)   XCENC  =        24.91207570
  PAW double counting   =       487.17953266     -487.98035489
  entropy T*S    EENTRO =         0.03716472
  eigenvalues    EBANDS =       -90.23987276
  atomic energy  EATOM  =       197.04175453
  Solvation  Ediel_sol  =         0.00000000
  ---------------------------------------------------
  free energy    TOTEN  =       -23.98914912 eV

  energy without entropy =      -24.02631384  energy(sigma->0) =      -24.00153736


--------------------------------------------------------------------------------------------------------




--------------------------------------- Iteration      1(  14)  ---------------------------------------


    POTLOK:  cpu time    1.5019: real time    1.5055
    SETDIJ:  cpu time    0.0065: real time    0.0065
    EDDIAG:  cpu time    0.3879: real time    0.3888
  RMM-DIIS:  cpu time    1.2309: real time    1.2338
    ORTHCH:  cpu time    0.0112: real time    0.0112
       DOS:  cpu time    0.0002: real time    0.0002
    CHARGE:  cpu time    0.1459: real time    0.1463
    MIXING:  cpu time    0.0418: real time    0.0419
    --------------------------------------------
      LOOP:  cpu time    3.3264: real time    3.3342

 eigenvalue-minimisations  :    64
 total energy-change (2. order) :-0.3458992E-02  (-0.3191551E-03)
 number of electron       8.0000002 magnetization 
 augmentation part        0.1895041 magnetization 

 Broyden mixing:
  rms(total) = 0.24271E-01    rms(broyden)= 0.24160E-01
  rms(prec ) = 0.32561E-01
  weight for this iteration     100.00

 eigenvalues of (default mixing * dielectric matrix)
  average eigenvalue GAMMA=   1.6390
  4.1213  2.7854  1.8871  1.1482  1.1482  1.3910  0.8588  0.8588  0.5521

 Free energy of the ion-electron system (eV)
  ---------------------------------------------------
  alpha Z        PSCENC =         0.25114831
  Ewald energy   TEWEN  =       130.60538819
  -Hartree energ DENC   =      -286.05889800
  -exchange      EXHF   =         0.00000000
  -V(xc)+E(xc)   XCENC  =        24.91626593
  PAW double counting   =       485.78493300     -486.58756652
  entropy T*S    EENTRO =         0.03849794
  eigenvalues    EBANDS =       -89.98413149
  atomic energy  EATOM  =       197.04175453
  Solvation  Ediel_sol  =         0.00000000
  ---------------------------------------------------
  free energy    TOTEN  =       -23.99260811 eV

  energy without entropy =      -24.03110605  energy(sigma->0) =      -24.00544076


--------------------------------------------------------------------------------------------------------




--------------------------------------- Iteration      1(  15)  ---------------------------------------


    POTLOK:  cpu time    1.4146: real time    1.4180
    SETDIJ:  cpu time    0.0066: real time    0.0067
    EDDIAG:  cpu time    0.3795: real time    0.3804
  RMM-DIIS:  cpu time    1.3333: real time    1.3365
    ORTHCH:  cpu time    0.0114: real time    0.0114
       DOS:  cpu time    0.0002: real time    0.0002
    CHARGE:  cpu time    0.1446: real time    0.1450
    MIXING:  cpu time    0.0431: real time    0.0432
    --------------------------------------------
      LOOP:  cpu time    3.3335: real time    3.3414

 eigenvalue-minimisations  :    64
 total energy-change (2. order) :-0.4558245E-02  (-0.1428290E-03)
 number of electron       8.0000002 magnetization 
 augmentation part        0.1896351 magnetization 

 Broyden mixing:
  rms(total) = 0.27720E-01    rms(broyden)= 0.27712E-01
  rms(prec ) = 0.37103E-01
  weight for this iteration     100.00

 eigenvalues of (default mixing * dielectric matrix)
  average eigenvalue GAMMA=   1.6739
  4.5748  2.6546  2.4201  1.1860  1.1860  1.1516  1.1516  0.9955  0.8092  0.6099

 Free energy of the ion-electron system (eV)
  ---------------------------------------------------
  alpha Z        PSCENC =         0.25114831
  Ewald energy   TEWEN  =       130.60538819
  -Hartree energ DENC   =      -285.97323553
  -exchange      EXHF   =         0.00000000
  -V(xc)+E(xc)   XCENC  =        24.90372422
  PAW double counting   =       485.06251811     -485.86345293
  entropy T*S    EENTRO =         0.03876671
  eigenvalues    EBANDS =       -90.06377797
  atomic energy  EATOM  =       197.04175453
  Solvation  Ediel_sol  =         0.00000000
  ---------------------------------------------------
  free energy    TOTEN  =       -23.99716636 eV

  energy without entropy =      -24.03593307  energy(sigma->0) =      -24.01008859


--------------------------------------------------------------------------------------------------------




--------------------------------------- Iteration      1(  16)  ---------------------------------------


    POTLOK:  cpu time    1.3960: real time    1.3993
    SETDIJ:  cpu time    0.0064: real time    0.0064
    EDDIAG:  cpu time    0.3804: real time    0.3813
  RMM-DIIS:  cpu time    1.3456: real time    1.3488
    ORTHCH:  cpu time    0.0114: real time    0.0114
       DOS:  cpu time    0.0002: real time    0.0002
    CHARGE:  cpu time    0.1671: real time    0.1675
    MIXING:  cpu time    0.0446: real time    0.0447
    --------------------------------------------
      LOOP:  cpu time    3.3516: real time    3.3595

 eigenvalue-minimisations  :    64
 total energy-change (2. order) :-0.4805762E-03  (-0.8859392E-04)
 number of electron       8.0000002 magnetization 
 augmentation part        0.1896114 magnetization 

 Broyden mixing:
  rms(total) = 0.43013E-02    rms(broyden)= 0.41123E-02
  rms(prec ) = 0.56683E-02
  weight for this iteration     100.00

 eigenvalues of (default mixing * dielectric matrix)
  average eigenvalue GAMMA=   1.6283
  4.9252  2.8759  2.2558  1.1767  1.1767  1.1938  1.1938  0.5932  0.8313  0.8313
  0.8572

 Free energy of the ion-electron system (eV)
  ---------------------------------------------------
  alpha Z        PSCENC =         0.25114831
  Ewald energy   TEWEN  =       130.60538819
  -Hartree energ DENC   =      -286.05354188
  -exchange      EXHF   =         0.00000000
  -V(xc)+E(xc)   XCENC  =        24.90727596
  PAW double counting   =       486.21866206     -487.01947804
  entropy T*S    EENTRO =         0.03734796
  eigenvalues    EBANDS =       -89.98620402
  atomic energy  EATOM  =       197.04175453
  Solvation  Ediel_sol  =         0.00000000
  ---------------------------------------------------
  free energy    TOTEN  =       -23.99764693 eV

  energy without entropy =      -24.03499489  energy(sigma->0) =      -24.01009625


--------------------------------------------------------------------------------------------------------




--------------------------------------- Iteration      1(  17)  ---------------------------------------


    POTLOK:  cpu time    1.3855: real time    1.3887
    SETDIJ:  cpu time    0.0064: real time    0.0064
    EDDIAG:  cpu time    0.3646: real time    0.3654
  RMM-DIIS:  cpu time    1.3258: real time    1.3289
    ORTHCH:  cpu time    0.0117: real time    0.0117
       DOS:  cpu time    0.0002: real time    0.0002
    CHARGE:  cpu time    0.1615: real time    0.1619
    MIXING:  cpu time    0.0486: real time    0.0487
    --------------------------------------------
      LOOP:  cpu time    3.3043: real time    3.3121

 eigenvalue-minimisations  :    64
 total energy-change (2. order) :-0.5827912E-03  (-0.5846416E-05)
 number of electron       8.0000002 magnetization 
 augmentation part        0.1896019 magnetization 

 Broyden mixing:
  rms(total) = 0.91675E-03    rms(broyden)= 0.91188E-03
  rms(prec ) = 0.19715E-02
  weight for this iteration     100.00

 eigenvalues of (default mixing * dielectric matrix)
  average eigenvalue GAMMA=   1.8108
  6.0319  3.4476  2.2597  2.2597  1.1834  1.1834  1.2808  0.9858  0.9858  0.6042
  0.7754  0.7325

 Free energy of the ion-electron system (eV)
  ---------------------------------------------------
  alpha Z        PSCENC =         0.25114831
  Ewald energy   TEWEN  =       130.60538819
  -Hartree energ DENC   =      -286.05695162
  -exchange      EXHF   =         0.00000000
  -V(xc)+E(xc)   XCENC  =        24.90542598
  PAW double counting   =       485.98308177     -486.78415970
  entropy T*S    EENTRO =         0.03743022
  eigenvalues    EBANDS =       -89.98134741
  atomic energy  EATOM  =       197.04175453
  Solvation  Ediel_sol  =         0.00000000
  ---------------------------------------------------
  free energy    TOTEN  =       -23.99822972 eV

  energy without entropy =      -24.03565995  energy(sigma->0) =      -24.01070647


--------------------------------------------------------------------------------------------------------




--------------------------------------- Iteration      1(  18)  ---------------------------------------


    POTLOK:  cpu time    1.3781: real time    1.3814
    SETDIJ:  cpu time    0.0064: real time    0.0064
    EDDIAG:  cpu time    0.3549: real time    0.3557
  RMM-DIIS:  cpu time    1.2930: real time    1.2960
    ORTHCH:  cpu time    0.0111: real time    0.0111
       DOS:  cpu time    0.0002: real time    0.0002
    CHARGE:  cpu time    0.1634: real time    0.1638
    MIXING:  cpu time    0.0486: real time    0.0487
    --------------------------------------------
      LOOP:  cpu time    3.2556: real time    3.2633

 eigenvalue-minimisations  :    64
 total energy-change (2. order) :-0.9400440E-03  (-0.1205898E-04)
 number of electron       8.0000002 magnetization 
 augmentation part        0.1895752 magnetization 

 Broyden mixing:
  rms(total) = 0.42224E-02    rms(broyden)= 0.42178E-02
  rms(prec ) = 0.56563E-02
  weight for this iteration     100.00

 eigenvalues of (default mixing * dielectric matrix)
  average eigenvalue GAMMA=   1.9237
  6.8824  4.2712  2.5555  2.2597  1.1920  1.1920  1.2773  1.2773  0.9607  0.8980
  0.8980  0.6092  0.7350

 Free energy of the ion-electron system (eV)
  ---------------------------------------------------
  alpha Z        PSCENC =         0.25114831
  Ewald energy   TEWEN  =       130.60538819
  -Hartree energ DENC   =      -286.04842172
  -exchange      EXHF   =         0.00000000
  -V(xc)+E(xc)   XCENC  =        24.90262485
  PAW double counting   =       486.06789719     -486.86911111
  entropy T*S    EENTRO =         0.03731488
  eigenvalues    EBANDS =       -89.98776488
  atomic energy  EATOM  =       197.04175453
  Solvation  Ediel_sol  =         0.00000000
  ---------------------------------------------------
  free energy    TOTEN  =       -23.99916977 eV

  energy without entropy =      -24.03648465  energy(sigma->0) =      -24.01160806


--------------------------------------------------------------------------------------------------------




--------------------------------------- Iteration      1(  19)  ---------------------------------------


    POTLOK:  cpu time    1.4004: real time    1.4037
    SETDIJ:  cpu time    0.0064: real time    0.0064
    EDDIAG:  cpu time    0.3823: real time    0.3832
  RMM-DIIS:  cpu time    1.2700: real time    1.2730
    ORTHCH:  cpu time    0.0112: real time    0.0112
       DOS:  cpu time    0.0002: real time    0.0002
    CHARGE:  cpu time    0.1591: real time    0.1595
    MIXING:  cpu time    0.0491: real time    0.0493
    --------------------------------------------
      LOOP:  cpu time    3.2788: real time    3.2865

 eigenvalue-minimisations  :    64
 total energy-change (2. order) :-0.2156170E-03  (-0.3455733E-05)
 number of electron       8.0000002 magnetization 
 augmentation part        0.1895873 magnetization 

 Broyden mixing:
  rms(total) = 0.12715E-02    rms(broyden)= 0.12678E-02
  rms(prec ) = 0.17406E-02
  weight for this iteration     100.00

 eigenvalues of (default mixing * dielectric matrix)
  average eigenvalue GAMMA=   1.9033
  6.9453  4.2258  2.6875  2.0954  2.0954  1.1910  1.1910  1.2606  1.0221  1.0221
  0.6060  0.7848  0.7595  0.7595

 Free energy of the ion-electron system (eV)
  ---------------------------------------------------
  alpha Z        PSCENC =         0.25114831
  Ewald energy   TEWEN  =       130.60538819
  -Hartree energ DENC   =      -286.03790276
  -exchange      EXHF   =         0.00000000
  -V(xc)+E(xc)   XCENC  =        24.90234478
  PAW double counting   =       486.33252256     -487.13346114
  entropy T*S    EENTRO =         0.03740508
  eigenvalues    EBANDS =       -89.99858493
  atomic energy  EATOM  =       197.04175453
  Solvation  Ediel_sol  =         0.00000000
  ---------------------------------------------------
  free energy    TOTEN  =       -23.99938539 eV

  energy without entropy =      -24.03679047  energy(sigma->0) =      -24.01185375


--------------------------------------------------------------------------------------------------------




--------------------------------------- Iteration      1(  20)  ---------------------------------------


    POTLOK:  cpu time    1.3998: real time    1.4032
    SETDIJ:  cpu time    0.0064: real time    0.0065
    EDDIAG:  cpu time    0.3779: real time    0.3788
  RMM-DIIS:  cpu time    1.2956: real time    1.2987
    ORTHCH:  cpu time    0.0118: real time    0.0118
       DOS:  cpu time    0.0002: real time    0.0002
    CHARGE:  cpu time    0.1694: real time    0.1698
    MIXING:  cpu time    0.0503: real time    0.0505
    --------------------------------------------
      LOOP:  cpu time    3.3115: real time    3.3195

 eigenvalue-minimisations  :    64
 total energy-change (2. order) :-0.6939919E-04  (-0.1147582E-05)
 number of electron       8.0000002 magnetization 
 augmentation part        0.1895900 magnetization 

 Broyden mixing:
  rms(total) = 0.21407E-02    rms(broyden)= 0.21342E-02
  rms(prec ) = 0.28236E-02
  weight for this iteration     100.00

 eigenvalues of (default mixing * dielectric matrix)
  average eigenvalue GAMMA=   2.0612
  7.9480  4.7530  3.6338  2.4395  2.0399  1.1964  1.1964  1.3897  1.3897  0.8707
  0.8707  0.6062  0.9097  0.9097  0.7642

 Free energy of the ion-electron system (eV)
  ---------------------------------------------------
  alpha Z        PSCENC =         0.25114831
  Ewald energy   TEWEN  =       130.60538819
  -Hartree energ DENC   =      -286.05035962
  -exchange      EXHF   =         0.00000000
  -V(xc)+E(xc)   XCENC  =        24.90317347
  PAW double counting   =       486.29781851     -487.09877961
  entropy T*S    EENTRO =         0.03750244
  eigenvalues    EBANDS =       -89.98710100
  atomic energy  EATOM  =       197.04175453
  Solvation  Ediel_sol  =         0.00000000
  ---------------------------------------------------
  free energy    TOTEN  =       -23.99945478 eV

  energy without entropy =      -24.03695723  energy(sigma->0) =      -24.01195560


--------------------------------------------------------------------------------------------------------




--------------------------------------- Iteration      1(  21)  ---------------------------------------


    POTLOK:  cpu time    1.4459: real time    1.4493
    SETDIJ:  cpu time    0.0065: real time    0.0065
    EDDIAG:  cpu time    0.3573: real time    0.3582
  RMM-DIIS:  cpu time    1.3200: real time    1.3232
    ORTHCH:  cpu time    0.0113: real time    0.0114
       DOS:  cpu time    0.0002: real time    0.0002
    CHARGE:  cpu time    0.1669: real time    0.1673
    MIXING:  cpu time    0.0547: real time    0.0548
    --------------------------------------------
      LOOP:  cpu time    3.3629: real time    3.3709

 eigenvalue-minimisations  :    64
 total energy-change (2. order) :-0.4741863E-04  (-0.1582373E-05)
 number of electron       8.0000002 magnetization 
 augmentation part        0.1895672 magnetization 

 Broyden mixing:
  rms(total) = 0.10406E-02    rms(broyden)= 0.10356E-02
  rms(prec ) = 0.13557E-02
  weight for this iteration     100.00

 eigenvalues of (default mixing * dielectric matrix)
  average eigenvalue GAMMA=   1.9891
  8.1170  5.0196  3.4329  2.4998  2.1937  1.1943  1.1943  1.2473  1.2473  0.9320
  0.9105  0.9105  0.6061  0.7646  0.7779  0.7779

 Free energy of the ion-electron system (eV)
  ---------------------------------------------------
  alpha Z        PSCENC =         0.25114831
  Ewald energy   TEWEN  =       130.60538819
  -Hartree energ DENC   =      -286.05982630
  -exchange      EXHF   =         0.00000000
  -V(xc)+E(xc)   XCENC  =        24.90312792
  PAW double counting   =       486.05246478     -486.85364693
  entropy T*S    EENTRO =         0.03741196
  eigenvalues    EBANDS =       -89.97732466
  atomic energy  EATOM  =       197.04175453
  Solvation  Ediel_sol  =         0.00000000
  ---------------------------------------------------
  free energy    TOTEN  =       -23.99950220 eV

  energy without entropy =      -24.03691416  energy(sigma->0) =      -24.01197286


--------------------------------------------------------------------------------------------------------




--------------------------------------- Iteration      1(  22)  ---------------------------------------


    POTLOK:  cpu time    1.4395: real time    1.4429
    SETDIJ:  cpu time    0.0064: real time    0.0064
    EDDIAG:  cpu time    0.3702: real time    0.3710
  RMM-DIIS:  cpu time    0.9898: real time    0.9922
    ORTHCH:  cpu time    0.0113: real time    0.0113
       DOS:  cpu time    0.0002: real time    0.0002
    CHARGE:  cpu time    0.1700: real time    0.1704
    MIXING:  cpu time    0.0611: real time    0.0613
    --------------------------------------------
      LOOP:  cpu time    3.0485: real time    3.0557

 eigenvalue-minimisations  :    48
 total energy-change (2. order) :-0.2154207E-05  (-0.1907531E-06)
 number of electron       8.0000002 magnetization 
 augmentation part        0.1895737 magnetization 

 Broyden mixing:
  rms(total) = 0.39791E-03    rms(broyden)= 0.39594E-03
  rms(prec ) = 0.53601E-03
  weight for this iteration     100.00

 eigenvalues of (default mixing * dielectric matrix)
  average eigenvalue GAMMA=   2.0192
  8.2498  5.1732  3.1807  2.8126  2.1044  2.1044  1.1945  1.1945  1.2545  1.0786
  1.0786  1.0304  0.8474  0.8474  0.6054  0.7852  0.7852

 Free energy of the ion-electron system (eV)
  ---------------------------------------------------
  alpha Z        PSCENC =         0.25114831
  Ewald energy   TEWEN  =       130.60538819
  -Hartree energ DENC   =      -286.05039197
  -exchange      EXHF   =         0.00000000
  -V(xc)+E(xc)   XCENC  =        24.90277006
  PAW double counting   =       486.10019827     -486.90127029
  entropy T*S    EENTRO =         0.03744715
  eigenvalues    EBANDS =       -89.98654859
  atomic energy  EATOM  =       197.04175453
  Solvation  Ediel_sol  =         0.00000000
  ---------------------------------------------------
  free energy    TOTEN  =       -23.99950436 eV

  energy without entropy =      -24.03695150  energy(sigma->0) =      -24.01198674


--------------------------------------------------------------------------------------------------------




--------------------------------------- Iteration      1(  23)  ---------------------------------------


    POTLOK:  cpu time    1.4809: real time    1.4844
    SETDIJ:  cpu time    0.0064: real time    0.0064
    EDDIAG:  cpu time    0.3743: real time    0.3752
  RMM-DIIS:  cpu time    0.9649: real time    0.9672
    ORTHCH:  cpu time    0.0114: real time    0.0114
       DOS:  cpu time    0.0002: real time    0.0002
    CHARGE:  cpu time    0.1467: real time    0.1471
    MIXING:  cpu time    0.0520: real time    0.0521
    --------------------------------------------
      LOOP:  cpu time    3.0367: real time    3.0439

 eigenvalue-minimisations  :    48
 total energy-change (2. order) :-0.3913127E-05  (-0.1342089E-06)
 number of electron       8.0000002 magnetization 
 augmentation part        0.1895794 magnetization 

 Broyden mixing:
  rms(total) = 0.14250E-03    rms(broyden)= 0.14238E-03
  rms(prec ) = 0.19590E-03
  weight for this iteration     100.00

 eigenvalues of (default mixing * dielectric matrix)
  average eigenvalue GAMMA=   2.0154
  8.3276  5.3679  3.7535  2.7873  2.4865  2.0262  1.1945  1.1945  1.3034  1.0973
  1.0973  1.0605  0.8475  0.8475  0.6051  0.7959  0.7959  0.6888

 Free energy of the ion-electron system (eV)
  ---------------------------------------------------
  alpha Z        PSCENC =         0.25114831
  Ewald energy   TEWEN  =       130.60538819
  -Hartree energ DENC   =      -286.04601780
  -exchange      EXHF   =         0.00000000
  -V(xc)+E(xc)   XCENC  =        24.90256583
  PAW double counting   =       486.12713573     -486.92815581
  entropy T*S    EENTRO =         0.03744027
  eigenvalues    EBANDS =       -89.99076752
  atomic energy  EATOM  =       197.04175453
  Solvation  Ediel_sol  =         0.00000000
  ---------------------------------------------------
  free energy    TOTEN  =       -23.99950827 eV

  energy without entropy =      -24.03694854  energy(sigma->0) =      -24.01198836


--------------------------------------------------------------------------------------------------------




--------------------------------------- Iteration      1(  24)  ---------------------------------------


    POTLOK:  cpu time    1.5355: real time    1.5392
    SETDIJ:  cpu time    0.0067: real time    0.0067
    EDDIAG:  cpu time    0.3923: real time    0.3932
  RMM-DIIS:  cpu time    0.9861: real time    0.9884
    ORTHCH:  cpu time    0.0114: real time    0.0114
       DOS:  cpu time    0.0002: real time    0.0002
    CHARGE:  cpu time    0.1536: real time    0.1540
    MIXING:  cpu time    0.0576: real time    0.0577
    --------------------------------------------
      LOOP:  cpu time    3.1434: real time    3.1509

 eigenvalue-minimisations  :    48
 total energy-change (2. order) :-0.2513905E-05  (-0.3016292E-07)
 number of electron       8.0000002 magnetization 
 augmentation part        0.1895808 magnetization 

 Broyden mixing:
  rms(total) = 0.85136E-04    rms(broyden)= 0.84930E-04
  rms(prec ) = 0.10876E-03
  weight for this iteration     100.00

 eigenvalues of (default mixing * dielectric matrix)
  average eigenvalue GAMMA=   1.9896
  8.3633  5.3953  3.9251  2.5920  2.5920  2.1489  1.1942  1.1942  1.0277  1.0277
  1.2484  1.2484  1.1659  0.8503  0.8503  0.9095  0.6051  0.7498  0.7141

 Free energy of the ion-electron system (eV)
  ---------------------------------------------------
  alpha Z        PSCENC =         0.25114831
  Ewald energy   TEWEN  =       130.60538819
  -Hartree energ DENC   =      -286.04768796
  -exchange      EXHF   =         0.00000000
  -V(xc)+E(xc)   XCENC  =        24.90265022
  PAW double counting   =       486.14278310     -486.94380834
  entropy T*S    EENTRO =         0.03743679
  eigenvalues    EBANDS =       -89.98917562
  atomic energy  EATOM  =       197.04175453
  Solvation  Ediel_sol  =         0.00000000
  ---------------------------------------------------
  free energy    TOTEN  =       -23.99951078 eV

  energy without entropy =      -24.03694757  energy(sigma->0) =      -24.01198971


--------------------------------------------------------------------------------------------------------




--------------------------------------- Iteration      1(  25)  ---------------------------------------


    POTLOK:  cpu time    1.5205: real time    1.5242
    SETDIJ:  cpu time    0.0064: real time    0.0065
    EDDIAG:  cpu time    0.3678: real time    0.3687
  RMM-DIIS:  cpu time    0.9932: real time    0.9955
    ORTHCH:  cpu time    0.0111: real time    0.0111
       DOS:  cpu time    0.0002: real time    0.0002
    --------------------------------------------
      LOOP:  cpu time    2.8992: real time    2.9061

 eigenvalue-minimisations  :    44
 total energy-change (2. order) :-0.4019072E-06  (-0.4588830E-08)
 number of electron       8.0000002 magnetization 
 augmentation part        0.1895808 magnetization 

 Free energy of the ion-electron system (eV)
  ---------------------------------------------------
  alpha Z        PSCENC =         0.25114831
  Ewald energy   TEWEN  =       130.60538819
  -Hartree energ DENC   =      -286.04862373
  -exchange      EXHF   =         0.00000000
  -V(xc)+E(xc)   XCENC  =        24.90266002
  PAW double counting   =       486.13152866     -486.93257272
  entropy T*S    EENTRO =         0.03743507
  eigenvalues    EBANDS =       -89.98822952
  atomic energy  EATOM  =       197.04175453
  Solvation  Ediel_sol  =         0.00000000
  ---------------------------------------------------
  free energy    TOTEN  =       -23.99951119 eV

  energy without entropy =      -24.03694626  energy(sigma->0) =      -24.01198954


--------------------------------------------------------------------------------------------------------




 average (electrostatic) potential at core
  the test charge radii are     0.5201  0.6991
  (the norm of the test charge is              1.0000)
       1 -41.5682       2 -41.6817       3 -41.5488       4 -41.5152       5 -57.8618



 E-fermi :  -9.1496     XC(G=0):  -0.7162     alpha+bet : -0.2184


 k-point     1 :       0.2500    0.2500    0.2500
  band No.  band energies     occupation 
      1     -16.9871      2.00000
      2      -9.3928      2.07089
      3      -9.3185      2.00129
      4      -9.2919      1.92774
      5      -0.2922      0.00000
      6       0.5886      0.00000
      7       0.6939      0.00000
      8       0.7161      0.00000

 k-point     2 :      -0.2500    0.2500    0.2500
  band No.  band energies     occupation 
      1     -16.9871      2.00000
      2      -9.3930      2.07090
      3      -9.3186      2.00132
      4      -9.2919      1.92774
      5      -0.2932      0.00000
      6       0.5894      0.00000
      7       0.6894      0.00000
      8       0.7207      0.00000

 k-point     3 :       0.2500   -0.2500    0.2500
  band No.  band energies     occupation 
      1     -16.9871      2.00000
      2      -9.3929      2.07090
      3      -9.3186      2.00138
      4      -9.2919      1.92770
      5      -0.2940      0.00000
      6       0.5896      0.00000
      7       0.6955      0.00000
      8       0.7217      0.00000

 k-point     4 :      -0.2500   -0.2500    0.2500
  band No.  band energies     occupation 
      1     -16.9872      2.00000
      2      -9.3929      2.07090
      3      -9.3186      2.00140
      4      -9.2919      1.92784
      5      -0.2932      0.00000
      6       0.5889      0.00000
      7       0.6982      0.00000
      8       0.7180      0.00000


--------------------------------------------------------------------------------------------------------


 soft charge-density along one line, spin component           1
         0         1         2         3         4         5         6         7         8         9
 total charge-density along one line

 pseudopotential strength for first ion, spin component:           1
 -2.341  -4.034  -0.001  -0.002   0.001
 -4.034  -6.865  -0.003  -0.005   0.002
 -0.001  -0.003  -0.335   0.002  -0.001
 -0.002  -0.005   0.002  -0.334  -0.001
  0.001   0.002  -0.001  -0.001  -0.336
 total augmentation occupancy for first ion, spin component:           1
  3.816  -0.715   0.246   0.419  -0.150
 -0.715   0.148  -0.048  -0.079   0.029
  0.246  -0.048   0.022   0.023  -0.008
  0.419  -0.079   0.023   0.051  -0.014
 -0.150   0.029  -0.008  -0.014   0.015


------------------------ aborting loop because EDIFF is reached ----------------------------------------


    CHARGE:  cpu time    0.1407: real time    0.1411
    FORLOC:  cpu time    0.0998: real time    0.1000
    FORNL :  cpu time    0.5048: real time    0.5060
    STRESS:  cpu time    1.6063: real time    1.6101
    FORCOR:  cpu time    1.5829: real time    1.5866
    FORHAR:  cpu time    0.5048: real time    0.5060
    MIXING:  cpu time    0.0559: real time    0.0560
    OFIELD:  cpu time    0.0000: real time    0.0000

  FORCE on cell =-STRESS in cart. coord.  units (eV):
  Direction    XX          YY          ZZ          XY          YZ          ZX
  --------------------------------------------------------------------------------------
  Alpha Z     0.25115     0.25115     0.25115
  Ewald      44.52328    42.31004    43.77201    -1.57608    -0.39369    -0.37916
  Hartree    96.39402    94.03241    95.62385    -0.55126    -0.33558    -0.21146
  E(xc)     -27.39319   -27.37393   -27.38781    -0.00420    -0.00366    -0.00217
  Local    -199.29793  -195.15049  -197.92586     2.23782     0.86578     0.69285
  n-local   -15.94598   -15.46102   -16.34339    -0.13441     0.23786    -0.19178
  augment     0.10804     0.11527     0.10785    -0.00034    -0.00114    -0.00142
  Kinetic   102.37492   101.97436   102.18508    -1.03721    -0.11075    -0.31266
  Fock        0.00000     0.00000     0.00000     0.00000     0.00000     0.00000
  -------------------------------------------------------------------------------------
  Total       1.01430     0.69780     0.28288    -1.06568     0.25882    -0.40581
  in kB       1.68478     1.15907     0.46987    -1.77012     0.42991    -0.67405
  external pressure =        1.10 kB  Pullay stress =        0.00 kB

  kinetic pressure (ideal gas correction) =      0.03 kB
  total pressure  =      1.13 kB
  Total+kin.     1.719       1.193       0.488      -1.791       0.414      -0.666

 VOLUME and BASIS-vectors are now :
 -----------------------------------------------------------------------------
  energy-cutoff  :      400.00
  volume of cell :      964.57
      direct lattice vectors                 reciprocal lattice vectors
     9.758885516  0.000000000  0.000000000     0.102470717  0.000150381  0.000031155
    -0.014735216 10.040692627  0.000000000    -0.000000000  0.099594723  0.000514791
    -0.002918251 -0.050882207  9.843987551     0.000000000 -0.000000000  0.101584850

  length of vectors
     9.758885516 10.040703439  9.844119484     0.102470832  0.099596053  0.101584850


 FORCES acting on ions
    electron-ion (+dipol)            ewald-force                    non-local-force                 convergence-correction
 -----------------------------------------------------------------------------------------------
   -.171E+02 0.298E+02 0.419E+02   0.194E+02 -.335E+02 -.469E+02   -.192E+01 0.275E+01 0.492E+01   0.704E-04 -.145E-03 -.129E-03
   0.538E+02 -.649E+01 0.341E+01   -.606E+02 0.755E+01 -.374E+01   0.583E+01 -.748E+00 0.502E+00   -.176E-03 -.780E-05 0.379E-05
   -.227E+02 -.474E+02 0.122E+01   0.249E+02 0.520E+02 -.138E+01   -.182E+01 -.427E+01 0.308E+00   0.726E-04 0.145E-03 -.111E-04
   -.120E+02 0.253E+02 -.459E+02   0.135E+02 -.283E+02 0.512E+02   -.186E+01 0.246E+01 -.448E+01   0.365E-04 -.137E-03 0.154E-03
   -.254E+01 -.230E+01 -.707E+00   0.287E+01 0.229E+01 0.851E+00   -.554E+00 0.783E+00 -.194E-01   0.106E-03 -.764E-03 0.121E-03
 -----------------------------------------------------------------------------------------------
   -.621E+00 -.978E+00 -.121E+00   0.178E-14 -.107E-13 0.000E+00   -.322E+00 0.974E+00 0.122E+01   0.109E-03 -.908E-03 0.138E-03


 POSITION                                       TOTAL-FORCE (eV/Angst)
 -----------------------------------------------------------------------------------
      5.24642      4.07259      3.55743         0.374427     -0.918634     -0.095960
      3.84642      4.79673      4.31930        -0.943357      0.320402      0.164518
      5.38008      5.66441      4.35725         0.287775      0.350245      0.150154
      5.14592      4.15252      5.30622        -0.444472     -0.529376      0.759850
      4.90531      4.66456      4.38484        -0.217065      0.771667      0.125168
 -----------------------------------------------------------------------------------
    total drift:                               -0.942691     -0.005695      1.103730


--------------------------------------------------------------------------------------------------------



  FREE ENERGIE OF THE ION-ELECTRON SYSTEM (eV)
  ---------------------------------------------------
  free  energy   TOTEN  =       -23.99951119 eV

  energy  without entropy=      -24.03694626  energy(sigma->0) =      -24.01198954



--------------------------------------------------------------------------------------------------------


    POTLOK:  cpu time    1.5139: real time    1.5175


--------------------------------------------------------------------------------------------------------


           RANDOM_SEED =         578496063                0                0
           RANDOM_SEED =         578496063               30                0
   IONSTEP:  cpu time    0.0016: real time    0.0018

  ENERGY OF THE ELECTRON-ION-THERMOSTAT SYSTEM (eV)
  ---------------------------------------------------
% ion-electron   TOTEN  =       -23.999511  see above
  kinetic energy EKIN   =         0.059756
  kin. lattice  EKIN_LAT=         0.000000  (temperature  115.57 K)
  nose potential ES     =         0.000000
  nose kinetic   EPS    =         0.000138
  ---------------------------------------------------
  total energy   ETOTAL =       -23.939617 eV

  maximum distance moved by ions :      0.65E-02


 mean value of Nose-termostat <S>:     1.016 mean value of <T> :   115.573
 mean temperature <T/S>/<1/S>  :   115.573

    WAVPRE:  cpu time    0.4151: real time    0.4202
    FEWALD:  cpu time    0.0004: real time    0.0004
    ORTHCH:  cpu time    0.1840: real time    0.1845
     LOOP+:  cpu time   85.7164: real time   85.9256


--------------------------------------- Iteration      2(   1)  ---------------------------------------


    POTLOK:  cpu time    1.5092: real time    1.5129
    SETDIJ:  cpu time    0.0064: real time    0.0064
     EDDAV:  cpu time    1.6528: real time    1.6567
       DOS:  cpu time    0.0002: real time    0.0002
    CHARGE:  cpu time    0.1525: real time    0.1529
    MIXING:  cpu time    0.0398: real time    0.0399
    --------------------------------------------
      LOOP:  cpu time    3.3610: real time    3.3691

 eigenvalue-minimisations  :    64
 total energy-change (2. order) : 0.5560575E-02  (-0.4358361E+00)
 number of electron       7.9999998 magnetization 
 augmentation part        0.1760714 magnetization 

 Broyden mixing:
  rms(total) = 0.11210E+00    rms(broyden)= 0.11200E+00
  rms(prec ) = 0.14549E+00
  weight for this iteration     100.00

 Free energy of the ion-electron system (eV)
  ---------------------------------------------------
  alpha Z        PSCENC =         0.25114831
[...]
  rms(prec ) = 0.27430E-02
  weight for this iteration     100.00

 eigenvalues of (default mixing * dielectric matrix)
  average eigenvalue GAMMA=   2.2152
  7.3203  4.6211  4.5442  3.2289  3.2289  3.4006  3.4006  1.0250  1.0250  0.4511
  0.4511  3.0582  3.0582  1.7731  1.7731  0.7686  0.7686  0.9562  0.9562  0.8513
  1.4030  1.4030  1.0624  1.0624  0.9869  1.0856  1.0856  2.9490  2.9490  1.9043
  1.9043  2.2497  2.2497  2.5864  2.5864  2.2692  2.2692  2.7756  2.6979  2.6979
  2.5712  2.5712  2.4358  2.4358  2.2209  2.4561  2.4895  2.3111

 Free energy of the ion-electron system (eV)
  ---------------------------------------------------
  alpha Z        PSCENC =         0.25114831
  Ewald energy   TEWEN  =       127.94150518
  -Hartree energ DENC   =      -283.53312434
  -exchange      EXHF   =         0.00000000
  -V(xc)+E(xc)   XCENC  =        24.77203386
  PAW double counting   =       467.63831808     -468.43069169
  entropy T*S    EENTRO =         0.01336760
  eigenvalues    EBANDS =       -89.59277794
  atomic energy  EATOM  =       197.04175453
  Solvation  Ediel_sol  =         0.00000000
  ---------------------------------------------------
  free energy    TOTEN  =       -23.89846642 eV

  energy without entropy =      -23.91183401  energy(sigma->0) =      -23.90292228


--------------------------------------------------------------------------------------------------------




--------------------------------------- Iteration     10(  13)  ---------------------------------------


    POTLOK:  cpu time    1.4584: real time    1.4619
    SETDIJ:  cpu time    0.0062: real time    0.0062
    EDDIAG:  cpu time    0.3132: real time    0.3139
  RMM-DIIS:  cpu time    1.1006: real time    1.1032
    ORTHCH:  cpu time    0.0105: real time    0.0105
       DOS:  cpu time    0.0002: real time    0.0002
    CHARGE:  cpu time    0.1318: real time    0.1321
    MIXING:  cpu time    0.1461: real time    0.1464
    --------------------------------------------
      LOOP:  cpu time    3.1671: real time    3.1745

 eigenvalue-minimisations  :    64
 total energy-change (2. order) : 0.5674902E-05  (-0.2916110E-05)
 number of electron       8.0000001 magnetization 
 augmentation part        0.1870318 magnetization 

 Broyden mixing:
  rms(total) = 0.95680E-03    rms(broyden)= 0.95643E-03
  rms(prec ) = 0.12888E-02
  weight for this iteration     100.00

 eigenvalues of (default mixing * dielectric matrix)
  average eigenvalue GAMMA=   2.2217
  6.8460  4.1307  4.1307  4.5748  4.5748  0.8935  0.8935  3.4388  3.4388  0.5568
  0.5568  1.7027  1.7027  0.7530  0.7530  0.9384  0.9384  0.8556  0.9725  0.9725
  0.9626  1.0521  1.2591  1.2591  1.5075  1.5075  2.8110  2.8110  3.0457  2.8820
  2.8820  1.8767  2.2262  2.2262  2.4046  2.4046  2.0716  2.0716  2.8952  2.7594
  2.7594  2.5369  2.5369  2.4064  2.4064  2.3345  2.3345  2.5318  2.4771

 Free energy of the ion-electron system (eV)
  ---------------------------------------------------
  alpha Z        PSCENC =         0.25114831
  Ewald energy   TEWEN  =       127.94150518
  -Hartree energ DENC   =      -283.53379516
  -exchange      EXHF   =         0.00000000
  -V(xc)+E(xc)   XCENC  =        24.77206664
  PAW double counting   =       467.60816375     -468.40056203
  entropy T*S    EENTRO =         0.01342185
  eigenvalues    EBANDS =       -89.59216382
  atomic energy  EATOM  =       197.04175453
  Solvation  Ediel_sol  =         0.00000000
  ---------------------------------------------------
  free energy    TOTEN  =       -23.89846074 eV

  energy without entropy =      -23.91188259  energy(sigma->0) =      -23.90293469


--------------------------------------------------------------------------------------------------------




--------------------------------------- Iteration     10(  14)  ---------------------------------------


    POTLOK:  cpu time    1.4905: real time    1.4941
    SETDIJ:  cpu time    0.0062: real time    0.0062
    EDDIAG:  cpu time    0.3394: real time    0.3402
  RMM-DIIS:  cpu time    1.1226: real time    1.1252
    ORTHCH:  cpu time    0.0107: real time    0.0107
       DOS:  cpu time    0.0002: real time    0.0002
    CHARGE:  cpu time    0.1338: real time    0.1341
    MIXING:  cpu time    0.1239: real time    0.1242
    --------------------------------------------
      LOOP:  cpu time    3.2274: real time    3.2350

 eigenvalue-minimisations  :    64
 total energy-change (2. order) :-0.8445238E-06  (-0.1253326E-05)
 number of electron       8.0000001 magnetization 
 augmentation part        0.1870289 magnetization 

 Broyden mixing:
  rms(total) = 0.26170E-03    rms(broyden)= 0.26106E-03
  rms(prec ) = 0.34673E-03
  weight for this iteration     100.00

 eigenvalues of (default mixing * dielectric matrix)
  average eigenvalue GAMMA=   2.3086
  5.7296  5.7296  4.4689  4.4689  4.2784  0.3262  3.4312  3.4312  0.6998  0.6998
  1.0288  1.0288  0.8694  0.8694  0.8674  1.2066  1.2066  1.0923  1.0923  1.8437
  1.8437  1.4219  1.4219  3.0667  1.8754  2.0811  2.0811  2.6238  2.6238  2.5174
  2.5174  2.7747  2.7747  2.8179  2.4814  2.4814  2.7184  2.6178  2.5603  2.4238
  2.4238  2.4596  2.3139  2.3139  2.2830

 Free energy of the ion-electron system (eV)
  ---------------------------------------------------
  alpha Z        PSCENC =         0.25114831
  Ewald energy   TEWEN  =       127.94150518
  -Hartree energ DENC   =      -283.53397184
  -exchange      EXHF   =         0.00000000
  -V(xc)+E(xc)   XCENC  =        24.77207694
  PAW double counting   =       467.61278220     -468.40519094
  entropy T*S    EENTRO =         0.01344831
  eigenvalues    EBANDS =       -89.59201427
  atomic energy  EATOM  =       197.04175453
  Solvation  Ediel_sol  =         0.00000000
  ---------------------------------------------------
  free energy    TOTEN  =       -23.89846159 eV

  energy without entropy =      -23.91190989  energy(sigma->0) =      -23.90294436


--------------------------------------------------------------------------------------------------------




--------------------------------------- Iteration     10(  15)  ---------------------------------------


    POTLOK:  cpu time    1.4834: real time    1.4869
    SETDIJ:  cpu time    0.0064: real time    0.0064
    EDDIAG:  cpu time    0.3241: real time    0.3248
  RMM-DIIS:  cpu time    0.8760: real time    0.8781
    ORTHCH:  cpu time    0.0105: real time    0.0105
       DOS:  cpu time    0.0002: real time    0.0002
    CHARGE:  cpu time    0.1376: real time    0.1380
    MIXING:  cpu time    0.1279: real time    0.1282
    --------------------------------------------
      LOOP:  cpu time    2.9660: real time    2.9731

 eigenvalue-minimisations  :    48
 total energy-change (2. order) :-0.1731142E-05  (-0.1633028E-06)
 number of electron       8.0000001 magnetization 
 augmentation part        0.1870285 magnetization 

 Broyden mixing:
  rms(total) = 0.42589E-04    rms(broyden)= 0.42005E-04
  rms(prec ) = 0.61052E-04
  weight for this iteration     100.00

 eigenvalues of (default mixing * dielectric matrix)
  average eigenvalue GAMMA=   2.2982
  6.4119  6.4119  4.2944  0.3281  3.8736  3.6767  3.6767  0.6980  0.6980  0.9287
  0.9287  1.1774  1.1774  0.8738  0.9037  0.9037  1.0040  1.0040  1.0522  3.3475
  3.3475  1.4318  1.4318  2.1441  2.1441  1.8853  1.9723  1.9723  2.6548  2.6548
  2.6474  2.6474  2.4650  2.4650  2.7425  2.7425  2.8141  2.2772  2.2772  2.6722
  2.6319  2.3795  2.4846  2.4846  2.4878  2.4878

 Free energy of the ion-electron system (eV)
  ---------------------------------------------------
  alpha Z        PSCENC =         0.25114831
  Ewald energy   TEWEN  =       127.94150518
  -Hartree energ DENC   =      -283.53305652
  -exchange      EXHF   =         0.00000000
  -V(xc)+E(xc)   XCENC  =        24.77204888
  PAW double counting   =       467.61032466     -468.40272737
  entropy T*S    EENTRO =         0.01346032
  eigenvalues    EBANDS =       -89.59292131
  atomic energy  EATOM  =       197.04175453
  Solvation  Ediel_sol  =         0.00000000
  ---------------------------------------------------
  free energy    TOTEN  =       -23.89846332 eV

  energy without entropy =      -23.91192364  energy(sigma->0) =      -23.90295009


--------------------------------------------------------------------------------------------------------




--------------------------------------- Iteration     10(  16)  ---------------------------------------


    POTLOK:  cpu time    1.5002: real time    1.5038
    SETDIJ:  cpu time    0.0064: real time    0.0064
    EDDIAG:  cpu time    0.3652: real time    0.3661
  RMM-DIIS:  cpu time    0.8654: real time    0.8674
    ORTHCH:  cpu time    0.0113: real time    0.0113
       DOS:  cpu time    0.0003: real time    0.0003
    --------------------------------------------
      LOOP:  cpu time    2.7488: real time    2.7554

 eigenvalue-minimisations  :    48
 total energy-change (2. order) :-0.8978519E-06  (-0.5210152E-07)
 number of electron       8.0000001 magnetization 
 augmentation part        0.1870285 magnetization 

 Free energy of the ion-electron system (eV)
  ---------------------------------------------------
  alpha Z        PSCENC =         0.25114831
  Ewald energy   TEWEN  =       127.94150518
  -Hartree energ DENC   =      -283.53204784
  -exchange      EXHF   =         0.00000000
  -V(xc)+E(xc)   XCENC  =        24.77200006
  PAW double counting   =       467.60715304     -468.39954857
  entropy T*S    EENTRO =         0.01346137
  eigenvalues    EBANDS =       -89.59389029
  atomic energy  EATOM  =       197.04175453
  Solvation  Ediel_sol  =         0.00000000
  ---------------------------------------------------
  free energy    TOTEN  =       -23.89846422 eV

  energy without entropy =      -23.91192558  energy(sigma->0) =      -23.90295134


--------------------------------------------------------------------------------------------------------




 average (electrostatic) potential at core
  the test charge radii are     0.5201  0.6991
  (the norm of the test charge is              1.0000)
       1 -41.3785       2 -42.1669       3 -41.3447       4 -41.2735       5 -57.9566



 E-fermi :  -8.8036     XC(G=0):  -0.7182     alpha+bet : -0.2184


 k-point     1 :       0.2500    0.2500    0.2500
  band No.  band energies     occupation 
      1     -16.9300      2.00000
      2      -9.6344      2.00000
      3      -9.2622      2.00554
      4      -8.9695      1.99437
      5      -0.3129      0.00000
      6       0.5862      0.00000
      7       0.6771      0.00000
      8       0.7201      0.00000

 k-point     2 :      -0.2500    0.2500    0.2500
  band No.  band energies     occupation 
      1     -16.9300      2.00000
      2      -9.6345      2.00000
      3      -9.2622      2.00555
      4      -8.9695      1.99446
      5      -0.3136      0.00000
      6       0.5834      0.00000
      7       0.6801      0.00000
      8       0.7172      0.00000

 k-point     3 :       0.2500   -0.2500    0.2500
  band No.  band energies     occupation 
      1     -16.9300      2.00000
      2      -9.6344      2.00000
      3      -9.2622      2.00555
      4      -8.9695      1.99447
      5      -0.3140      0.00000
      6       0.5751      0.00000
      7       0.6868      0.00000
      8       0.7279      0.00000

 k-point     4 :      -0.2500   -0.2500    0.2500
  band No.  band energies     occupation 
      1     -16.9300      2.00000
      2      -9.6344      2.00000
      3      -9.2622      2.00555
      4      -8.9695      1.99453
      5      -0.3137      0.00000
      6       0.5912      0.00000
      7       0.6835      0.00000
      8       0.7106      0.00000


--------------------------------------------------------------------------------------------------------


 soft charge-density along one line, spin component           1
         0         1         2         3         4         5         6         7         8         9
 total charge-density along one line

 pseudopotential strength for first ion, spin component:           1
 -2.340  -4.031  -0.001  -0.001   0.001
 -4.031  -6.860  -0.003  -0.004   0.002
 -0.001  -0.003  -0.338   0.002  -0.001
 -0.001  -0.004   0.002  -0.337  -0.001
  0.001   0.002  -0.001  -0.001  -0.339
 total augmentation occupancy for first ion, spin component:           1
  3.285  -0.549   0.267   0.318  -0.152
 -0.549   0.105  -0.045  -0.055   0.026
  0.267  -0.045   0.028   0.022  -0.011
  0.318  -0.055   0.022   0.035  -0.013
 -0.152   0.026  -0.011  -0.013   0.016


------------------------ aborting loop because EDIFF is reached ----------------------------------------


    CHARGE:  cpu time    0.1358: real time    0.1361
    FORLOC:  cpu time    0.1014: real time    0.1017
    FORNL :  cpu time    0.4625: real time    0.4636
    STRESS:  cpu time    1.5472: real time    1.5509
    FORCOR:  cpu time    1.4796: real time    1.4831
    FORHAR:  cpu time    0.4841: real time    0.4852
    MIXING:  cpu time    0.1364: real time    0.1367
    OFIELD:  cpu time    0.0000: real time    0.0000

  FORCE on cell =-STRESS in cart. coord.  units (eV):
  Direction    XX          YY          ZZ          XY          YZ          ZX
  --------------------------------------------------------------------------------------
  Alpha Z     0.25115     0.25115     0.25115
  Ewald      44.85060    42.82186    40.26899    -4.71245     0.34250     4.38980
  Hartree    94.52451    93.90135    95.10692    -0.96255    -0.07094     1.05494
  E(xc)     -27.27192   -27.21859   -27.24304    -0.01851    -0.00034     0.02087
  Local    -196.63378  -195.61350  -195.23825     4.53693    -0.15650    -4.53237
  n-local   -15.33032   -15.93058   -16.15433    -0.13362     0.13219    -0.01328
  augment     0.09732     0.12361     0.13203     0.01075    -0.00120    -0.00774
  Kinetic   102.78955   100.19058   101.15261     0.95586     0.16035    -0.95660
  Fock        0.00000     0.00000     0.00000     0.00000     0.00000     0.00000
  -------------------------------------------------------------------------------------
  Total       3.27712    -1.47413    -1.72391    -0.32358     0.40606    -0.04438
  in kB       5.44337    -2.44856    -2.86345    -0.53748     0.67447    -0.07372
  external pressure =        0.04 kB  Pullay stress =        0.00 kB

  kinetic pressure (ideal gas correction) =      0.16 kB
  total pressure  =      0.20 kB
  Total+kin.     5.702      -2.403      -2.684      -0.542       0.627       0.027

 VOLUME and BASIS-vectors are now :
 -----------------------------------------------------------------------------
  energy-cutoff  :      400.00
  volume of cell :      964.57
      direct lattice vectors                 reciprocal lattice vectors
     9.758885516  0.000000000  0.000000000     0.102470717  0.000150381  0.000031155
    -0.014735216 10.040692627  0.000000000    -0.000000000  0.099594723  0.000514791
    -0.002918251 -0.050882207  9.843987551     0.000000000 -0.000000000  0.101584850

  length of vectors
     9.758885516 10.040703439  9.844119484     0.102470832  0.099596053  0.101584850


 FORCES acting on ions
    electron-ion (+dipol)            ewald-force                    non-local-force                 convergence-correction
 -----------------------------------------------------------------------------------------------
   -.174E+02 0.305E+02 0.388E+02   0.192E+02 -.332E+02 -.425E+02   -.178E+01 0.292E+01 0.483E+01   -.637E-04 -.466E-04 -.688E-04
   0.547E+02 -.930E+01 0.737E+01   -.642E+02 0.106E+02 -.844E+01   0.614E+01 -.120E+01 0.760E+00   -.100E-03 0.606E-04 -.108E-03
   -.225E+02 -.471E+02 0.834E+00   0.249E+02 0.513E+02 -.922E+00   -.172E+01 -.409E+01 0.393E+00   -.274E-04 0.102E-03 0.209E-04
   -.114E+02 0.234E+02 -.441E+02   0.122E+02 -.251E+02 0.475E+02   -.219E+01 0.256E+01 -.530E+01   0.469E-04 -.105E-04 0.678E-04
   -.614E+01 0.309E+01 -.377E+01   0.797E+01 -.359E+01 0.435E+01   0.926E+00 0.488E+00 0.162E-01   -.218E-03 0.354E-03 -.145E-03
 -----------------------------------------------------------------------------------------------
   -.279E+01 0.581E+00 -.827E+00   -.355E-14 0.355E-14 0.000E+00   0.137E+01 0.682E+00 0.699E+00   -.362E-03 0.459E-03 -.233E-03


 POSITION                                       TOTAL-FORCE (eV/Angst)
 -----------------------------------------------------------------------------------
      5.26768      4.02131      3.56022        -0.049010      0.194250      1.141268
      3.89825      4.83767      4.24773        -3.283024      0.134269     -0.311511
      5.37782      5.66980      4.36575         0.634182      0.092450      0.304794
      5.15331      4.14835      5.36137        -1.475176      0.851732     -1.856473
      4.89880      4.66532      4.38527         2.751344     -0.009626      0.594553
 -----------------------------------------------------------------------------------
    total drift:                               -1.421684      1.263075     -0.127368


--------------------------------------------------------------------------------------------------------



  FREE ENERGIE OF THE ION-ELECTRON SYSTEM (eV)
  ---------------------------------------------------
  free  energy   TOTEN  =       -23.89846422 eV

  energy  without entropy=      -23.91192558  energy(sigma->0) =      -23.90295134

 d Force =-0.7486008E-01[-0.380E+00, 0.231E+00]  d Energy =-0.1467954E+00 0.719E-01
 d Force =-0.3120840E+00[-0.661E+00, 0.372E-01]  d Ewald  =-0.3086425E+00-0.344E-02


--------------------------------------------------------------------------------------------------------


    POTLOK:  cpu time    1.5155: real time    1.5191


--------------------------------------------------------------------------------------------------------


           RANDOM_SEED =         578496063               30                0
   IONSTEP:  cpu time    0.0001: real time    0.0001

  ENERGY OF THE ELECTRON-ION-THERMOSTAT SYSTEM (eV)
  ---------------------------------------------------
% ion-electron   TOTEN  =       -23.898464  see above
  kinetic energy EKIN   =         0.041633
  kin. lattice  EKIN_LAT=         0.000000  (temperature   80.52 K)
  nose potential ES     =         0.045773
  nose kinetic   EPS    =         0.066875
  ---------------------------------------------------
  total energy   ETOTAL =       -23.744183 eV

  maximum distance moved by ions :      0.68E-02


 mean value of Nose-termostat <S>:     2.904 mean value of <T> :    80.522
 mean temperature <T/S>/<1/S>  :    80.522

    WAVPRE:  cpu time    0.4153: real time    0.4247
    FEWALD:  cpu time    0.0004: real time    0.0004
    ORTHCH:  cpu time    0.1616: real time    0.1620
 Prediction of Wavefunctions ALPHA= 0.009 BETA=-1.159
    POTLOK:  cpu time    1.3768: real time    1.3801
    EDDIAG:  cpu time    0.3459: real time    0.3468
     LOOP+:  cpu time   61.4013: real time   61.6491
    4ORBIT:  cpu time    0.0000: real time    0.0000

 total amount of memory used by VASP MPI-rank0   277830. kBytes
=======================================================================

   base      :      30000. kBytes
   nonlr-proj:        146. kBytes
   fftplans  :      79272. kBytes
   grid      :     141424. kBytes
   one-center:         15. kBytes
   wavefun   :      26973. kBytes

  
  
 General timing and accounting informations for this job:
 ========================================================
  
                  Total CPU time used (sec):      781.684
                            User time (sec):      765.869
                          System time (sec):       15.816
                         Elapsed time (sec):      785.751
  
                   Maximum memory used (kb):      431868.
                   Average memory used (kb):           0.
  
                          Minor page faults:      2748990
                          Major page faults:            0
                 Voluntary context switches:          398
