<?xml version="1.0" encoding="ISO-8859-1"?>
<modeling>
 <generator>
  <i name="program" type="string">vasp </i>
  <i name="version" type="string">5.4.4.18Apr17-6-g9f103f2a35  </i>
  <i name="subversion" type="string">(build Jul 12 2018 13:43:46) complex            parallel </i>
  <i name="platform" type="string">LinuxGNU </i>
  <i name="date" type="string">2019 06 22 </i>
  <i name="time" type="string">02:17:35 </i>
 </generator>
 <incar>
  <i type="int" name="ISTART">     0</i>
  <i type="string" name="PREC">a</i>
  <i type="string" name="ALGO">fast</i>
  <i type="int" name="MAXMIX">    50</i>
  <i type="int" name="ICHARG">     2</i>
  <i type="int" name="IBRION">     0</i>
  <i name="EDIFF">      0.00000100</i>
  <i type="int" name="NSW">    10</i>
  <i type="int" name="ISIF">     2</i>
  <i type="int" name="ISYM">     0</i>
  <i type="int" name="NBLOCK">     1</i>
  <i type="int" name="KBLOCK">   100</i>
  <i name="ENCUT">    400.00000000</i>
  <i name="POTIM">      2.00000000</i>
  <i name="TEBEG">     50.00000000</i>
  <i name="TEEND">     50.00000000</i>
  <i name="SMASS">      0.00000000</i>
  <i type="logical" name="LREAL"> T  </i>
  <i type="int" name="ISMEAR">     1</i>
  <i name="SIGMA">      0.20000000</i>
  <i name="KSPACING">      0.50000000</i>
  <i type="logical" name="KGAMMA"> F  </i>
  <i name="PSTRESS">      0.00000000</i>
  <i type="logical" name="LWAVE"> F  </i>
  <i type="logical" name="LCHARG"> F  </i>
  <v type="int" name="KPOINT_BSE">    -1     0     0     0</v>
 </incar>
 <structure name="primitive_cell" >
  <crystal>
   <varray name="basis" >
    <v>       9.75888552       0.00000000       0.00000000 </v>
    <v>      -0.01473522      10.04069263       0.00000000 </v>
    <v>      -0.00291825      -0.05088221       9.84398755 </v>
   </varray>
   <i name="volume">    964.57266742 </i>
   <varray name="rec_basis" >
    <v>       0.10247072       0.00015038       0.00003115 </v>
    <v>      -0.00000000       0.09959472       0.00051479 </v>
    <v>       0.00000000      -0.00000000       0.10158485 </v>
   </varray>
  </crystal>
  <varray name="positions" >
   <v>      -0.46167267       0.40743975       0.36138069 </v>
   <v>      -0.49651127       0.46682263       0.44543318 </v>
   <v>       0.39500114       0.47995255       0.43877495 </v>
   <v>      -0.47190406       0.41630080      -0.46096824 </v>
   <v>      -0.44771134      -0.43361183       0.44263088 </v>
  </varray>
 </structure>
 <varray name="primitive_index" >
  <v type="int" >        1 </v>
  <v type="int" >        5 </v>
  <v type="int" >        2 </v>
  <v type="int" >        4 </v>
  <v type="int" >        3 </v>
 </varray>
 <kpoints>
  <generation param="Monkhorst-Pack">
   <v type="int" name="divisions">       2        2        2 </v>
   <v name="usershift">      0.00000000       0.00000000       0.00000000 </v>
   <v name="genvec1">      0.50000000       0.00000000       0.00000000 </v>
   <v name="genvec2">      0.00000000       0.50000000       0.00000000 </v>
   <v name="genvec3">      0.00000000       0.00000000       0.50000000 </v>
   <v name="shift">      0.50000000       0.50000000       0.50000000 </v>
  </generation>
  <varray name="kpointlist" >
   <v>       0.25000000       0.25000000       0.25000000 </v>
   <v>      -0.25000000       0.25000000       0.25000000 </v>
   <v>       0.25000000      -0.25000000       0.25000000 </v>
   <v>      -0.25000000      -0.25000000       0.25000000 </v>
  </varray>
  <varray name="weights" >
   <v>       0.25000000 </v>
   <v>       0.25000000 </v>
   <v>       0.25000000 </v>
   <v>       0.25000000 </v>
  </varray>
 </kpoints>
 <parameters>
  <separator name="general" >
   <i type="string" name="SYSTEM">unknown system</i>
   <i type="logical" name="LCOMPAT"> F  </i>
  </separator>
  <separator name="electronic" >
   <i type="string" name="PREC">a</i>
   <i name="ENMAX">    400.00000000</i>
   <i name="ENAUG">    644.87300000</i>
   <i name="EDIFF">      0.00000100</i>
   <i type="int" name="IALGO">    68</i>
   <i type="int" name="IWAVPR">    12</i>
   <i type="int" name="NBANDS">     8</i>
   <i name="NELECT">      8.00000000</i>
   <i type="int" name="TURBO">     0</i>
   <i type="int" name="IRESTART">     0</i>
   <i type="int" name="NREBOOT">     0</i>
   <i type="int" name="NMIN">     0</i>
   <i name="EREF">      0.00000000</i>
   <separator name="electronic smearing" >
    <i type="int" name="ISMEAR">     1</i>
    <i name="SIGMA">      0.20000000</i>
    <i name="KSPACING">      0.50000000</i>
    <i type="logical" name="KGAMMA"> F  </i>
   </separator>
   <separator name="electronic projectors" >
    <i type="logical" name="LREAL"> T  </i>
    <v name="ROPT">      0.00000000      0.00000000</v>
    <i type="int" name="LMAXPAW">  -100</i>
    <i type="int" name="LMAXMIX">     2</i>
    <i type="logical" name="NLSPLINE"> F  </i>
   </separator>
   <separator name="electronic startup" >
    <i type="int" name="ISTART">     0</i>
    <i type="int" name="ICHARG">     2</i>
    <i type="int" name="INIWAV">     1</i>
   </separator>
   <separator name="electronic spin" >
    <i type="int" name="ISPIN">     1</i>
    <i type="logical" name="LNONCOLLINEAR"> F  </i>
    <v name="MAGMOM">      1.00000000      1.00000000      1.00000000      1.00000000      1.00000000</v>
    <i name="NUPDOWN">     -1.00000000</i>
    <i type="logical" name="LSORBIT"> F  </i>
    <v name="SAXIS">      0.00000000      0.00000000      1.00000000</v>
    <i type="logical" name="LSPIRAL"> F  </i>
    <v name="QSPIRAL">      0.00000000      0.00000000      0.00000000</v>
    <i type="logical" name="LZEROZ"> F  </i>
   </separator>
   <separator name="electronic exchange-correlation" >
    <i type="logical" name="LASPH"> F  </i>
    <i type="logical" name="LMETAGGA"> F  </i>
   </separator>
   <separator name="electronic convergence" >
    <i type="int" name="NELM">    60</i>
    <i type="int" name="NELMDL">    -5</i>
    <i type="int" name="NELMIN">     2</i>
    <i name="ENINI">    400.00000000</i>
    <separator name="electronic convergence detail" >
     <i type="logical" name="LDIAG"> T  </i>
     <i type="logical" name="LSUBROT"> F  </i>
     <i name="WEIMIN">      0.00100000</i>
     <i name="EBREAK">      0.00000003</i>
     <i name="DEPER">      0.30000000</i>
     <i type="int" name="NRMM">     4</i>
     <i name="TIME">      0.40000000</i>
    </separator>
   </separator>
   <separator name="electronic mixer" >
    <i name="AMIX">      0.40000000</i>
    <i name="BMIX">      1.00000000</i>
    <i name="AMIN">      0.10000000</i>
    <i name="AMIX_MAG">      1.60000000</i>
    <i name="BMIX_MAG">      1.00000000</i>
    <separator name="electronic mixer details" >
     <i type="int" name="IMIX">     4</i>
     <i type="logical" name="MIXFIRST"> F  </i>
     <i type="int" name="MAXMIX">    50</i>
     <i name="WC">    100.00000000</i>
     <i type="int" name="INIMIX">     1</i>
     <i type="int" name="MIXPRE">     1</i>
     <i type="int" name="MREMOVE">     5</i>
    </separator>
   </separator>
   <separator name="electronic dipolcorrection" >
    <i type="logical" name="LDIPOL"> F  </i>
    <i type="logical" name="LMONO"> F  </i>
    <i type="int" name="IDIPOL">     0</i>
    <i name="EPSILON">      1.00000000</i>
    <v name="DIPOL">   -100.00000000   -100.00000000   -100.00000000</v>
    <i name="EFIELD">      0.00000000</i>
   </separator>
  </separator>
  <separator name="grids" >
   <i type="int" name="NGX">    64</i>
   <i type="int" name="NGY">    70</i>
   <i type="int" name="NGZ">    64</i>
   <i type="int" name="NGXF">   128</i>
   <i type="int" name="NGYF">   140</i>
   <i type="int" name="NGZF">   128</i>
   <i type="logical" name="ADDGRID"> F  </i>
  </separator>
  <separator name="ionic" >
   <i type="int" name="NSW">    10</i>
   <i type="int" name="IBRION">     0</i>
   <i type="int" name="MDALGO">     0</i>
   <i type="int" name="ISIF">     2</i>
   <i name="PSTRESS">      0.00000000</i>
   <i name="EDIFFG">      0.00001000</i>
   <i type="int" name="NFREE">     0</i>
   <i name="POTIM">      2.00000000</i>
   <i name="SMASS">      0.00169839</i>
   <i name="SCALEE">      1.00000000</i>
  </separator>
  <separator name="ionic md" >
   <i name="TEBEG">     50.00000000</i>
   <i name="TEEND">     50.00000000</i>
   <i type="int" name="NBLOCK">     1</i>
   <i type="int" name="KBLOCK">     1</i>
   <i type="int" name="NPACO">   256</i>
   <i name="APACO">     16.00000000</i>
  </separator>
  <separator name="symmetry" >
   <i type="int" name="ISYM">     0</i>
   <i name="SYMPREC">      0.00001000</i>
  </separator>
  <separator name="dos" >
   <i type="int" name="LORBIT">     0</i>
   <v name="RWIGS">     -1.00000000     -1.00000000</v>
   <i type="int" name="NEDOS">   301</i>
   <i name="EMIN">     10.00000000</i>
   <i name="EMAX">    -10.00000000</i>
   <i name="EFERMI">      0.00000000</i>
  </separator>
  <separator name="writing" >
   <i type="int" name="NWRITE">     2</i>
   <i type="logical" name="LWAVE"> F  </i>
   <i type="logical" name="LDOWNSAMPLE"> F  </i>
   <i type="logical" name="LCHARG"> F  </i>
   <i type="logical" name="LPARD"> F  </i>
   <i type="logical" name="LVTOT"> F  </i>
   <i type="logical" name="LVHAR"> F  </i>
   <i type="logical" name="LELF"> F  </i>
   <i type="logical" name="LOPTICS"> F  </i>
   <v name="STM">      0.00000000      0.00000000      0.00000000      0.00000000      0.00000000      0.00000000      0.00000000</v>
  </separator>
  <separator name="performance" >
   <i type="int" name="NPAR">     1</i>
   <i type="int" name="NSIM">     4</i>
   <i type="int" name="NBLK">    -1</i>
   <i type="logical" name="LPLANE"> T  </i>
   <i type="logical" name="LSCALAPACK"> T  </i>
   <i type="logical" name="LSCAAWARE"> F  </i>
   <i type="logical" name="LSCALU"> F  </i>
   <i type="logical" name="LASYNC"> F  </i>
   <i type="logical" name="LORBITALREAL"> F  </i>
  </separator>
  <separator name="miscellaneous" >
   <i type="int" name="IDIOT">     3</i>
   <i type="int" name="ISPECIAL">     0</i>
   <i type="logical" name="LMUSIC"> F  </i>
   <v name="POMASS">      1.00000000     12.01100000</v>
   <v name="DARWINR">      0.00000000      0.00000000</v>
   <v name="DARWINV">      1.00000000      1.00000000</v>
   <i type="logical" name="LCORR"> T  </i>
  </separator>
  <i type="logical" name="GGA_COMPAT"> T  </i>
  <i type="logical" name="LBERRY"> F  </i>
  <i type="int" name="ICORELEVEL">     0</i>
  <i type="logical" name="LDAU"> F  </i>
  <i type="int" name="I_CONSTRAINED_M">     0</i>
  <separator name="electronic exchange-correlation" >
   <i type="string" name="GGA">--</i>
   <i type="int" name="VOSKOWN">     0</i>
   <i type="logical" name="LHFCALC"> F  </i>
   <i type="string" name="PRECFOCK"></i>
   <i type="logical" name="LSYMGRAD"> F  </i>
   <i type="logical" name="LHFONE"> F  </i>
   <i type="logical" name="LRHFCALC"> F  </i>
   <i type="logical" name="LTHOMAS"> F  </i>
   <i type="logical" name="LMODELHF"> F  </i>
   <i name="ENCUT4O">     -1.00000000</i>
   <i type="int" name="EXXOEP">     0</i>
   <i type="int" name="FOURORBIT">     0</i>
   <i name="AEXX">      0.00000000</i>
   <i name="HFALPHA">      0.00000000</i>
   <i name="MCALPHA">      0.00000000</i>
   <i name="ALDAX">      1.00000000</i>
   <i name="AGGAX">      1.00000000</i>
   <i name="ALDAC">      1.00000000</i>
   <i name="AGGAC">      1.00000000</i>
   <i type="int" name="NKREDX">     1</i>
   <i type="int" name="NKREDY">     1</i>
   <i type="int" name="NKREDZ">     1</i>
   <i type="logical" name="SHIFTRED"> F  </i>
   <i type="logical" name="ODDONLY"> F  </i>
   <i type="logical" name="EVENONLY"> F  </i>
   <i type="int" name="LMAXFOCK">     0</i>
   <i type="int" name="NMAXFOCKAE">     0</i>
   <i type="logical" name="LFOCKAEDFT"> F  </i>
   <i name="HFSCREEN">      0.00000000</i>
   <i name="HFSCREENC">      0.00000000</i>
   <i type="int" name="NBANDSGWLOW">     0</i>
  </separator>
  <separator name="vdW DFT" >
   <i type="logical" name="LUSE_VDW"> F  </i>
   <i name="Zab_VDW">     -0.84910000</i>
   <i name="PARAM1">      0.12340000</i>
   <i name="PARAM2">      1.00000000</i>
   <i name="PARAM3">      0.00000000</i>
  </separator>
  <separator name="model GW" >
   <i type="int" name="MODEL_GW">     0</i>
   <i name="MODEL_EPS0">    115.74872009</i>
   <i name="MODEL_ALPHA">      1.00000000</i>
  </separator>
  <separator name="linear response parameters" >
   <i type="logical" name="LEPSILON"> F  </i>
   <i type="logical" name="LRPA"> F  </i>
   <i type="logical" name="LNABLA"> F  </i>
   <i type="logical" name="LVEL"> F  </i>
   <i type="int" name="KINTER">     0</i>
   <i name="CSHIFT">      0.10000000</i>
   <i name="OMEGAMAX">     -1.00000000</i>
   <i name="DEG_THRESHOLD">      0.00200000</i>
   <i name="RTIME">     -0.10000000</i>
   <i name="WPLASMAI">      0.00000000</i>
   <v name="DFIELD">      0.00000000      0.00000000      0.00000000</v>
   <v name="WPLASMA">      0.00000000      0.00000000      0.00000000      0.00000000      0.00000000      0.00000000      0.00000000      0.00000000      0.00000000</v>
  </separator>
  <separator name="orbital magnetization" >
   <i type="logical" name="NUCIND"> F  </i>
   <v name="MAGPOS">      0.00000000      0.00000000      0.00000000</v>
   <i type="logical" name="LNICSALL"> T  </i>
   <i type="logical" name="ORBITALMAG"> F  </i>
   <i type="logical" name="LMAGBLOCH"> F  </i>
   <i type="logical" name="LCHIMAG"> F  </i>
   <i type="logical" name="LGAUGE"> T  </i>
   <i type="int" name="MAGATOM">     0</i>
   <v name="MAGDIPOL">      0.00000000      0.00000000      0.00000000</v>
   <v name="AVECCONST">      0.00000000      0.00000000      0.00000000</v>
  </separator>
  <separator name="response functions" >
   <i type="logical" name="LADDER"> F  </i>
   <i type="logical" name="LRPAFORCE"> F  </i>
   <i type="logical" name="LFXC"> F  </i>
   <i type="logical" name="LHARTREE"> T  </i>
   <i type="int" name="IBSE">     0</i>
   <v type="int" name="KPOINT">    -1     0     0     0</v>
   <i type="logical" name="LTCTE"> F  </i>
   <i type="logical" name="LTETE"> F  </i>
   <i type="logical" name="LTRIPLET"> F  </i>
   <i type="logical" name="LFXCEPS"> F  </i>
   <i type="logical" name="LFXHEG"> F  </i>
   <i type="int" name="NATURALO">     2</i>
   <i type="logical" name="L2ORDER"> F  </i>
   <i type="logical" name="LMP2LT"> F  </i>
   <i type="logical" name="LUSEW"> F  </i>
   <i name="ENCUTGW">     -2.00000000</i>
   <i name="ENCUTGWSOFT">     -2.00000000</i>
   <i name="ENCUTLF">     -1.00000000</i>
   <i type="int" name="LMAXMP2">    -1</i>
   <i name="SCISSOR">      0.00000000</i>
   <i type="int" name="NOMEGA">     0</i>
   <i type="int" name="NOMEGAR">     0</i>
   <i type="int" name="NBANDSGW">    -1</i>
   <i type="int" name="NBANDSO">    -1</i>
   <i type="int" name="NBANDSV">    -1</i>
   <i type="int" name="NELM">     1</i>
   <i type="int" name="NELMHF">     1</i>
   <i type="int" name="DIM">     3</i>
   <i type="int" name="ANTIRES">     0</i>
   <i name="OMEGAMAX">    -30.00000000</i>
   <i name="OMEGAMIN">    -30.00000000</i>
   <i name="OMEGATL">   -200.00000000</i>
   <i type="int" name="OMEGAGRID">   140</i>
   <i name="CSHIFT">     -0.10000000</i>
   <i type="logical" name="SELFENERGY"> F  </i>
   <i type="logical" name="LSPECTRAL"> F  </i>
   <i type="logical" name="LSPECTRALGW"> F  </i>
   <i type="logical" name="LSINGLES"> F  </i>
   <i type="logical" name="LFERMIGW"> F  </i>
   <i type="logical" name="ODDONLYGW"> F  </i>
   <i type="logical" name="EVENONLYGW"> F  </i>
   <i type="int" name="NKREDLFX">     1</i>
   <i type="int" name="NKREDLFY">     1</i>
   <i type="int" name="NKREDLFZ">     1</i>
   <i type="int" name="MAXMEM">  2800</i>
   <i type="int" name="TELESCOPE">     0</i>
   <i type="int" name="TAUPAR">     1</i>
   <i type="int" name="OMEGAPAR">    -1</i>
   <i name="LAMBDA">      1.00000000</i>
  </separator>
  <separator name="External order field" >
   <i name="OFIELD_KAPPA">      0.00000000</i>
   <v name="OFIELD_K">      0.00000000      0.00000000      0.00000000</v>
   <i name="OFIELD_Q6_NEAR">      0.00000000</i>
   <i name="OFIELD_Q6_FAR">      0.00000000</i>
   <i name="OFIELD_A">      0.00000000</i>
  </separator>
 </parameters>
 <atominfo>
  <atoms>       5 </atoms>
  <types>       2 </types>
  <array name="atoms" >
   <dimension dim="1">ion</dimension>
   <field type="string">element</field>
   <field type="int">atomtype</field>
   <set>
    <rc><c>H </c><c>   1</c></rc>
    <rc><c>H </c><c>   1</c></rc>
    <rc><c>H </c><c>   1</c></rc>
    <rc><c>H </c><c>   1</c></rc>
    <rc><c>C </c><c>   2</c></rc>
   </set>
  </array>
  <array name="atomtypes" >
   <dimension dim="1">type</dimension>
   <field type="int">atomspertype</field>
   <field type="string">element</field>
   <field>mass</field>
   <field>valence</field>
   <field type="string">pseudopotential</field>
   <set>
    <rc><c>   4</c><c>H </c><c>      1.00000000</c><c>      1.00000000</c><c>  PAW_PBE H 15Jun2001                   </c></rc>
    <rc><c>   1</c><c>C </c><c>     12.01100000</c><c>      4.00000000</c><c>  PAW_PBE C 08Apr2002                   </c></rc>
   </set>
  </array>
 </atominfo>
 <structure name="initialpos" >
  <crystal>
   <varray name="basis" >
    <v>       9.75888552       0.00000000       0.00000000 </v>
    <v>      -0.01473522      10.04069263       0.00000000 </v>
    <v>      -0.00291825      -0.05088221       9.84398755 </v>
   </varray>
   <i name="volume">    964.57266742 </i>
   <varray name="rec_basis" >
    <v>       0.10247072       0.00015038       0.00003115 </v>
    <v>      -0.00000000       0.09959472       0.00051479 </v>
    <v>       0.00000000      -0.00000000       0.10158485 </v>
   </varray>
  </crystal>
  <varray name="positions" >
   <v>       0.53832733       0.40743975       0.36138069 </v>
   <v>       0.39500114       0.47995255       0.43877495 </v>
   <v>       0.55228866       0.56638817       0.44263088 </v>
   <v>       0.52809594       0.41630080       0.53903176 </v>
   <v>       0.50348873       0.46682263       0.44543318 </v>
  </varray>
  <varray name="velocities" >
   <v>       0.00013784      -0.00057177      -0.00069214 </v>
   <v>      -0.00182508       0.00228943      -0.00172098 </v>
   <v>      -0.00176537       0.00067525       0.00076626 </v>
   <v>      -0.00067237      -0.00125706       0.00041241 </v>
   <v>       0.00034343      -0.00009457       0.00010278 </v>
  </varray>
 </structure>
 <calculation>
  <scstep>
   <time name="dav">    2.55    2.56</time>
   <time name="total">    4.15    4.16</time>
   <energy>
    <i name="alphaZ">      0.25114831 </i>
    <i name="ewald">    130.60538819 </i>
    <i name="hartreedc">   -244.24892194 </i>
    <i name="XCdc">     22.09022404 </i>
    <i name="pawpsdc">    117.05815612 </i>
    <i name="pawaedc">   -117.66307307 </i>
    <i name="eentropy">      0.00289895 </i>
    <i name="bandstr">    -95.74988672 </i>
    <i name="atom">    197.04175453 </i>
    <i name="e_fr_energy">      9.38768841 </i>
    <i name="e_wo_entrp">      9.38478946 </i>
    <i name="e_0_energy">      9.38672210 </i>
   </energy>
  </scstep>
  <scstep>
   <time name="dav">    1.72    1.73</time>
   <time name="total">    1.72    1.73</time>
   <energy>
    <i name="e_fr_energy">    -24.07350057 </i>
    <i name="e_wo_entrp">    -24.07640351 </i>
    <i name="e_0_energy">    -24.07446821 </i>
   </energy>
  </scstep>
  <scstep>
   <time name="dav">    1.71    1.71</time>
   <time name="total">    1.71    1.71</time>
   <energy>
    <i name="e_fr_energy">    -27.63081156 </i>
    <i name="e_wo_entrp">    -27.65549213 </i>
    <i name="e_0_energy">    -27.63903842 </i>
   </energy>
  </scstep>
  <scstep>
   <time name="dav">    3.09    3.10</time>
   <time name="total">    3.09    3.10</time>
   <energy>
    <i name="e_fr_energy">    -27.76072950 </i>
    <i name="e_wo_entrp">    -27.78472652 </i>
    <i name="e_0_energy">    -27.76872851 </i>
   </energy>
  </scstep>
  <scstep>
   <time name="dav">    2.36    2.36</time>
   <time name="total">    2.56    2.57</time>
   <energy>
    <i name="e_fr_energy">    -27.76076601 </i>
    <i name="e_wo_entrp">    -27.78476282 </i>
    <i name="e_0_energy">    -27.76876495 </i>
   </energy>
  </scstep>
  <scstep>
   <time name="diag">    0.37    0.37</time>
   <time name="diis">    1.26    1.26</time>
   <time name="orth">    0.01    0.01</time>
   <time name="total">    3.42    3.43</time>
   <energy>
    <i name="e_fr_energy">    -24.67485715 </i>
    <i name="e_wo_entrp">    -24.71079223 </i>
    <i name="e_0_energy">    -24.68683551 </i>
   </energy>
  </scstep>
  <scstep>
   <time name="diag">    0.35    0.35</time>
   <time name="diis">    1.30    1.30</time>
   <time name="orth">    0.01    0.01</time>
   <time name="total">    3.42    3.43</time>
   <energy>
    <i name="e_fr_energy">    -24.15122663 </i>
    <i name="e_wo_entrp">    -24.18972308 </i>
    <i name="e_0_energy">    -24.16405878 </i>
   </energy>
  </scstep>
  <scstep>
   <time name="diag">    0.35    0.35</time>
   <time name="diis">    1.26    1.26</time>
   <time name="orth">    0.01    0.01</time>
   <time name="total">    3.42    3.42</time>
   <energy>
    <i name="e_fr_energy">    -24.03538973 </i>
    <i name="e_wo_entrp">    -24.05871476 </i>
    <i name="e_0_energy">    -24.04316474 </i>
   </energy>
  </scstep>
  <scstep>
   <time name="diag">    0.36    0.37</time>
   <time name="diis">    1.25    1.25</time>
   <time name="orth">    0.01    0.01</time>
   <time name="total">    3.40    3.40</time>
   <energy>
    <i name="e_fr_energy">    -24.00869254 </i>
    <i name="e_wo_entrp">    -24.03754038 </i>
    <i name="e_0_energy">    -24.01830849 </i>
   </energy>
  </scstep>
  <scstep>
   <time name="diag">    0.37    0.37</time>
   <time name="diis">    1.30    1.30</time>
   <time name="orth">    0.01    0.01</time>
   <time name="total">    3.44    3.45</time>
   <energy>
    <i name="e_fr_energy">    -23.99266563 </i>
    <i name="e_wo_entrp">    -24.03119781 </i>
    <i name="e_0_energy">    -24.00550969 </i>
   </energy>
  </scstep>
  <scstep>
   <time name="diag">    0.37    0.37</time>
   <time name="diis">    1.29    1.30</time>
   <time name="orth">    0.01    0.01</time>
   <time name="total">    3.45    3.45</time>
   <energy>
    <i name="e_fr_energy">    -23.99193021 </i>
    <i name="e_wo_entrp">    -24.02908054 </i>
    <i name="e_0_energy">    -24.00431366 </i>
   </energy>
  </scstep>
  <scstep>
   <time name="diag">    0.34    0.34</time>
   <time name="diis">    1.28    1.29</time>
   <time name="orth">    0.01    0.01</time>
   <time name="total">    3.36    3.37</time>
   <energy>
    <i name="e_fr_energy">    -23.98944453 </i>
    <i name="e_wo_entrp">    -24.02673577 </i>
    <i name="e_0_energy">    -24.00187494 </i>
   </energy>
  </scstep>
  <scstep>
   <time name="diag">    0.36    0.36</time>
   <time name="diis">    1.21    1.21</time>
   <time name="orth">    0.01    0.01</time>
   <time name="total">    3.30    3.31</time>
   <energy>
    <i name="e_fr_energy">    -23.98914912 </i>
    <i name="e_wo_entrp">    -24.02631384 </i>
    <i name="e_0_energy">    -24.00153736 </i>
   </energy>
  </scstep>
  <scstep>
   <time name="diag">    0.39    0.39</time>
   <time name="diis">    1.23    1.23</time>
   <time name="orth">    0.01    0.01</time>
   <time name="total">    3.33    3.33</time>
   <energy>
    <i name="e_fr_energy">    -23.99260811 </i>
    <i name="e_wo_entrp">    -24.03110605 </i>
    <i name="e_0_energy">    -24.00544076 </i>
   </energy>
  </scstep>
  <scstep>
   <time name="diag">    0.38    0.38</time>
   <time name="diis">    1.33    1.34</time>
   <time name="orth">    0.01    0.01</time>
   <time name="total">    3.33    3.34</time>
   <energy>
    <i name="e_fr_energy">    -23.99716636 </i>
    <i name="e_wo_entrp">    -24.03593307 </i>
    <i name="e_0_energy">    -24.01008859 </i>
   </energy>
  </scstep>
  <scstep>
   <time name="diag">    0.38    0.38</time>
   <time name="diis">    1.35    1.35</time>
   <time name="orth">    0.01    0.01</time>
   <time name="total">    3.35    3.36</time>
   <energy>
    <i name="e_fr_energy">    -23.99764693 </i>
    <i name="e_wo_entrp">    -24.03499489 </i>
    <i name="e_0_energy">    -24.01009625 </i>
   </energy>
  </scstep>
  <scstep>
   <time name="diag">    0.36    0.37</time>
   <time name="diis">    1.33    1.33</time>
   <time name="orth">    0.01    0.01</time>
   <time name="total">    3.30    3.31</time>
   <energy>
    <i name="e_fr_energy">    -23.99822972 </i>
    <i name="e_wo_entrp">    -24.03565995 </i>
    <i name="e_0_energy">    -24.01070647 </i>
   </energy>
  </scstep>
  <scstep>
   <time name="diag">    0.35    0.36</time>
   <time name="diis">    1.29    1.30</time>
   <time name="orth">    0.01    0.01</time>
   <time name="total">    3.26    3.26</time>
   <energy>
    <i name="e_fr_energy">    -23.99916977 </i>
    <i name="e_wo_entrp">    -24.03648465 </i>
    <i name="e_0_energy">    -24.01160806 </i>
   </energy>
  </scstep>
  <scstep>
   <time name="diag">    0.38    0.38</time>
   <time name="diis">    1.27    1.27</time>
   <time name="orth">    0.01    0.01</time>
   <time name="total">    3.28    3.29</time>
   <energy>
    <i name="e_fr_energy">    -23.99938539 </i>
    <i name="e_wo_entrp">    -24.03679047 </i>
    <i name="e_0_energy">    -24.01185375 </i>
   </energy>
  </scstep>
  <scstep>
   <time name="diag">    0.38    0.38</time>
   <time name="diis">    1.30    1.30</time>
   <time name="orth">    0.01    0.01</time>
   <time name="total">    3.31    3.32</time>
   <energy>
    <i name="e_fr_energy">    -23.99945478 </i>
    <i name="e_wo_entrp">    -24.03695723 </i>
    <i name="e_0_energy">    -24.01195560 </i>
   </energy>
  </scstep>
  <scstep>
   <time name="diag">    0.36    0.36</time>
   <time name="diis">    1.32    1.32</time>
   <time name="orth">    0.01    0.01</time>
   <time name="total">    3.36    3.37</time>
   <energy>
    <i name="e_fr_energy">    -23.99950220 </i>
    <i name="e_wo_entrp">    -24.03691416 </i>
    <i name="e_0_energy">    -24.01197286 </i>
   </energy>
  </scstep>
  <scstep>
   <time name="diag">    0.37    0.37</time>
   <time name="diis">    0.99    0.99</time>
   <time name="orth">    0.01    0.01</time>
   <time name="total">    3.05    3.06</time>
   <energy>
    <i name="e_fr_energy">    -23.99950436 </i>
    <i name="e_wo_entrp">    -24.03695150 </i>
    <i name="e_0_energy">    -24.01198674 </i>
   </energy>
  </scstep>
  <scstep>
   <time name="diag">    0.37    0.38</time>
   <time name="diis">    0.96    0.97</time>
   <time name="orth">    0.01    0.01</time>
   <time name="total">    3.04    3.04</time>
   <energy>
    <i name="e_fr_energy">    -23.99950827 </i>
    <i name="e_wo_entrp">    -24.03694854 </i>
    <i name="e_0_energy">    -24.01198836 </i>
   </energy>
  </scstep>
  <scstep>
   <time name="diag">    0.39    0.39</time>
   <time name="diis">    0.99    0.99</time>
   <time name="orth">    0.01    0.01</time>
   <time name="total">    3.14    3.15</time>
   <energy>
    <i name="e_fr_energy">    -23.99951078 </i>
    <i name="e_wo_entrp">    -24.03694757 </i>
    <i name="e_0_energy">    -24.01198971 </i>
   </energy>
  </scstep>
  <scstep>
   <time name="diag">    0.37    0.37</time>
   <time name="diis">    0.99    1.00</time>
   <time name="orth">    0.01    0.01</time>
   <time name="total">    2.90    2.91</time>
   <energy>
    <i name="alphaZ">      0.25114831 </i>
    <i name="ewald">    130.60538819 </i>
    <i name="hartreedc">   -286.04862373 </i>
    <i name="XCdc">     24.90266002 </i>
    <i name="pawpsdc">    486.13152866 </i>
    <i name="pawaedc">   -486.93257272 </i>
    <i name="eentropy">      0.03743507 </i>
    <i name="bandstr">    -89.98822952 </i>
    <i name="atom">    197.04175453 </i>
    <i name="e_fr_energy">    -23.99951119 </i>
    <i name="e_wo_entrp">    -24.03694626 </i>
    <i name="e_0_energy">    -24.01198954 </i>
   </energy>
  </scstep>
  <structure>
   <crystal>
    <varray name="basis" >
     <v>       9.75888552       0.00000000       0.00000000 </v>
     <v>      -0.01473522      10.04069263       0.00000000 </v>
     <v>      -0.00291825      -0.05088221       9.84398755 </v>
    </varray>
    <i name="volume">    964.57266742 </i>
    <varray name="rec_basis" >
     <v>       0.10247072       0.00015038       0.00003115 </v>
     <v>      -0.00000000       0.09959472       0.00051479 </v>
     <v>       0.00000000      -0.00000000       0.10158485 </v>
    </varray>
   </crystal>
   <varray name="positions" >
    <v>       0.53832733       0.40743975       0.36138069 </v>
    <v>       0.39500114       0.47995255       0.43877495 </v>
    <v>       0.55228866       0.56638817       0.44263088 </v>
    <v>       0.52809594       0.41630080       0.53903176 </v>
    <v>       0.50348873       0.46682263       0.44543318 </v>
   </varray>
  </structure>
  <varray name="forces" >
   <v>       0.37442714      -0.91863377      -0.09595955 </v>
   <v>      -0.94335741       0.32040227       0.16451778 </v>
   <v>       0.28777546       0.35024533       0.15015442 </v>
   <v>      -0.44447206      -0.52937578       0.75984983 </v>
   <v>      -0.21706454       0.77166671       0.12516770 </v>
  </varray>
  <varray name="stress" >
   <v>       1.68478285      -1.77012075      -0.67405165 </v>
   <v>      -1.77012074       1.15906983       0.42990579 </v>
   <v>      -0.67405166       0.42990579       0.46986898 </v>
  </varray>
  <energy>
   <i name="e_fr_energy">    -23.99951119 </i>
   <i name="e_wo_entrp">    -24.01198954 </i>
   <i name="e_0_energy">      0.03743507 </i>
   <i name="kinetic">      0.05975617 </i>
   <i name="lattice kinetic">      0.00000000 </i>
   <i name="nosepot">      0.00000000 </i>
   <i name="nosekinetic">      0.00013826 </i>
   <i name="total">    -23.93961676 </i>
  </energy>
  <dos>
   <i name="efermi">     -9.14957786 </i>
   <total>
    <array>
     <dimension dim="1">gridpoints</dimension>
     <dimension dim="2">spin</dimension>
     <field>energy</field>
     <field>total</field>
     <field>integrated</field>
     <set>
      <set comment="spin 1">
       <r>   -18.9872     0.0000     0.0000 </r>
       <r>   -18.9148     0.0000     0.0000 </r>
       <r>   -18.8424     0.0000     0.0000 </r>
       <r>   -18.7701     0.0000     0.0000 </r>
       <r>   -18.6977     0.0000     0.0000 </r>
       <r>   -18.6253    -0.0000    -0.0000 </r>
       <r>   -18.5530    -0.0000    -0.0000 </r>
       <r>   -18.4806    -0.0000    -0.0000 </r>
       <r>   -18.4083    -0.0000    -0.0000 </r>
       <r>   -18.3359    -0.0000    -0.0000 </r>
       <r>   -18.2635    -0.0000    -0.0000 </r>
       <r>   -18.1912    -0.0000    -0.0000 </r>
       <r>   -18.1188    -0.0000    -0.0000 </r>
       <r>   -18.0464    -0.0000    -0.0000 </r>
       <r>   -17.9741    -0.0000    -0.0000 </r>
       <r>   -17.9017    -0.0000    -0.0000 </r>
       <r>   -17.8293    -0.0000    -0.0000 </r>
       <r>   -17.7570    -0.0000    -0.0000 </r>
       <r>   -17.6846    -0.0001    -0.0000 </r>
       <r>   -17.6123    -0.0011    -0.0001 </r>
       <r>   -17.5399    -0.0078    -0.0007 </r>
       <r>   -17.4675    -0.0399    -0.0035 </r>
       <r>   -17.3952    -0.1446    -0.0140 </r>
       <r>   -17.3228    -0.3453    -0.0390 </r>
       <r>   -17.2504    -0.4095    -0.0686 </r>
       <r>   -17.1781     0.4019    -0.0395 </r>
       <r>   -17.1057     2.8454     0.1664 </r>
       <r>   -17.0334     6.2712     0.6202 </r>
       <r>   -16.9610     8.2772     1.2191 </r>
       <r>   -16.8886     7.0864     1.7319 </r>
       <r>   -16.8163     3.7786     2.0053 </r>
       <r>   -16.7439     0.9059     2.0709 </r>
       <r>   -16.6715    -0.3140     2.0482 </r>
       <r>   -16.5992    -0.3986     2.0193 </r>
       <r>   -16.5268    -0.1930     2.0054 </r>
       <r>   -16.4545    -0.0592     2.0011 </r>
       <r>   -16.3821    -0.0127     2.0002 </r>
       <r>   -16.3097    -0.0020     2.0000 </r>
       <r>   -16.2374    -0.0002     2.0000 </r>
       <r>   -16.1650    -0.0000     2.0000 </r>
       <r>   -16.0926    -0.0000     2.0000 </r>
       <r>   -16.0203    -0.0000     2.0000 </r>
       <r>   -15.9479    -0.0000     2.0000 </r>
       <r>   -15.8755    -0.0000     2.0000 </r>
       <r>   -15.8032    -0.0000     2.0000 </r>
       <r>   -15.7308    -0.0000     2.0000 </r>
       <r>   -15.6585     0.0000     2.0000 </r>
       <r>   -15.5861     0.0000     2.0000 </r>
       <r>   -15.5137     0.0000     2.0000 </r>
       <r>   -15.4414     0.0000     2.0000 </r>
       <r>   -15.3690     0.0000     2.0000 </r>
       <r>   -15.2966     0.0000     2.0000 </r>
       <r>   -15.2243     0.0000     2.0000 </r>
       <r>   -15.1519     0.0000     2.0000 </r>
       <r>   -15.0796     0.0000     2.0000 </r>
       <r>   -15.0072     0.0000     2.0000 </r>
       <r>   -14.9348     0.0000     2.0000 </r>
       <r>   -14.8625     0.0000     2.0000 </r>
       <r>   -14.7901     0.0000     2.0000 </r>
       <r>   -14.7177     0.0000     2.0000 </r>
       <r>   -14.6454     0.0000     2.0000 </r>
       <r>   -14.5730     0.0000     2.0000 </r>
       <r>   -14.5007     0.0000     2.0000 </r>
       <r>   -14.4283     0.0000     2.0000 </r>
       <r>   -14.3559     0.0000     2.0000 </r>
       <r>   -14.2836     0.0000     2.0000 </r>
       <r>   -14.2112     0.0000     2.0000 </r>
       <r>   -14.1388     0.0000     2.0000 </r>
       <r>   -14.0665     0.0000     2.0000 </r>
       <r>   -13.9941     0.0000     2.0000 </r>
       <r>   -13.9217     0.0000     2.0000 </r>
       <r>   -13.8494     0.0000     2.0000 </r>
       <r>   -13.7770     0.0000     2.0000 </r>
       <r>   -13.7047     0.0000     2.0000 </r>
       <r>   -13.6323     0.0000     2.0000 </r>
       <r>   -13.5599     0.0000     2.0000 </r>
       <r>   -13.4876     0.0000     2.0000 </r>
       <r>   -13.4152     0.0000     2.0000 </r>
       <r>   -13.3428     0.0000     2.0000 </r>
       <r>   -13.2705     0.0000     2.0000 </r>
       <r>   -13.1981     0.0000     2.0000 </r>
       <r>   -13.1258     0.0000     2.0000 </r>
       <r>   -13.0534     0.0000     2.0000 </r>
       <r>   -12.9810     0.0000     2.0000 </r>
       <r>   -12.9087     0.0000     2.0000 </r>
       <r>   -12.8363     0.0000     2.0000 </r>
       <r>   -12.7639     0.0000     2.0000 </r>
       <r>   -12.6916     0.0000     2.0000 </r>
       <r>   -12.6192     0.0000     2.0000 </r>
       <r>   -12.5469     0.0000     2.0000 </r>
       <r>   -12.4745     0.0000     2.0000 </r>
       <r>   -12.4021     0.0000     2.0000 </r>
       <r>   -12.3298     0.0000     2.0000 </r>
       <r>   -12.2574     0.0000     2.0000 </r>
       <r>   -12.1850     0.0000     2.0000 </r>
       <r>   -12.1127     0.0000     2.0000 </r>
       <r>   -12.0403     0.0000     2.0000 </r>
       <r>   -11.9679     0.0000     2.0000 </r>
       <r>   -11.8956     0.0000     2.0000 </r>
       <r>   -11.8232     0.0000     2.0000 </r>
       <r>   -11.7509     0.0000     2.0000 </r>
       <r>   -11.6785     0.0000     2.0000 </r>
       <r>   -11.6061     0.0000     2.0000 </r>
       <r>   -11.5338     0.0000     2.0000 </r>
       <r>   -11.4614     0.0000     2.0000 </r>
       <r>   -11.3890     0.0000     2.0000 </r>
       <r>   -11.3167     0.0000     2.0000 </r>
       <r>   -11.2443     0.0000     2.0000 </r>
       <r>   -11.1720     0.0000     2.0000 </r>
       <r>   -11.0996     0.0000     2.0000 </r>
       <r>   -11.0272    -0.0000     2.0000 </r>
       <r>   -10.9549    -0.0000     2.0000 </r>
       <r>   -10.8825    -0.0000     2.0000 </r>
       <r>   -10.8101    -0.0000     2.0000 </r>
       <r>   -10.7378    -0.0000     2.0000 </r>
       <r>   -10.6654    -0.0000     2.0000 </r>
       <r>   -10.5931    -0.0000     2.0000 </r>
       <r>   -10.5207    -0.0000     2.0000 </r>
       <r>   -10.4483    -0.0000     2.0000 </r>
       <r>   -10.3760    -0.0000     2.0000 </r>
       <r>   -10.3036    -0.0000     2.0000 </r>
       <r>   -10.2312    -0.0000     2.0000 </r>
       <r>   -10.1589    -0.0000     2.0000 </r>
       <r>   -10.0865    -0.0002     2.0000 </r>
       <r>   -10.0141    -0.0014     1.9999 </r>
       <r>    -9.9418    -0.0104     1.9991 </r>
       <r>    -9.8694    -0.0556     1.9951 </r>
       <r>    -9.7971    -0.2185     1.9793 </r>
       <r>    -9.7247    -0.6024     1.9357 </r>
       <r>    -9.6523    -1.0187     1.8620 </r>
       <r>    -9.5800    -0.3534     1.8364 </r>
       <r>    -9.5076     3.4292     2.0846 </r>
       <r>    -9.4352    11.1923     2.8945 </r>
       <r>    -9.3629    19.7712     4.3252 </r>
       <r>    -9.2905    23.1410     5.9997 </r>
       <r>    -9.2182    18.4554     7.3352 </r>
       <r>    -9.1458     9.4679     8.0203 </r>
       <r>    -9.0734     2.2311     8.1818 </r>
       <r>    -9.0011    -0.7881     8.1248 </r>
       <r>    -8.9287    -1.0141     8.0514 </r>
       <r>    -8.8563    -0.5057     8.0148 </r>
       <r>    -8.7840    -0.1612     8.0031 </r>
       <r>    -8.7116    -0.0363     8.0005 </r>
       <r>    -8.6393    -0.0060     8.0001 </r>
       <r>    -8.5669    -0.0007     8.0000 </r>
       <r>    -8.4945    -0.0001     8.0000 </r>
       <r>    -8.4222    -0.0000     8.0000 </r>
       <r>    -8.3498    -0.0000     8.0000 </r>
       <r>    -8.2774    -0.0000     8.0000 </r>
       <r>    -8.2051    -0.0000     8.0000 </r>
       <r>    -8.1327    -0.0000     8.0000 </r>
       <r>    -8.0604    -0.0000     8.0000 </r>
       <r>    -7.9880     0.0000     8.0000 </r>
       <r>    -7.9156     0.0000     8.0000 </r>
       <r>    -7.8433     0.0000     8.0000 </r>
       <r>    -7.7709     0.0000     8.0000 </r>
       <r>    -7.6985     0.0000     8.0000 </r>
       <r>    -7.6262     0.0000     8.0000 </r>
       <r>    -7.5538     0.0000     8.0000 </r>
       <r>    -7.4814     0.0000     8.0000 </r>
       <r>    -7.4091     0.0000     8.0000 </r>
       <r>    -7.3367     0.0000     8.0000 </r>
       <r>    -7.2644     0.0000     8.0000 </r>
       <r>    -7.1920     0.0000     8.0000 </r>
       <r>    -7.1196     0.0000     8.0000 </r>
       <r>    -7.0473     0.0000     8.0000 </r>
       <r>    -6.9749     0.0000     8.0000 </r>
       <r>    -6.9025     0.0000     8.0000 </r>
       <r>    -6.8302     0.0000     8.0000 </r>
       <r>    -6.7578     0.0000     8.0000 </r>
       <r>    -6.6855     0.0000     8.0000 </r>
       <r>    -6.6131     0.0000     8.0000 </r>
       <r>    -6.5407     0.0000     8.0000 </r>
       <r>    -6.4684     0.0000     8.0000 </r>
       <r>    -6.3960     0.0000     8.0000 </r>
       <r>    -6.3236     0.0000     8.0000 </r>
       <r>    -6.2513     0.0000     8.0000 </r>
       <r>    -6.1789     0.0000     8.0000 </r>
       <r>    -6.1066     0.0000     8.0000 </r>
       <r>    -6.0342     0.0000     8.0000 </r>
       <r>    -5.9618     0.0000     8.0000 </r>
       <r>    -5.8895     0.0000     8.0000 </r>
       <r>    -5.8171     0.0000     8.0000 </r>
       <r>    -5.7447     0.0000     8.0000 </r>
       <r>    -5.6724     0.0000     8.0000 </r>
       <r>    -5.6000     0.0000     8.0000 </r>
       <r>    -5.5276     0.0000     8.0000 </r>
       <r>    -5.4553     0.0000     8.0000 </r>
       <r>    -5.3829     0.0000     8.0000 </r>
       <r>    -5.3106     0.0000     8.0000 </r>
       <r>    -5.2382     0.0000     8.0000 </r>
       <r>    -5.1658     0.0000     8.0000 </r>
       <r>    -5.0935     0.0000     8.0000 </r>
       <r>    -5.0211     0.0000     8.0000 </r>
       <r>    -4.9487     0.0000     8.0000 </r>
       <r>    -4.8764     0.0000     8.0000 </r>
       <r>    -4.8040     0.0000     8.0000 </r>
       <r>    -4.7317     0.0000     8.0000 </r>
       <r>    -4.6593     0.0000     8.0000 </r>
       <r>    -4.5869     0.0000     8.0000 </r>
       <r>    -4.5146     0.0000     8.0000 </r>
       <r>    -4.4422     0.0000     8.0000 </r>
       <r>    -4.3698     0.0000     8.0000 </r>
       <r>    -4.2975     0.0000     8.0000 </r>
       <r>    -4.2251     0.0000     8.0000 </r>
       <r>    -4.1528     0.0000     8.0000 </r>
       <r>    -4.0804     0.0000     8.0000 </r>
       <r>    -4.0080     0.0000     8.0000 </r>
       <r>    -3.9357     0.0000     8.0000 </r>
       <r>    -3.8633     0.0000     8.0000 </r>
       <r>    -3.7909     0.0000     8.0000 </r>
       <r>    -3.7186     0.0000     8.0000 </r>
       <r>    -3.6462     0.0000     8.0000 </r>
       <r>    -3.5738     0.0000     8.0000 </r>
       <r>    -3.5015     0.0000     8.0000 </r>
       <r>    -3.4291     0.0000     8.0000 </r>
       <r>    -3.3568     0.0000     8.0000 </r>
       <r>    -3.2844     0.0000     8.0000 </r>
       <r>    -3.2120     0.0000     8.0000 </r>
       <r>    -3.1397     0.0000     8.0000 </r>
       <r>    -3.0673     0.0000     8.0000 </r>
       <r>    -2.9949     0.0000     8.0000 </r>
       <r>    -2.9226     0.0000     8.0000 </r>
       <r>    -2.8502     0.0000     8.0000 </r>
       <r>    -2.7779     0.0000     8.0000 </r>
       <r>    -2.7055     0.0000     8.0000 </r>
       <r>    -2.6331     0.0000     8.0000 </r>
       <r>    -2.5608     0.0000     8.0000 </r>
       <r>    -2.4884     0.0000     8.0000 </r>
       <r>    -2.4160     0.0000     8.0000 </r>
       <r>    -2.3437     0.0000     8.0000 </r>
       <r>    -2.2713     0.0000     8.0000 </r>
       <r>    -2.1990     0.0000     8.0000 </r>
       <r>    -2.1266     0.0000     8.0000 </r>
       <r>    -2.0542     0.0000     8.0000 </r>
       <r>    -1.9819     0.0000     8.0000 </r>
       <r>    -1.9095    -0.0000     8.0000 </r>
       <r>    -1.8371    -0.0000     8.0000 </r>
       <r>    -1.7648    -0.0000     8.0000 </r>
       <r>    -1.6924    -0.0000     8.0000 </r>
       <r>    -1.6200    -0.0000     8.0000 </r>
       <r>    -1.5477    -0.0000     8.0000 </r>
       <r>    -1.4753    -0.0000     8.0000 </r>
       <r>    -1.4030    -0.0000     8.0000 </r>
       <r>    -1.3306    -0.0000     8.0000 </r>
       <r>    -1.2582    -0.0000     8.0000 </r>
       <r>    -1.1859    -0.0000     8.0000 </r>
       <r>    -1.1135    -0.0000     8.0000 </r>
       <r>    -1.0411    -0.0000     8.0000 </r>
       <r>    -0.9688    -0.0002     8.0000 </r>
       <r>    -0.8964    -0.0021     7.9998 </r>
       <r>    -0.8241    -0.0133     7.9989 </r>
       <r>    -0.7517    -0.0612     7.9944 </r>
       <r>    -0.6793    -0.1976     7.9801 </r>
       <r>    -0.6070    -0.4026     7.9510 </r>
       <r>    -0.5346    -0.3017     7.9292 </r>
       <r>    -0.4622     0.9567     7.9984 </r>
       <r>    -0.3899     3.8630     8.2780 </r>
       <r>    -0.3175     7.1501     8.7954 </r>
       <r>    -0.2452     8.2642     9.3934 </r>
       <r>    -0.1728     6.1936     9.8416 </r>
       <r>    -0.1004     2.7674    10.0418 </r>
       <r>    -0.0281     0.3630    10.0681 </r>
       <r>     0.0443    -0.4246    10.0374 </r>
       <r>     0.1167    -0.3933    10.0089 </r>
       <r>     0.1890    -0.3408     9.9842 </r>
       <r>     0.2614    -0.5655     9.9433 </r>
       <r>     0.3338    -0.8590     9.8812 </r>
       <r>     0.4061    -0.2583     9.8625 </r>
       <r>     0.4785     2.8764    10.0706 </r>
       <r>     0.5508     9.4123    10.7517 </r>
       <r>     0.6232    17.3261    12.0055 </r>
       <r>     0.6956    21.8665    13.5878 </r>
       <r>     0.7679    19.5032    14.9991 </r>
       <r>     0.8403    11.8334    15.8554 </r>
       <r>     0.9127     4.0934    16.1516 </r>
       <r>     0.9850    -0.1006    16.1443 </r>
       <r>     1.0574    -1.0255    16.0701 </r>
       <r>     1.1297    -0.6516    16.0230 </r>
       <r>     1.2021    -0.2424    16.0054 </r>
       <r>     1.2745    -0.0619    16.0010 </r>
       <r>     1.3468    -0.0114    16.0001 </r>
       <r>     1.4192    -0.0016    16.0000 </r>
       <r>     1.4916    -0.0002    16.0000 </r>
       <r>     1.5639    -0.0000    16.0000 </r>
       <r>     1.6363    -0.0000    16.0000 </r>
       <r>     1.7086    -0.0000    16.0000 </r>
       <r>     1.7810    -0.0000    16.0000 </r>
       <r>     1.8534    -0.0000    16.0000 </r>
       <r>     1.9257    -0.0000    16.0000 </r>
       <r>     1.9981    -0.0000    16.0000 </r>
       <r>     2.0705     0.0000    16.0000 </r>
       <r>     2.1428     0.0000    16.0000 </r>
       <r>     2.2152     0.0000    16.0000 </r>
       <r>     2.2876     0.0000    16.0000 </r>
       <r>     2.3599     0.0000    16.0000 </r>
       <r>     2.4323     0.0000    16.0000 </r>
       <r>     2.5046     0.0000    16.0000 </r>
       <r>     2.5770     0.0000    16.0000 </r>
       <r>     2.6494     0.0000    16.0000 </r>
       <r>     2.7217     0.0000    16.0000 </r>
      </set>
     </set>
    </array>
   </total>
  </dos>
  <time name="totalsc">   85.72   85.93</time>
 </calculation>
 <calculation>
  <scstep>
   <time name="dav">    1.65    1.66</time>
   <time name="total">    3.36    3.37</time>
   <energy>
    <i name="alphaZ">      0.25114831 </i>
    <i name="ewald">    121.93212596 </i>
    <i name="hartreedc">   -280.98982195 </i>
    <i name="XCdc">     24.64632602 </i>
    <i name="pawpsdc">    486.12142099 </i>
    <i name="pawaedc">   -486.92248995 </i>
    <i name="eentropy">      0.02524344 </i>
    <i name="bandstr">    -86.09965757 </i>
    <i name="atom">    197.04175453 </i>
    <i name="e_fr_energy">    -23.99395021 </i>
    <i name="e_wo_entrp">    -24.01919365 </i>
    <i name="e_0_energy">    -24.00236469 </i>
   </energy>
  </scstep>
  <scstep>
   <time name="diag">    0.34    0.35</time>
   <time name="diis">    1.19    1.19</time>
   <time name="orth">    0.01    0.01</time>
   <time name="total">    3.11    3.11</time>
   <energy>
    <i name="e_fr_energy">    -23.97879576 </i>
    <i name="e_wo_entrp">    -24.00457014 </i>
    <i name="e_0_energy">    -23.98738722 </i>
   </energy>
  </scstep>
  <scstep>
   <time name="diag">    0.36    0.36</time>
   <time name="diis">    1.23    1.24</time>
   <time name="orth">    0.01    0.01</time>
   <time name="total">    3.22    3.23</time>
   <energy>
    <i name="e_fr_energy">    -23.97726806 </i>
    <i name="e_wo_entrp">    -24.00312828 </i>
    <i name="e_0_energy">    -23.98588813 </i>
   </energy>
  </scstep>
  <scstep>
   <time name="diag">    0.37    0.37</time>
   <time name="diis">    1.29    1.30</time>
   <time name="orth">    0.01    0.01</time>
   <time name="total">    3.42    3.43</time>
   <energy>
    <i name="e_fr_energy">    -23.96381118 </i>
    <i name="e_wo_entrp">    -23.98865666 </i>
    <i name="e_0_energy">    -23.97209301 </i>
   </energy>
  </scstep>
  <scstep>
   <time name="diag">    0.37    0.38</time>
   <time name="diis">    1.34    1.34</time>
   <time name="orth">    0.01    0.01</time>
   <time name="total">    3.34    3.35</time>
   <energy>
    <i name="e_fr_energy">    -23.96141192 </i>
    <i name="e_wo_entrp">    -23.98637008 </i>
    <i name="e_0_energy">    -23.96973130 </i>
   </energy>
  </scstep>
  <scstep>
   <time name="diag">    0.37    0.37</time>
   <time name="diis">    1.31    1.31</time>
   <time name="orth">    0.01    0.01</time>
   <time name="total">    3.35    3.36</time>
   <energy>
    <i name="e_fr_energy">    -23.96018573 </i>
    <i name="e_wo_entrp">    -23.98528646 </i>
    <i name="e_0_energy">    -23.96855264 </i>
   </energy>
  </scstep>
  <scstep>
   <time name="diag">    0.36    0.36</time>
   <time name="diis">    1.23    1.24</time>
   <time name="orth">    0.01    0.01</time>
   <time name="total">    3.29    3.30</time>
   <energy>
    <i name="e_fr_energy">    -23.96011810 </i>
    <i name="e_wo_entrp">    -23.98538177 </i>
    <i name="e_0_energy">    -23.96853933 </i>
   </energy>
  </scstep>
  <scstep>
   <time name="diag">    0.38    0.38</time>
   <time name="diis">    1.24    1.24</time>
   <time name="orth">    0.01    0.01</time>
   <time name="total">    3.35    3.36</time>
   <energy>
    <i name="e_fr_energy">    -23.95923049 </i>
    <i name="e_wo_entrp">    -23.98471948 </i>
    <i name="e_0_energy">    -23.96772682 </i>
   </energy>
  </scstep>
  <scstep>
   <time name="diag">    0.39    0.39</time>
   <time name="diis">    1.30    1.30</time>
   <time name="orth">    0.01    0.01</time>
   <time name="total">    3.40    3.41</time>
   <energy>
    <i name="e_fr_energy">    -23.95931596 </i>
    <i name="e_wo_entrp">    -23.98481969 </i>
    <i name="e_0_energy">    -23.96781721 </i>
   </energy>
  </scstep>
  <scstep>
   <time name="diag">    0.38    0.38</time>
   <time name="diis">    1.38    1.38</time>
   <time name="orth">    0.01    0.01</time>
   <time name="total">    3.43    3.44</time>
   <energy>
    <i name="e_fr_energy">    -23.95930893 </i>
    <i name="e_wo_entrp">    -23.98473493 </i>
    <i name="e_0_energy">    -23.96778426 </i>
   </energy>
  </scstep>
  <scstep>
   <time name="diag">    0.35    0.35</time>
   <time name="diis">    1.36    1.37</time>
   <time name="orth">    0.01    0.01</time>
   <time name="total">    3.45    3.46</time>
   <energy>
    <i name="e_fr_energy">    -23.95932984 </i>
    <i name="e_wo_entrp">    -23.98476104 </i>
    <i name="e_0_energy">    -23.96780690 </i>
   </energy>
  </scstep>
  <scstep>
   <time name="diag">    0.34    0.34</time>
   <time name="diis">    1.30    1.31</time>
   <time name="orth">    0.01    0.01</time>
   <time name="total">    3.40    3.40</time>
   <energy>
    <i name="e_fr_energy">    -23.95934412 </i>
    <i name="e_wo_entrp">    -23.98482122 </i>
    <i name="e_0_energy">    -23.96783649 </i>
   </energy>
  </scstep>
  <scstep>
   <time name="diag">    0.35    0.35</time>
   <time name="diis">    0.97    0.97</time>
   <time name="orth">    0.01    0.01</time>
   <time name="total">    3.09    3.09</time>
   <energy>
    <i name="e_fr_energy">    -23.95935421 </i>
    <i name="e_wo_entrp">    -23.98482508 </i>
    <i name="e_0_energy">    -23.96784450 </i>
   </energy>
  </scstep>
  <scstep>
   <time name="diag">    0.36    0.36</time>
   <time name="diis">    1.19    1.19</time>
   <time name="orth">    0.01    0.01</time>
   <time name="total">    3.35    3.35</time>
   <energy>
    <i name="e_fr_energy">    -23.95935926 </i>
    <i name="e_wo_entrp">    -23.98483234 </i>
    <i name="e_0_energy">    -23.96785029 </i>
   </energy>
  </scstep>
  <scstep>
   <time name="diag">    0.36    0.36</time>
   <time name="diis">    1.00    1.00</time>
   <time name="orth">    0.01    0.01</time>
   <time name="total">    3.13    3.14</time>
   <energy>
    <i name="e_fr_energy">    -23.95936130 </i>
    <i name="e_wo_entrp">    -23.98484127 </i>
    <i name="e_0_energy">    -23.96785462 </i>
   </energy>
  </scstep>
  <scstep>
   <time name="diag">    0.35    0.35</time>
   <time name="diis">    1.00    1.00</time>
   <time name="orth">    0.01    0.01</time>
   <time name="total">    3.12    3.13</time>
   <energy>
    <i name="e_fr_energy">    -23.95936244 </i>
    <i name="e_wo_entrp">    -23.98484230 </i>
    <i name="e_0_energy">    -23.96785572 </i>
   </energy>
  </scstep>
  <scstep>
   <time name="diag">    0.37    0.37</time>
   <time name="diis">    1.00    1.00</time>
   <time name="orth">    0.01    0.01</time>
   <time name="total">    2.93    2.93</time>
   <energy>
    <i name="alphaZ">      0.25114831 </i>
    <i name="ewald">    121.93212596 </i>
    <i name="hartreedc">   -278.38309697 </i>
    <i name="XCdc">     24.49556457 </i>
    <i name="pawpsdc">    437.45596086 </i>
    <i name="pawaedc">   -438.22590128 </i>
    <i name="eentropy">      0.02547851 </i>
    <i name="bandstr">    -88.55239769 </i>
    <i name="atom">    197.04175453 </i>
    <i name="e_fr_energy">    -23.95936321 </i>
    <i name="e_wo_entrp">    -23.98484172 </i>
    <i name="e_0_energy">    -23.96785604 </i>
   </energy>
  </scstep>
  <structure>
   <crystal>
    <varray name="basis" >
     <v>       9.75888552       0.00000000       0.00000000 </v>
     <v>      -0.01473522      10.04069263       0.00000000 </v>
     <v>      -0.00291825      -0.05088221       9.84398755 </v>
    </varray>
    <i name="volume">    964.57266742 </i>
    <varray name="rec_basis" >
     <v>       0.10247072       0.00015038       0.00003115 </v>
     <v>      -0.00000000       0.09959472       0.00051479 </v>
     <v>       0.00000000      -0.00000000       0.10158485 </v>
    </varray>
   </crystal>
   <varray name="positions" >
    <v>       0.54016524       0.40335396       0.36005027 </v>
    <v>       0.38970903       0.48345328       0.43744111 </v>
    <v>       0.55190509       0.56840175       0.44370808 </v>
    <v>       0.52590801       0.41304238       0.54213866 </v>
    <v>       0.50399042       0.46697498       0.44530664 </v>
   </varray>
  </structure>
  <varray name="forces" >
   <v>       0.04267034       0.13774207       0.87727620 </v>
   <v>       0.00143123      -1.16465933       0.05115471 </v>
   <v>       0.22509773      -0.32133562       0.10136915 </v>
   <v>      -0.42745742       0.71402507      -0.83334362 </v>
   <v>      -1.42597349      -0.14484289       0.04484896 </v>
  </varray>
  <varray name="stress" >
   <v>      -0.80342864      -0.30870915      -0.18046841 </v>
   <v>      -0.30870914      -2.87585614       0.03918664 </v>
   <v>      -0.18046841       0.03918664      -2.15113228 </v>
  </varray>
  <energy>
   <i name="e_fr_energy">    -23.95936321 </i>
   <i name="e_wo_entrp">    -23.96785604 </i>
   <i name="e_0_energy">      0.02547851 </i>
   <i name="kinetic">      0.08374628 </i>
   <i name="lattice kinetic">      0.00000000 </i>
   <i name="nosepot">      0.00083321 </i>
   <i name="nosekinetic">      0.00191845 </i>
   <i name="total">    -23.87286526 </i>
  </energy>
  <dos>
   <i name="efermi">     -8.89525298 </i>
   <total>
    <array>
     <dimension dim="1">gridpoints</dimension>
     <dimension dim="2">spin</dimension>
     <field>energy</field>
     <field>total</field>
     <field>integrated</field>
     <set>
      <set comment="spin 1">
       <r>   -18.7043     0.0000     0.0000 </r>
       <r>   -18.6330     0.0000     0.0000 </r>
       <r>   -18.5616     0.0000     0.0000 </r>
       <r>   -18.4902     0.0000     0.0000 </r>
       <r>   -18.4188     0.0000     0.0000 </r>
       <r>   -18.3474    -0.0000    -0.0000 </r>
       <r>   -18.2761    -0.0000    -0.0000 </r>
       <r>   -18.2047    -0.0000    -0.0000 </r>
       <r>   -18.1333    -0.0000    -0.0000 </r>
       <r>   -18.0619    -0.0000    -0.0000 </r>
       <r>   -17.9906    -0.0000    -0.0000 </r>
       <r>   -17.9192    -0.0000    -0.0000 </r>
       <r>   -17.8478    -0.0000    -0.0000 </r>
       <r>   -17.7764    -0.0000    -0.0000 </r>
       <r>   -17.7051    -0.0000    -0.0000 </r>
       <r>   -17.6337    -0.0000    -0.0000 </r>
       <r>   -17.5623    -0.0000    -0.0000 </r>
       <r>   -17.4909    -0.0000    -0.0000 </r>
       <r>   -17.4195    -0.0001    -0.0000 </r>
       <r>   -17.3482    -0.0007    -0.0001 </r>
       <r>   -17.2768    -0.0048    -0.0004 </r>
       <r>   -17.2054    -0.0261    -0.0023 </r>
       <r>   -17.1340    -0.1030    -0.0096 </r>
       <r>   -17.0627    -0.2788    -0.0295 </r>
       <r>   -16.9913    -0.4394    -0.0609 </r>
       <r>   -16.9199    -0.0281    -0.0629 </r>
       <r>   -16.8485     1.8057     0.0660 </r>
       <r>   -16.7771     5.0528     0.4267 </r>
       <r>   -16.7058     7.8609     0.9878 </r>
       <r>   -16.6344     7.9276     1.5536 </r>
       <r>   -16.5630     5.1931     1.9243 </r>
       <r>   -16.4916     1.9161     2.0610 </r>
       <r>   -16.4203     0.0136     2.0620 </r>
       <r>   -16.3489    -0.4394     2.0306 </r>
       <r>   -16.2775    -0.2875     2.0101 </r>
       <r>   -16.2061    -0.1081     2.0024 </r>
       <r>   -16.1347    -0.0278     2.0004 </r>
       <r>   -16.0634    -0.0052     2.0001 </r>
       <r>   -15.9920    -0.0007     2.0000 </r>
       <r>   -15.9206    -0.0001     2.0000 </r>
       <r>   -15.8492    -0.0000     2.0000 </r>
       <r>   -15.7779    -0.0000     2.0000 </r>
       <r>   -15.7065    -0.0000     2.0000 </r>
       <r>   -15.6351    -0.0000     2.0000 </r>
       <r>   -15.5637    -0.0000     2.0000 </r>
       <r>   -15.4923    -0.0000     2.0000 </r>
       <r>   -15.4210    -0.0000     2.0000 </r>
       <r>   -15.3496     0.0000     2.0000 </r>
       <r>   -15.2782     0.0000     2.0000 </r>
       <r>   -15.2068     0.0000     2.0000 </r>
       <r>   -15.1355     0.0000     2.0000 </r>
       <r>   -15.0641     0.0000     2.0000 </r>
       <r>   -14.9927     0.0000     2.0000 </r>
       <r>   -14.9213     0.0000     2.0000 </r>
       <r>   -14.8500     0.0000     2.0000 </r>
       <r>   -14.7786     0.0000     2.0000 </r>
       <r>   -14.7072     0.0000     2.0000 </r>
       <r>   -14.6358     0.0000     2.0000 </r>
       <r>   -14.5644     0.0000     2.0000 </r>
       <r>   -14.4931     0.0000     2.0000 </r>
       <r>   -14.4217     0.0000     2.0000 </r>
       <r>   -14.3503     0.0000     2.0000 </r>
       <r>   -14.2789     0.0000     2.0000 </r>
       <r>   -14.2076     0.0000     2.0000 </r>
       <r>   -14.1362     0.0000     2.0000 </r>
       <r>   -14.0648     0.0000     2.0000 </r>
       <r>   -13.9934     0.0000     2.0000 </r>
       <r>   -13.9220     0.0000     2.0000 </r>
       <r>   -13.8507     0.0000     2.0000 </r>
       <r>   -13.7793     0.0000     2.0000 </r>
       <r>   -13.7079     0.0000     2.0000 </r>
       <r>   -13.6365     0.0000     2.0000 </r>
       <r>   -13.5652     0.0000     2.0000 </r>
       <r>   -13.4938     0.0000     2.0000 </r>
       <r>   -13.4224     0.0000     2.0000 </r>
       <r>   -13.3510     0.0000     2.0000 </r>
       <r>   -13.2796     0.0000     2.0000 </r>
       <r>   -13.2083     0.0000     2.0000 </r>
       <r>   -13.1369     0.0000     2.0000 </r>
       <r>   -13.0655     0.0000     2.0000 </r>
       <r>   -12.9941     0.0000     2.0000 </r>
       <r>   -12.9228     0.0000     2.0000 </r>
       <r>   -12.8514     0.0000     2.0000 </r>
       <r>   -12.7800     0.0000     2.0000 </r>
       <r>   -12.7086     0.0000     2.0000 </r>
       <r>   -12.6372     0.0000     2.0000 </r>
       <r>   -12.5659     0.0000     2.0000 </r>
       <r>   -12.4945     0.0000     2.0000 </r>
       <r>   -12.4231     0.0000     2.0000 </r>
       <r>   -12.3517     0.0000     2.0000 </r>
       <r>   -12.2804     0.0000     2.0000 </r>
       <r>   -12.2090     0.0000     2.0000 </r>
       <r>   -12.1376     0.0000     2.0000 </r>
       <r>   -12.0662     0.0000     2.0000 </r>
       <r>   -11.9949     0.0000     2.0000 </r>
       <r>   -11.9235     0.0000     2.0000 </r>
       <r>   -11.8521     0.0000     2.0000 </r>
       <r>   -11.7807     0.0000     2.0000 </r>
       <r>   -11.7093     0.0000     2.0000 </r>
       <r>   -11.6380     0.0000     2.0000 </r>
       <r>   -11.5666     0.0000     2.0000 </r>
       <r>   -11.4952     0.0000     2.0000 </r>
       <r>   -11.4238     0.0000     2.0000 </r>
       <r>   -11.3525     0.0000     2.0000 </r>
       <r>   -11.2811     0.0000     2.0000 </r>
       <r>   -11.2097     0.0000     2.0000 </r>
       <r>   -11.1383     0.0000     2.0000 </r>
       <r>   -11.0669    -0.0000     2.0000 </r>
       <r>   -10.9956    -0.0000     2.0000 </r>
       <r>   -10.9242    -0.0000     2.0000 </r>
       <r>   -10.8528    -0.0000     2.0000 </r>
       <r>   -10.7814    -0.0000     2.0000 </r>
       <r>   -10.7101    -0.0000     2.0000 </r>
       <r>   -10.6387    -0.0000     2.0000 </r>
       <r>   -10.5673    -0.0000     2.0000 </r>
       <r>   -10.4959    -0.0000     2.0000 </r>
       <r>   -10.4245    -0.0000     2.0000 </r>
       <r>   -10.3532    -0.0000     2.0000 </r>
       <r>   -10.2818    -0.0000     2.0000 </r>
       <r>   -10.2104    -0.0000     2.0000 </r>
       <r>   -10.1390    -0.0001     2.0000 </r>
       <r>   -10.0677    -0.0006     2.0000 </r>
       <r>    -9.9963    -0.0046     1.9996 </r>
       <r>    -9.9249    -0.0253     1.9978 </r>
       <r>    -9.8535    -0.1005     1.9906 </r>
       <r>    -9.7821    -0.2746     1.9710 </r>
       <r>    -9.7108    -0.4413     1.9395 </r>
       <r>    -9.6394    -0.0635     1.9350 </r>
       <r>    -9.5680     1.6777     2.0548 </r>
       <r>    -9.4966     4.7280     2.3922 </r>
       <r>    -9.4253     7.2290     2.9082 </r>
       <r>    -9.3539     7.2146     3.4232 </r>
       <r>    -9.2825     5.7362     3.8326 </r>
       <r>    -9.2111     6.4154     4.2905 </r>
       <r>    -9.1397    10.6548     5.0510 </r>
       <r>    -9.0684    14.9330     6.1169 </r>
       <r>    -8.9970    14.6433     7.1621 </r>
       <r>    -8.9256     9.5681     7.8451 </r>
       <r>    -8.8542     3.6347     8.1045 </r>
       <r>    -8.7829     0.1365     8.1143 </r>
       <r>    -8.7115    -0.7721     8.0591 </r>
       <r>    -8.6401    -0.5409     8.0205 </r>
       <r>    -8.5687    -0.2152     8.0052 </r>
       <r>    -8.4974    -0.0588     8.0010 </r>
       <r>    -8.4260    -0.0117     8.0001 </r>
       <r>    -8.3546    -0.0017     8.0000 </r>
       <r>    -8.2832    -0.0002     8.0000 </r>
       <r>    -8.2118    -0.0000     8.0000 </r>
       <r>    -8.1405    -0.0000     8.0000 </r>
       <r>    -8.0691    -0.0000     8.0000 </r>
       <r>    -7.9977    -0.0000     8.0000 </r>
       <r>    -7.9263    -0.0000     8.0000 </r>
       <r>    -7.8550    -0.0000     8.0000 </r>
       <r>    -7.7836    -0.0000     8.0000 </r>
       <r>    -7.7122     0.0000     8.0000 </r>
       <r>    -7.6408     0.0000     8.0000 </r>
       <r>    -7.5694     0.0000     8.0000 </r>
       <r>    -7.4981     0.0000     8.0000 </r>
       <r>    -7.4267     0.0000     8.0000 </r>
       <r>    -7.3553     0.0000     8.0000 </r>
       <r>    -7.2839     0.0000     8.0000 </r>
       <r>    -7.2126     0.0000     8.0000 </r>
       <r>    -7.1412     0.0000     8.0000 </r>
       <r>    -7.0698     0.0000     8.0000 </r>
       <r>    -6.9984     0.0000     8.0000 </r>
       <r>    -6.9270     0.0000     8.0000 </r>
       <r>    -6.8557     0.0000     8.0000 </r>
       <r>    -6.7843     0.0000     8.0000 </r>
       <r>    -6.7129     0.0000     8.0000 </r>
       <r>    -6.6415     0.0000     8.0000 </r>
       <r>    -6.5702     0.0000     8.0000 </r>
       <r>    -6.4988     0.0000     8.0000 </r>
       <r>    -6.4274     0.0000     8.0000 </r>
       <r>    -6.3560     0.0000     8.0000 </r>
       <r>    -6.2846     0.0000     8.0000 </r>
       <r>    -6.2133     0.0000     8.0000 </r>
       <r>    -6.1419     0.0000     8.0000 </r>
       <r>    -6.0705     0.0000     8.0000 </r>
       <r>    -5.9991     0.0000     8.0000 </r>
       <r>    -5.9278     0.0000     8.0000 </r>
       <r>    -5.8564     0.0000     8.0000 </r>
       <r>    -5.7850     0.0000     8.0000 </r>
       <r>    -5.7136     0.0000     8.0000 </r>
       <r>    -5.6423     0.0000     8.0000 </r>
       <r>    -5.5709     0.0000     8.0000 </r>
       <r>    -5.4995     0.0000     8.0000 </r>
       <r>    -5.4281     0.0000     8.0000 </r>
       <r>    -5.3567     0.0000     8.0000 </r>
       <r>    -5.2854     0.0000     8.0000 </r>
       <r>    -5.2140     0.0000     8.0000 </r>
       <r>    -5.1426     0.0000     8.0000 </r>
       <r>    -5.0712     0.0000     8.0000 </r>
       <r>    -4.9999     0.0000     8.0000 </r>
       <r>    -4.9285     0.0000     8.0000 </r>
       <r>    -4.8571     0.0000     8.0000 </r>
       <r>    -4.7857     0.0000     8.0000 </r>
       <r>    -4.7143     0.0000     8.0000 </r>
       <r>    -4.6430     0.0000     8.0000 </r>
       <r>    -4.5716     0.0000     8.0000 </r>
       <r>    -4.5002     0.0000     8.0000 </r>
       <r>    -4.4288     0.0000     8.0000 </r>
       <r>    -4.3575     0.0000     8.0000 </r>
       <r>    -4.2861     0.0000     8.0000 </r>
       <r>    -4.2147     0.0000     8.0000 </r>
       <r>    -4.1433     0.0000     8.0000 </r>
       <r>    -4.0719     0.0000     8.0000 </r>
       <r>    -4.0006     0.0000     8.0000 </r>
       <r>    -3.9292     0.0000     8.0000 </r>
       <r>    -3.8578     0.0000     8.0000 </r>
       <r>    -3.7864     0.0000     8.0000 </r>
       <r>    -3.7151     0.0000     8.0000 </r>
       <r>    -3.6437     0.0000     8.0000 </r>
       <r>    -3.5723     0.0000     8.0000 </r>
       <r>    -3.5009     0.0000     8.0000 </r>
       <r>    -3.4295     0.0000     8.0000 </r>
       <r>    -3.3582     0.0000     8.0000 </r>
       <r>    -3.2868     0.0000     8.0000 </r>
       <r>    -3.2154     0.0000     8.0000 </r>
       <r>    -3.1440     0.0000     8.0000 </r>
       <r>    -3.0727     0.0000     8.0000 </r>
       <r>    -3.0013     0.0000     8.0000 </r>
       <r>    -2.9299     0.0000     8.0000 </r>
       <r>    -2.8585     0.0000     8.0000 </r>
       <r>    -2.7872     0.0000     8.0000 </r>
       <r>    -2.7158     0.0000     8.0000 </r>
       <r>    -2.6444     0.0000     8.0000 </r>
       <r>    -2.5730     0.0000     8.0000 </r>
       <r>    -2.5016     0.0000     8.0000 </r>
       <r>    -2.4303     0.0000     8.0000 </r>
       <r>    -2.3589     0.0000     8.0000 </r>
       <r>    -2.2875     0.0000     8.0000 </r>
       <r>    -2.2161     0.0000     8.0000 </r>
       <r>    -2.1448     0.0000     8.0000 </r>
       <r>    -2.0734     0.0000     8.0000 </r>
       <r>    -2.0020    -0.0000     8.0000 </r>
       <r>    -1.9306    -0.0000     8.0000 </r>
       <r>    -1.8592    -0.0000     8.0000 </r>
       <r>    -1.7879    -0.0000     8.0000 </r>
       <r>    -1.7165    -0.0000     8.0000 </r>
       <r>    -1.6451    -0.0000     8.0000 </r>
       <r>    -1.5737    -0.0000     8.0000 </r>
       <r>    -1.5024    -0.0000     8.0000 </r>
       <r>    -1.4310    -0.0000     8.0000 </r>
       <r>    -1.3596    -0.0000     8.0000 </r>
       <r>    -1.2882    -0.0000     8.0000 </r>
       <r>    -1.2168    -0.0000     8.0000 </r>
       <r>    -1.1455    -0.0000     8.0000 </r>
       <r>    -1.0741    -0.0000     8.0000 </r>
       <r>    -1.0027    -0.0004     8.0000 </r>
       <r>    -0.9313    -0.0033     7.9997 </r>
       <r>    -0.8600    -0.0191     7.9984 </r>
       <r>    -0.7886    -0.0805     7.9926 </r>
       <r>    -0.7172    -0.2365     7.9757 </r>
       <r>    -0.6458    -0.4272     7.9452 </r>
       <r>    -0.5744    -0.1993     7.9310 </r>
       <r>    -0.5031     1.3004     8.0238 </r>
       <r>    -0.4317     4.3550     8.3347 </r>
       <r>    -0.3603     7.4628     8.8674 </r>
       <r>    -0.2889     8.1816     9.4514 </r>
       <r>    -0.2176     5.8697     9.8703 </r>
       <r>    -0.1462     2.4970    10.0486 </r>
       <r>    -0.0748     0.2565    10.0669 </r>
       <r>    -0.0034    -0.4306    10.0361 </r>
       <r>     0.0679    -0.3616    10.0103 </r>
       <r>     0.1393    -0.2627     9.9916 </r>
       <r>     0.2107    -0.4112     9.9622 </r>
       <r>     0.2821    -0.7382     9.9095 </r>
       <r>     0.3535    -0.6531     9.8629 </r>
       <r>     0.4248     1.1508     9.9451 </r>
       <r>     0.4962     5.9640    10.3708 </r>
       <r>     0.5676    13.2972    11.3199 </r>
       <r>     0.6390    19.8428    12.7362 </r>
       <r>     0.7103    21.3048    14.2569 </r>
       <r>     0.7817    16.3587    15.4245 </r>
       <r>     0.8531     8.3435    16.0201 </r>
       <r>     0.9245     2.0180    16.1641 </r>
       <r>     0.9959    -0.6820    16.1154 </r>
       <r>     1.0672    -0.9290    16.0491 </r>
       <r>     1.1386    -0.4823    16.0147 </r>
       <r>     1.2100    -0.1606    16.0032 </r>
       <r>     1.2814    -0.0379    16.0005 </r>
       <r>     1.3527    -0.0066    16.0001 </r>
       <r>     1.4241    -0.0009    16.0000 </r>
       <r>     1.4955    -0.0001    16.0000 </r>
       <r>     1.5669    -0.0000    16.0000 </r>
       <r>     1.6383    -0.0000    16.0000 </r>
       <r>     1.7096    -0.0000    16.0000 </r>
       <r>     1.7810    -0.0000    16.0000 </r>
       <r>     1.8524    -0.0000    16.0000 </r>
       <r>     1.9238    -0.0000    16.0000 </r>
       <r>     1.9951    -0.0000    16.0000 </r>
       <r>     2.0665     0.0000    16.0000 </r>
       <r>     2.1379     0.0000    16.0000 </r>
       <r>     2.2093     0.0000    16.0000 </r>
       <r>     2.2807     0.0000    16.0000 </r>
       <r>     2.3520     0.0000    16.0000 </r>
       <r>     2.4234     0.0000    16.0000 </r>
       <r>     2.4948     0.0000    16.0000 </r>
       <r>     2.5662     0.0000    16.0000 </r>
       <r>     2.6375     0.0000    16.0000 </r>
       <r>     2.7089     0.0000    16.0000 </r>
      </set>
     </set>
    </array>
   </total>
  </dos>
  <time name="totalsc">   62.45   62.61</time>
 </calculation>
 <calculation>
  <scstep>
   <time name="dav">    1.73    1.74</time>
   <time name="total">    3.47    3.48</time>
   <energy>
    <i name="alphaZ">      0.25114831 </i>
    <i name="ewald">    118.59046916 </i>
    <i name="hartreedc">   -275.00776364 </i>
    <i name="XCdc">     24.31775236 </i>
    <i name="pawpsdc">    413.07827136 </i>
    <i name="pawaedc">   -413.83241591 </i>
    <i name="eentropy">      0.02338414 </i>
    <i name="bandstr">    -88.36600438 </i>
    <i name="atom">    197.04175453 </i>
    <i name="e_fr_energy">    -23.90340407 </i>
    <i name="e_wo_entrp">    -23.92678821 </i>
    <i name="e_0_energy">    -23.91119879 </i>
   </energy>
  </scstep>
  <scstep>
   <time name="diag">    0.35    0.35</time>
   <time name="diis">    1.21    1.22</time>
   <time name="orth">    0.01    0.01</time>
   <time name="total">    3.23    3.23</time>
   <energy>
    <i name="e_fr_energy">    -23.91650251 </i>
    <i name="e_wo_entrp">    -23.93167943 </i>
    <i name="e_0_energy">    -23.92156148 </i>
   </energy>
  </scstep>
  <scstep>
   <time name="diag">    0.36    0.36</time>
   <time name="diis">    1.23    1.24</time>
   <time name="orth">    0.01    0.01</time>
   <time name="total">    3.27    3.28</time>
   <energy>
    <i name="e_fr_energy">    -23.93976704 </i>
    <i name="e_wo_entrp">    -23.95156284 </i>
    <i name="e_0_energy">    -23.94369897 </i>
   </energy>
  </scstep>
  <scstep>
   <time name="diag">    0.36    0.36</time>
   <time name="diis">    1.28    1.28</time>
   <time name="orth">    0.01    0.01</time>
   <time name="total">    3.32    3.33</time>
   <energy>
    <i name="e_fr_energy">    -23.92301108 </i>
    <i name="e_wo_entrp">    -23.93504344 </i>
    <i name="e_0_energy">    -23.92702187 </i>
   </energy>
  </scstep>
  <scstep>
   <time name="diag">    0.37    0.37</time>
   <time name="diis">    1.30    1.30</time>
   <time name="orth">    0.01    0.01</time>
   <time name="total">    3.38    3.39</time>
   <energy>
    <i name="e_fr_energy">    -23.90617729 </i>
    <i name="e_wo_entrp">    -23.91974827 </i>
    <i name="e_0_energy">    -23.91070095 </i>
   </energy>
  </scstep>
  <scstep>
   <time name="diag">    0.34    0.34</time>
   <time name="diis">    1.25    1.26</time>
   <time name="orth">    0.01    0.01</time>
   <time name="total">    3.28    3.29</time>
   <energy>
    <i name="e_fr_energy">    -23.90565111 </i>
    <i name="e_wo_entrp">    -23.91932315 </i>
    <i name="e_0_energy">    -23.91020845 </i>
   </energy>
  </scstep>
  <scstep>
   <time name="diag">    0.34    0.34</time>
   <time name="diis">    1.24    1.24</time>
   <time name="orth">    0.01    0.01</time>
   <time name="total">    3.28    3.29</time>
   <energy>
    <i name="e_fr_energy">    -23.90551113 </i>
    <i name="e_wo_entrp">    -23.91953612 </i>
    <i name="e_0_energy">    -23.91018613 </i>
   </energy>
  </scstep>
  <scstep>
   <time name="diag">    0.34    0.35</time>
   <time name="diis">    1.22    1.22</time>
   <time name="orth">    0.01    0.01</time>
   <time name="total">    3.30    3.31</time>
   <energy>
    <i name="e_fr_energy">    -23.90483195 </i>
    <i name="e_wo_entrp">    -23.91956111 </i>
    <i name="e_0_energy">    -23.90974167 </i>
   </energy>
  </scstep>
  <scstep>
   <time name="diag">    0.35    0.35</time>
   <time name="diis">    1.25    1.25</time>
   <time name="orth">    0.01    0.01</time>
   <time name="total">    3.37    3.38</time>
   <energy>
    <i name="e_fr_energy">    -23.90475484 </i>
    <i name="e_wo_entrp">    -23.91978733 </i>
    <i name="e_0_energy">    -23.90976567 </i>
   </energy>
  </scstep>
  <scstep>
   <time name="diag">    0.36    0.36</time>
   <time name="diis">    1.30    1.30</time>
   <time name="orth">    0.01    0.01</time>
   <time name="total">    3.41    3.42</time>
   <energy>
    <i name="e_fr_energy">    -23.90467840 </i>
    <i name="e_wo_entrp">    -23.92016202 </i>
    <i name="e_0_energy">    -23.90983961 </i>
   </energy>
  </scstep>
  <scstep>
   <time name="diag">    0.37    0.37</time>
   <time name="diis">    1.31    1.31</time>
   <time name="orth">    0.01    0.01</time>
   <time name="total">    3.43    3.44</time>
   <energy>
    <i name="e_fr_energy">    -23.90463764 </i>
    <i name="e_wo_entrp">    -23.92047988 </i>
    <i name="e_0_energy">    -23.90991838 </i>
   </energy>
  </scstep>
  <scstep>
   <time name="diag">    0.35    0.36</time>
   <time name="diis">    1.29    1.29</time>
   <time name="orth">    0.01    0.01</time>
   <time name="total">    3.41    3.42</time>
   <energy>
    <i name="e_fr_energy">    -23.90460876 </i>
    <i name="e_wo_entrp">    -23.92083691 </i>
    <i name="e_0_energy">    -23.91001814 </i>
   </energy>
  </scstep>
  <scstep>
   <time name="diag">    0.35    0.36</time>
   <time name="diis">    1.27    1.27</time>
   <time name="orth">    0.01    0.01</time>
   <time name="total">    3.40    3.41</time>
   <energy>
    <i name="e_fr_energy">    -23.90458683 </i>
    <i name="e_wo_entrp">    -23.92118464 </i>
    <i name="e_0_energy">    -23.91011944 </i>
   </energy>
  </scstep>
  <scstep>
   <time name="diag">    0.37    0.37</time>
   <time name="diis">    1.24    1.24</time>
   <time name="orth">    0.01    0.01</time>
   <time name="total">    3.48    3.48</time>
   <energy>
    <i name="e_fr_energy">    -23.90456835 </i>
    <i name="e_wo_entrp">    -23.92151515 </i>
    <i name="e_0_energy">    -23.91021728 </i>
   </energy>
  </scstep>
  <scstep>
   <time name="diag">    0.38    0.38</time>
   <time name="diis">    1.26    1.26</time>
   <time name="orth">    0.01    0.01</time>
   <time name="total">    3.49    3.50</time>
   <energy>
    <i name="e_fr_energy">    -23.90455382 </i>
    <i name="e_wo_entrp">    -23.92181753 </i>
    <i name="e_0_energy">    -23.91030839 </i>
   </energy>
  </scstep>
  <scstep>
   <time name="diag">    0.38    0.38</time>
   <time name="diis">    1.29    1.29</time>
   <time name="orth">    0.01    0.01</time>
   <time name="total">    3.54    3.55</time>
   <energy>
    <i name="e_fr_energy">    -23.90454531 </i>
    <i name="e_wo_entrp">    -23.92211026 </i>
    <i name="e_0_energy">    -23.91040029 </i>
   </energy>
  </scstep>
  <scstep>
   <time name="diag">    0.36    0.37</time>
   <time name="diis">    1.31    1.32</time>
   <time name="orth">    0.01    0.01</time>
   <time name="total">    3.55    3.56</time>
   <energy>
    <i name="e_fr_energy">    -23.90454214 </i>
    <i name="e_wo_entrp">    -23.92232978 </i>
    <i name="e_0_energy">    -23.91047135 </i>
   </energy>
  </scstep>
  <scstep>
   <time name="diag">    0.39    0.39</time>
   <time name="diis">    1.28    1.28</time>
   <time name="orth">    0.01    0.01</time>
   <time name="total">    3.53    3.54</time>
   <energy>
    <i name="e_fr_energy">    -23.90453994 </i>
    <i name="e_wo_entrp">    -23.92256377 </i>
    <i name="e_0_energy">    -23.91054789 </i>
   </energy>
  </scstep>
  <scstep>
   <time name="diag">    0.37    0.37</time>
   <time name="diis">    1.27    1.27</time>
   <time name="orth">    0.01    0.01</time>
   <time name="total">    3.19    3.20</time>
   <energy>
    <i name="alphaZ">      0.25114831 </i>
    <i name="ewald">    118.59046916 </i>
    <i name="hartreedc">   -275.34867829 </i>
    <i name="XCdc">     24.33658229 </i>
    <i name="pawpsdc">    421.47820881 </i>
    <i name="pawaedc">   -422.23827780 </i>
    <i name="eentropy">      0.01822229 </i>
    <i name="bandstr">    -88.03396855 </i>
    <i name="atom">    197.04175453 </i>
    <i name="e_fr_energy">    -23.90453925 </i>
    <i name="e_wo_entrp">    -23.92276154 </i>
    <i name="e_0_energy">    -23.91061335 </i>
   </energy>
  </scstep>
  <structure>
   <crystal>
    <varray name="basis" >
     <v>       9.75888552       0.00000000       0.00000000 </v>
     <v>      -0.01473522      10.04069263       0.00000000 </v>
     <v>      -0.00291825      -0.05088221       9.84398755 </v>
    </varray>
    <i name="volume">    964.57266742 </i>
    <varray name="rec_basis" >
     <v>       0.10247072       0.00015038       0.00003115 </v>
     <v>      -0.00000000       0.09959472       0.00051479 </v>
     <v>       0.00000000      -0.00000000       0.10158485 </v>
    </varray>
   </crystal>
   <varray name="positions" >
    <v>       0.54250216       0.40011264       0.36208948 </v>
    <v>       0.38495938       0.48262465       0.43628639 </v>
    <v>       0.55279391       0.56932451       0.44508647 </v>
    <v>       0.52250884       0.41275236       0.54187625 </v>
    <v>       0.50440030       0.46726115       0.44514009 </v>
   </varray>
  </structure>
  <varray name="forces" >
   <v>      -0.88716341       0.92515881       0.98788063 </v>
   <v>       1.83743829      -0.01207871      -0.37125577 </v>
   <v>      -0.39472006      -1.04067249      -0.18094249 </v>
   <v>      -0.02549504       0.90197842      -0.62861891 </v>
   <v>      -2.71512449      -0.26132409      -0.17341083 </v>
  </varray>
  <varray name="stress" >
   <v>      -4.15616716      -0.43949802       0.00529705 </v>
   <v>      -0.43949801      -4.45051113      -0.34886735 </v>
   <v>       0.00529705      -0.34886735      -2.27343011 </v>
  </varray>
  <energy>
   <i name="e_fr_energy">    -23.90453925 </i>
   <i name="e_wo_entrp">    -23.91061335 </i>
   <i name="e_0_energy">      0.01822229 </i>
   <i name="kinetic">      0.05052871 </i>
   <i name="lattice kinetic">      0.00000000 </i>
   <i name="nosepot">      0.00308577 </i>
   <i name="nosekinetic">      0.00518788 </i>
   <i name="total">    -23.84573689 </i>
  </energy>
  <dos>
   <i name="efermi">     -8.70919892 </i>
   <total>
    <array>
     <dimension dim="1">gridpoints</dimension>
     <dimension dim="2">spin</dimension>
     <field>energy</field>
     <field>total</field>
     <field>integrated</field>
     <set>
      <set comment="spin 1">
       <r>   -18.6036     0.0000     0.0000 </r>
       <r>   -18.5325     0.0000     0.0000 </r>
       <r>   -18.4615     0.0000     0.0000 </r>
       <r>   -18.3905     0.0000     0.0000 </r>
       <r>   -18.3194     0.0000     0.0000 </r>
       <r>   -18.2484    -0.0000    -0.0000 </r>
       <r>   -18.1774    -0.0000    -0.0000 </r>
       <r>   -18.1063    -0.0000    -0.0000 </r>
       <r>   -18.0353    -0.0000    -0.0000 </r>
       <r>   -17.9643    -0.0000    -0.0000 </r>
       <r>   -17.8932    -0.0000    -0.0000 </r>
       <r>   -17.8222    -0.0000    -0.0000 </r>
       <r>   -17.7511    -0.0000    -0.0000 </r>
       <r>   -17.6801    -0.0000    -0.0000 </r>
       <r>   -17.6091    -0.0000    -0.0000 </r>
[...]
       <r>     0.2733    -0.6497     9.9287 </r>
       <r>     0.3455    -0.8546     9.8670 </r>
       <r>     0.4177     0.2132     9.8824 </r>
       <r>     0.4899     4.1924    10.1851 </r>
       <r>     0.5621    11.3808    11.0067 </r>
       <r>     0.6343    18.9005    12.3712 </r>
       <r>     0.7065    21.8901    13.9515 </r>
       <r>     0.7787    17.9359    15.2463 </r>
       <r>     0.8509     9.8521    15.9576 </r>
       <r>     0.9231     2.8301    16.1619 </r>
       <r>     0.9953    -0.4802    16.1272 </r>
       <r>     1.0675    -0.9738    16.0569 </r>
       <r>     1.1396    -0.5447    16.0176 </r>
       <r>     1.2118    -0.1889    16.0040 </r>
       <r>     1.2840    -0.0458    16.0007 </r>
       <r>     1.3562    -0.0081    16.0001 </r>
       <r>     1.4284    -0.0011    16.0000 </r>
       <r>     1.5006    -0.0001    16.0000 </r>
       <r>     1.5728    -0.0000    16.0000 </r>
       <r>     1.6450    -0.0000    16.0000 </r>
       <r>     1.7172    -0.0000    16.0000 </r>
       <r>     1.7894    -0.0000    16.0000 </r>
       <r>     1.8616    -0.0000    16.0000 </r>
       <r>     1.9338    -0.0000    16.0000 </r>
       <r>     2.0060    -0.0000    16.0000 </r>
       <r>     2.0782     0.0000    16.0000 </r>
       <r>     2.1503     0.0000    16.0000 </r>
       <r>     2.2225     0.0000    16.0000 </r>
       <r>     2.2947     0.0000    16.0000 </r>
       <r>     2.3669     0.0000    16.0000 </r>
       <r>     2.4391     0.0000    16.0000 </r>
       <r>     2.5113     0.0000    16.0000 </r>
       <r>     2.5835     0.0000    16.0000 </r>
       <r>     2.6557     0.0000    16.0000 </r>
       <r>     2.7279     0.0000    16.0000 </r>
      </set>
     </set>
    </array>
   </total>
  </dos>
  <time name="totalsc">   61.40   61.65</time>
  <eigenvalues>
   <array>
    <dimension dim="1">band</dimension>
    <dimension dim="2">kpoint</dimension>
    <dimension dim="3">spin</dimension>
    <field>eigene</field>
    <field>occ</field>
    <set>
     <set comment="spin 1">
      <set comment="kpoint 1">
       <r>  -16.8490    1.0000 </r>
       <r>   -9.5172    1.0000 </r>
       <r>   -9.2341    1.0064 </r>
       <r>   -8.9834    0.9935 </r>
       <r>   -0.3055    0.0000 </r>
       <r>    0.5837    0.0000 </r>
       <r>    0.6957    0.0000 </r>
       <r>    0.7228    0.0000 </r>
      </set>
      <set comment="kpoint 2">
       <r>  -16.8490    1.0000 </r>
       <r>   -9.5174    1.0000 </r>
       <r>   -9.2341    1.0064 </r>
       <r>   -8.9835    0.9937 </r>
       <r>   -0.3060    0.0000 </r>
       <r>    0.5707    0.0000 </r>
       <r>    0.6894    0.0000 </r>
       <r>    0.7428    0.0000 </r>
      </set>
      <set comment="kpoint 3">
       <r>  -16.8490    1.0000 </r>
       <r>   -9.5173    1.0000 </r>
       <r>   -9.2341    1.0064 </r>
       <r>   -8.9835    0.9936 </r>
       <r>   -0.3071    0.0000 </r>
       <r>    0.5732    0.0000 </r>
       <r>    0.7090    0.0000 </r>
       <r>    0.7329    0.0000 </r>
      </set>
      <set comment="kpoint 4">
       <r>  -16.8490    1.0000 </r>
       <r>   -9.5173    1.0000 </r>
       <r>   -9.2341    1.0064 </r>
       <r>   -8.9835    0.9936 </r>
       <r>   -0.3062    0.0000 </r>
       <r>    0.5726    0.0000 </r>
       <r>    0.6970    0.0000 </r>
       <r>    0.7401    0.0000 </r>
      </set>
     </set>
    </set>
   </array>
  </eigenvalues>
  <separator name="orbital magnetization" >
   <v name="MAGDIPOLOUT">      0.00000000      0.00000000      0.00000000</v>
  </separator>
  <dos>
   <i name="efermi">     -8.82064013 </i>
   <total>
    <array>
     <dimension dim="1">gridpoints</dimension>
     <dimension dim="2">spin</dimension>
     <field>energy</field>
     <field>total</field>
     <field>integrated</field>
     <set>
      <set comment="spin 1">
       <r>   -18.8490     0.0000     0.0000 </r>
       <r>   -18.7771     0.0000     0.0000 </r>
       <r>   -18.7051     0.0000     0.0000 </r>
       <r>   -18.6331     0.0000     0.0000 </r>
       <r>   -18.5612     0.0000     0.0000 </r>
       <r>   -18.4892    -0.0000    -0.0000 </r>
       <r>   -18.4172    -0.0000    -0.0000 </r>
       <r>   -18.3452    -0.0000    -0.0000 </r>
       <r>   -18.2733    -0.0000    -0.0000 </r>
       <r>   -18.2013    -0.0000    -0.0000 </r>
       <r>   -18.1293    -0.0000    -0.0000 </r>
       <r>   -18.0573    -0.0000    -0.0000 </r>
       <r>   -17.9854    -0.0000    -0.0000 </r>
       <r>   -17.9134    -0.0000    -0.0000 </r>
       <r>   -17.8414    -0.0000    -0.0000 </r>
       <r>   -17.7695    -0.0000    -0.0000 </r>
       <r>   -17.6975    -0.0000    -0.0000 </r>
       <r>   -17.6255    -0.0000    -0.0000 </r>
       <r>   -17.5535    -0.0001    -0.0000 </r>
       <r>   -17.4816    -0.0009    -0.0001 </r>
       <r>   -17.4096    -0.0065    -0.0005 </r>
       <r>   -17.3376    -0.0339    -0.0030 </r>
       <r>   -17.2656    -0.1269    -0.0121 </r>
       <r>   -17.1937    -0.3193    -0.0351 </r>
       <r>   -17.1217    -0.4301    -0.0660 </r>
       <r>   -17.0497     0.2092    -0.0510 </r>
       <r>   -16.9778     2.4129     0.1227 </r>
       <r>   -16.9058     5.8036     0.5404 </r>
       <r>   -16.8338     8.1682     1.1283 </r>
       <r>   -16.7618     7.4681     1.6658 </r>
       <r>   -16.6899     4.3369     1.9779 </r>
       <r>   -16.6179     1.2698     2.0693 </r>
       <r>   -16.5459    -0.2138     2.0539 </r>
       <r>   -16.4739    -0.4237     2.0234 </r>
       <r>   -16.4020    -0.2287     2.0070 </r>
       <r>   -16.3300    -0.0759     2.0015 </r>
       <r>   -16.2580    -0.0175     2.0002 </r>
       <r>   -16.1861    -0.0029     2.0000 </r>
       <r>   -16.1141    -0.0004     2.0000 </r>
       <r>   -16.0421    -0.0000     2.0000 </r>
       <r>   -15.9701    -0.0000     2.0000 </r>
       <r>   -15.8982    -0.0000     2.0000 </r>
       <r>   -15.8262    -0.0000     2.0000 </r>
       <r>   -15.7542    -0.0000     2.0000 </r>
       <r>   -15.6822    -0.0000     2.0000 </r>
       <r>   -15.6103    -0.0000     2.0000 </r>
       <r>   -15.5383     0.0000     2.0000 </r>
       <r>   -15.4663     0.0000     2.0000 </r>
       <r>   -15.3944     0.0000     2.0000 </r>
       <r>   -15.3224     0.0000     2.0000 </r>
       <r>   -15.2504     0.0000     2.0000 </r>
       <r>   -15.1784     0.0000     2.0000 </r>
       <r>   -15.1065     0.0000     2.0000 </r>
       <r>   -15.0345     0.0000     2.0000 </r>
       <r>   -14.9625     0.0000     2.0000 </r>
       <r>   -14.8905     0.0000     2.0000 </r>
       <r>   -14.8186     0.0000     2.0000 </r>
       <r>   -14.7466     0.0000     2.0000 </r>
       <r>   -14.6746     0.0000     2.0000 </r>
       <r>   -14.6027     0.0000     2.0000 </r>
       <r>   -14.5307     0.0000     2.0000 </r>
       <r>   -14.4587     0.0000     2.0000 </r>
       <r>   -14.3867     0.0000     2.0000 </r>
       <r>   -14.3148     0.0000     2.0000 </r>
       <r>   -14.2428     0.0000     2.0000 </r>
       <r>   -14.1708     0.0000     2.0000 </r>
       <r>   -14.0988     0.0000     2.0000 </r>
       <r>   -14.0269     0.0000     2.0000 </r>
       <r>   -13.9549     0.0000     2.0000 </r>
       <r>   -13.8829     0.0000     2.0000 </r>
       <r>   -13.8110     0.0000     2.0000 </r>
       <r>   -13.7390     0.0000     2.0000 </r>
       <r>   -13.6670     0.0000     2.0000 </r>
       <r>   -13.5950     0.0000     2.0000 </r>
       <r>   -13.5231     0.0000     2.0000 </r>
       <r>   -13.4511     0.0000     2.0000 </r>
       <r>   -13.3791     0.0000     2.0000 </r>
       <r>   -13.3071     0.0000     2.0000 </r>
       <r>   -13.2352     0.0000     2.0000 </r>
       <r>   -13.1632     0.0000     2.0000 </r>
       <r>   -13.0912     0.0000     2.0000 </r>
       <r>   -13.0193     0.0000     2.0000 </r>
       <r>   -12.9473     0.0000     2.0000 </r>
       <r>   -12.8753     0.0000     2.0000 </r>
       <r>   -12.8033     0.0000     2.0000 </r>
       <r>   -12.7314     0.0000     2.0000 </r>
       <r>   -12.6594     0.0000     2.0000 </r>
       <r>   -12.5874     0.0000     2.0000 </r>
       <r>   -12.5154     0.0000     2.0000 </r>
       <r>   -12.4435     0.0000     2.0000 </r>
       <r>   -12.3715     0.0000     2.0000 </r>
       <r>   -12.2995     0.0000     2.0000 </r>
       <r>   -12.2276     0.0000     2.0000 </r>
       <r>   -12.1556     0.0000     2.0000 </r>
       <r>   -12.0836     0.0000     2.0000 </r>
       <r>   -12.0116     0.0000     2.0000 </r>
       <r>   -11.9397     0.0000     2.0000 </r>
       <r>   -11.8677     0.0000     2.0000 </r>
       <r>   -11.7957     0.0000     2.0000 </r>
       <r>   -11.7237     0.0000     2.0000 </r>
       <r>   -11.6518     0.0000     2.0000 </r>
       <r>   -11.5798     0.0000     2.0000 </r>
       <r>   -11.5078     0.0000     2.0000 </r>
       <r>   -11.4359     0.0000     2.0000 </r>
       <r>   -11.3639     0.0000     2.0000 </r>
       <r>   -11.2919     0.0000     2.0000 </r>
       <r>   -11.2199     0.0000     2.0000 </r>
       <r>   -11.1480    -0.0000     2.0000 </r>
       <r>   -11.0760    -0.0000     2.0000 </r>
       <r>   -11.0040    -0.0000     2.0000 </r>
       <r>   -10.9320    -0.0000     2.0000 </r>
       <r>   -10.8601    -0.0000     2.0000 </r>
       <r>   -10.7881    -0.0000     2.0000 </r>
       <r>   -10.7161    -0.0000     2.0000 </r>
       <r>   -10.6442    -0.0000     2.0000 </r>
       <r>   -10.5722    -0.0000     2.0000 </r>
       <r>   -10.5002    -0.0000     2.0000 </r>
       <r>   -10.4282    -0.0000     2.0000 </r>
       <r>   -10.3563    -0.0000     2.0000 </r>
       <r>   -10.2843    -0.0000     2.0000 </r>
       <r>   -10.2123    -0.0001     2.0000 </r>
       <r>   -10.1403    -0.0012     1.9999 </r>
       <r>   -10.0684    -0.0082     1.9993 </r>
       <r>    -9.9964    -0.0412     1.9964 </r>
       <r>    -9.9244    -0.1472     1.9858 </r>
       <r>    -9.8525    -0.3489     1.9606 </r>
       <r>    -9.7805    -0.4180     1.9306 </r>
       <r>    -9.7085     0.3550     1.9561 </r>
       <r>    -9.6365     2.6676     2.1481 </r>
       <r>    -9.5646     5.8711     2.5707 </r>
       <r>    -9.4926     7.8552     3.1360 </r>
       <r>    -9.4206     7.5606     3.6802 </r>
       <r>    -9.3486     6.6530     4.1590 </r>
       <r>    -9.2767     6.9778     4.6612 </r>
       <r>    -9.2047     7.8983     5.2297 </r>
       <r>    -9.1327     8.1767     5.8182 </r>
       <r>    -9.0607     8.2690     6.4133 </r>
       <r>    -8.9888     8.5316     7.0274 </r>
       <r>    -8.9168     7.6591     7.5786 </r>
       <r>    -8.8448     4.9373     7.9340 </r>
       <r>    -8.7729     1.8186     8.0649 </r>
       <r>    -8.7009    -0.0170     8.0636 </r>
       <r>    -8.6289    -0.4514     8.0312 </r>
       <r>    -8.5569    -0.2912     8.0102 </r>
       <r>    -8.4850    -0.1083     8.0024 </r>
       <r>    -8.4130    -0.0275     8.0004 </r>
       <r>    -8.3410    -0.0050     8.0001 </r>
       <r>    -8.2690    -0.0007     8.0000 </r>
       <r>    -8.1971    -0.0001     8.0000 </r>
       <r>    -8.1251    -0.0000     8.0000 </r>
       <r>    -8.0531    -0.0000     8.0000 </r>
       <r>    -7.9812    -0.0000     8.0000 </r>
       <r>    -7.9092    -0.0000     8.0000 </r>
       <r>    -7.8372    -0.0000     8.0000 </r>
       <r>    -7.7652    -0.0000     8.0000 </r>
       <r>    -7.6933    -0.0000     8.0000 </r>
       <r>    -7.6213     0.0000     8.0000 </r>
       <r>    -7.5493     0.0000     8.0000 </r>
       <r>    -7.4773     0.0000     8.0000 </r>
       <r>    -7.4054     0.0000     8.0000 </r>
       <r>    -7.3334     0.0000     8.0000 </r>
       <r>    -7.2614     0.0000     8.0000 </r>
       <r>    -7.1895     0.0000     8.0000 </r>
       <r>    -7.1175     0.0000     8.0000 </r>
       <r>    -7.0455     0.0000     8.0000 </r>
       <r>    -6.9735     0.0000     8.0000 </r>
       <r>    -6.9016     0.0000     8.0000 </r>
       <r>    -6.8296     0.0000     8.0000 </r>
       <r>    -6.7576     0.0000     8.0000 </r>
       <r>    -6.6856     0.0000     8.0000 </r>
       <r>    -6.6137     0.0000     8.0000 </r>
       <r>    -6.5417     0.0000     8.0000 </r>
       <r>    -6.4697     0.0000     8.0000 </r>
       <r>    -6.3978     0.0000     8.0000 </r>
       <r>    -6.3258     0.0000     8.0000 </r>
       <r>    -6.2538     0.0000     8.0000 </r>
       <r>    -6.1818     0.0000     8.0000 </r>
       <r>    -6.1099     0.0000     8.0000 </r>
       <r>    -6.0379     0.0000     8.0000 </r>
       <r>    -5.9659     0.0000     8.0000 </r>
       <r>    -5.8939     0.0000     8.0000 </r>
       <r>    -5.8220     0.0000     8.0000 </r>
       <r>    -5.7500     0.0000     8.0000 </r>
       <r>    -5.6780     0.0000     8.0000 </r>
       <r>    -5.6061     0.0000     8.0000 </r>
       <r>    -5.5341     0.0000     8.0000 </r>
       <r>    -5.4621     0.0000     8.0000 </r>
       <r>    -5.3901     0.0000     8.0000 </r>
       <r>    -5.3182     0.0000     8.0000 </r>
       <r>    -5.2462     0.0000     8.0000 </r>
       <r>    -5.1742     0.0000     8.0000 </r>
       <r>    -5.1022     0.0000     8.0000 </r>
       <r>    -5.0303     0.0000     8.0000 </r>
       <r>    -4.9583     0.0000     8.0000 </r>
       <r>    -4.8863     0.0000     8.0000 </r>
       <r>    -4.8144     0.0000     8.0000 </r>
       <r>    -4.7424     0.0000     8.0000 </r>
       <r>    -4.6704     0.0000     8.0000 </r>
       <r>    -4.5984     0.0000     8.0000 </r>
       <r>    -4.5265     0.0000     8.0000 </r>
       <r>    -4.4545     0.0000     8.0000 </r>
       <r>    -4.3825     0.0000     8.0000 </r>
       <r>    -4.3105     0.0000     8.0000 </r>
       <r>    -4.2386     0.0000     8.0000 </r>
       <r>    -4.1666     0.0000     8.0000 </r>
       <r>    -4.0946     0.0000     8.0000 </r>
       <r>    -4.0227     0.0000     8.0000 </r>
       <r>    -3.9507     0.0000     8.0000 </r>
       <r>    -3.8787     0.0000     8.0000 </r>
       <r>    -3.8067     0.0000     8.0000 </r>
       <r>    -3.7348     0.0000     8.0000 </r>
       <r>    -3.6628     0.0000     8.0000 </r>
       <r>    -3.5908     0.0000     8.0000 </r>
       <r>    -3.5188     0.0000     8.0000 </r>
       <r>    -3.4469     0.0000     8.0000 </r>
       <r>    -3.3749     0.0000     8.0000 </r>
       <r>    -3.3029     0.0000     8.0000 </r>
       <r>    -3.2310     0.0000     8.0000 </r>
       <r>    -3.1590     0.0000     8.0000 </r>
       <r>    -3.0870     0.0000     8.0000 </r>
       <r>    -3.0150     0.0000     8.0000 </r>
       <r>    -2.9431     0.0000     8.0000 </r>
       <r>    -2.8711     0.0000     8.0000 </r>
       <r>    -2.7991     0.0000     8.0000 </r>
       <r>    -2.7271     0.0000     8.0000 </r>
       <r>    -2.6552     0.0000     8.0000 </r>
       <r>    -2.5832     0.0000     8.0000 </r>
       <r>    -2.5112     0.0000     8.0000 </r>
       <r>    -2.4393     0.0000     8.0000 </r>
       <r>    -2.3673     0.0000     8.0000 </r>
       <r>    -2.2953     0.0000     8.0000 </r>
       <r>    -2.2233     0.0000     8.0000 </r>
       <r>    -2.1514     0.0000     8.0000 </r>
       <r>    -2.0794     0.0000     8.0000 </r>
       <r>    -2.0074     0.0000     8.0000 </r>
       <r>    -1.9354    -0.0000     8.0000 </r>
       <r>    -1.8635    -0.0000     8.0000 </r>
       <r>    -1.7915    -0.0000     8.0000 </r>
       <r>    -1.7195    -0.0000     8.0000 </r>
       <r>    -1.6476    -0.0000     8.0000 </r>
       <r>    -1.5756    -0.0000     8.0000 </r>
       <r>    -1.5036    -0.0000     8.0000 </r>
       <r>    -1.4316    -0.0000     8.0000 </r>
       <r>    -1.3597    -0.0000     8.0000 </r>
       <r>    -1.2877    -0.0000     8.0000 </r>
       <r>    -1.2157    -0.0000     8.0000 </r>
       <r>    -1.1437    -0.0000     8.0000 </r>
       <r>    -1.0718    -0.0000     8.0000 </r>
       <r>    -0.9998    -0.0001     8.0000 </r>
       <r>    -0.9278    -0.0013     7.9999 </r>
       <r>    -0.8559    -0.0085     7.9993 </r>
       <r>    -0.7839    -0.0423     7.9962 </r>
       <r>    -0.7119    -0.1502     7.9854 </r>
       <r>    -0.6399    -0.3516     7.9601 </r>
       <r>    -0.5680    -0.4044     7.9310 </r>
       <r>    -0.4960     0.4315     7.9621 </r>
       <r>    -0.4240     2.8893     8.1700 </r>
       <r>    -0.3520     6.2983     8.6233 </r>
       <r>    -0.2801     8.2801     9.2193 </r>
       <r>    -0.2081     7.0938     9.7298 </r>
       <r>    -0.1361     3.8055    10.0037 </r>
       <r>    -0.0642     0.9319    10.0708 </r>
       <r>     0.0078    -0.3108    10.0484 </r>
       <r>     0.0798    -0.4341    10.0172 </r>
       <r>     0.1518    -0.3260     9.9937 </r>
       <r>     0.2237    -0.4283     9.9629 </r>
       <r>     0.2957    -0.6965     9.9128 </r>
       <r>     0.3677    -0.5187     9.8754 </r>
       <r>     0.4397     1.3234     9.9707 </r>
       <r>     0.5116     5.8920    10.3947 </r>
       <r>     0.5836    12.6664    11.3064 </r>
       <r>     0.6556    18.8373    12.6621 </r>
       <r>     0.7275    20.6344    14.1473 </r>
       <r>     0.7995    16.4651    15.3323 </r>
       <r>     0.8715     8.9147    15.9739 </r>
       <r>     0.9435     2.4980    16.1537 </r>
       <r>     1.0154    -0.4928    16.1182 </r>
       <r>     1.0874    -0.9135    16.0525 </r>
       <r>     1.1594    -0.5048    16.0162 </r>
       <r>     1.2314    -0.1740    16.0036 </r>
       <r>     1.3033    -0.0420    16.0006 </r>
       <r>     1.3753    -0.0074    16.0001 </r>
       <r>     1.4473    -0.0010    16.0000 </r>
       <r>     1.5192    -0.0001    16.0000 </r>
       <r>     1.5912    -0.0000    16.0000 </r>
       <r>     1.6632    -0.0000    16.0000 </r>
       <r>     1.7352    -0.0000    16.0000 </r>
       <r>     1.8071    -0.0000    16.0000 </r>
       <r>     1.8791    -0.0000    16.0000 </r>
       <r>     1.9511    -0.0000    16.0000 </r>
       <r>     2.0231    -0.0000    16.0000 </r>
       <r>     2.0950     0.0000    16.0000 </r>
       <r>     2.1670     0.0000    16.0000 </r>
       <r>     2.2390     0.0000    16.0000 </r>
       <r>     2.3109     0.0000    16.0000 </r>
       <r>     2.3829     0.0000    16.0000 </r>
       <r>     2.4549     0.0000    16.0000 </r>
       <r>     2.5269     0.0000    16.0000 </r>
       <r>     2.5988     0.0000    16.0000 </r>
       <r>     2.6708     0.0000    16.0000 </r>
       <r>     2.7428     0.0000    16.0000 </r>
      </set>
     </set>
    </array>
   </total>
  </dos>
 </calculation>
 <structure name="finalpos" >
  <crystal>
   <varray name="basis" >
    <v>       9.75888552       0.00000000       0.00000000 </v>
    <v>      -0.01473522      10.04069263       0.00000000 </v>
    <v>      -0.00291825      -0.05088221       9.84398755 </v>
   </varray>
   <i name="volume">    964.57266742 </i>
   <varray name="rec_basis" >
    <v>       0.10247072       0.00015038       0.00003115 </v>
    <v>      -0.00000000       0.09959472       0.00051479 </v>
    <v>       0.00000000      -0.00000000       0.10158485 </v>
   </varray>
  </crystal>
  <varray name="positions" >
   <v>       0.54088274       0.40176466       0.36361029 </v>
   <v>       0.39439465       0.48435358       0.43329421 </v>
   <v>       0.55145021       0.56802770       0.44314109 </v>
   <v>       0.52277783       0.41640432       0.54172828 </v>
   <v>       0.50383905       0.46678358       0.44543687 </v>
  </varray>
  <varray name="velocities" >
   <v>       0.00038363      -0.00056957       0.00194590 </v>
   <v>      -0.00592214       0.00036028       0.00178878 </v>
   <v>      -0.00060795       0.00109813      -0.00035289 </v>
   <v>      -0.00607676       0.00049077      -0.00290522 </v>
   <v>       0.00101767      -0.00011486      -0.00003968 </v>
  </varray>
 </structure>
</modeling>
