unknown system                          
           1
     9.758886    0.000000    0.000000
    -0.014735   10.040693    0.000000
    -0.002918   -0.050882    9.843988
   H    C 
   4   1
Direct configuration=     1
   0.53832733  0.40743975  0.36138069
   0.39500114  0.47995255  0.43877495
   0.55228866  0.56638817  0.44263088
   0.52809594  0.41630080  0.53903176
   0.50348873  0.46682263  0.44543318
Direct configuration=     2
   0.54016524  0.40335396  0.36005027
   0.38970903  0.48345328  0.43744111
   0.55190509  0.56840175  0.44370808
   0.52590801  0.41304238  0.54213866
   0.50399042  0.46697498  0.44530664
Direct configuration=     3
   0.54250216  0.40011264  0.36208948
   0.38495938  0.48262465  0.43628639
   0.55279391  0.56932451  0.44508647
   0.52250884  0.41275236  0.54187625
   0.50440030  0.46726115  0.44514009
Direct configuration=     4
   0.54183513  0.40039787  0.36789626
   0.38805652  0.48166401  0.43385506
   0.55263681  0.56617621  0.44579329
   0.51970714  0.41572734  0.53930938
   0.50444431  0.46733181  0.44501392
Direct configuration=     5
   0.54200179  0.40067756  0.36949193
   0.39526040  0.48027178  0.43170520
   0.55683462  0.56680243  0.44558040
   0.51724174  0.41730286  0.54064761
   0.50368643  0.46724113  0.44496637
Direct configuration=     6
   0.54341245  0.39956332  0.36620929
   0.39881118  0.48031397  0.42909812
   0.55664675  0.56532646  0.44492635
   0.51803962  0.41646466  0.54551911
   0.50322257  0.46752306  0.44510559
Direct configuration=     7
   0.54425843  0.40098291  0.36286318
   0.39104386  0.48187177  0.42765083
   0.55410116  0.56356761  0.44486266
   0.52285279  0.41789128  0.54580146
   0.50361003  0.46730283  0.44548647
Direct configuration=     8
   0.54168294  0.40303940  0.36439496
   0.38979585  0.48275016  0.42670398
   0.55584707  0.56401383  0.44631431
   0.52744675  0.41980239  0.53950853
   0.50340052  0.46686221  0.44584084
Direct configuration=     9
   0.54021524  0.40352752  0.36428432
   0.39352915  0.48378948  0.42805892
   0.55592550  0.56568008  0.44526251
   0.53010530  0.41854817  0.54015053
   0.50298402  0.46670074  0.44577137
Direct configuration=    10
   0.54049911  0.40233423  0.36166439
   0.40031679  0.48399331  0.43150544
   0.55205816  0.56692957  0.44349398
   0.52885459  0.41591354  0.54463350
   0.50282138  0.46689844  0.44547655
