   5   5   0   0
  0.2009700E+03  0.9929189E-09  0.1015332E-08  0.9974726E-09  0.2000000E-14
   50.000000000000000     
  CAR 
 unknown system                          
      2.70869324    -18.86641586  301     -9.04242379      1.00000000
    -18.866  0.0000E+00  0.0000E+00
    -18.794  0.0000E+00  0.0000E+00
    -18.723  0.0000E+00  0.0000E+00
    -18.651  0.0000E+00  0.0000E+00
    -18.579  0.0000E+00  0.0000E+00
    -18.507 -0.3894E-27 -0.2800E-28
    -18.435 -0.1189E-24 -0.8579E-26
    -18.363 -0.2804E-22 -0.2025E-23
    -18.291 -0.5091E-20 -0.3682E-21
    -18.219 -0.7118E-18 -0.5156E-19
    -18.147 -0.7659E-16 -0.5559E-17
    -18.075 -0.6338E-14 -0.4614E-15
    -18.003 -0.3909E-12 -0.2857E-13
    -17.931 -0.1902E-10 -0.1397E-11
    -17.860 -0.7096E-09 -0.5243E-10
    -17.788 -0.2027E-07 -0.1510E-08
    -17.716 -0.4422E-06 -0.3331E-07
    -17.644 -0.7352E-05 -0.5620E-06
    -17.572 -0.9277E-04 -0.7234E-05
    -17.500 -0.8835E-03 -0.7077E-04
    -17.428 -0.6294E-02 -0.5234E-03
    -17.356 -0.3306E-01 -0.2901E-02
    -17.284 -0.1245E+00 -0.1185E-01
    -17.212 -0.3155E+00 -0.3454E-01
    -17.140 -0.4320E+00 -0.6561E-01
    -17.068  0.1840E+00 -0.5238E-01
    -16.997  0.2353E+01  0.1168E+00
    -16.925  0.5735E+01  0.5292E+00
    -16.853  0.8146E+01  0.1115E+01
    -16.781  0.7518E+01  0.1656E+01
    -16.709  0.4418E+01  0.1973E+01
    -16.637  0.1326E+01  0.2069E+01
    -16.565 -0.1964E+00  0.2055E+01
    -16.493 -0.4265E+00  0.2024E+01
    -16.421 -0.2340E+00  0.2007E+01
    -16.349 -0.7852E-01  0.2002E+01
    -16.277 -0.1829E-01  0.2000E+01
    -16.205 -0.3095E-02  0.2000E+01
    -16.134 -0.3887E-03  0.2000E+01
    -16.062 -0.3665E-04  0.2000E+01
    -15.990 -0.2615E-05  0.2000E+01
    -15.918 -0.1418E-06  0.2000E+01
    -15.846 -0.5867E-08  0.2000E+01
    -15.774 -0.1856E-09  0.2000E+01
    -15.702 -0.4499E-11  0.2000E+01
    -15.630 -0.8645E-13  0.2000E+01
    -15.558  0.0000E+00  0.2000E+01
    -15.486  0.0000E+00  0.2000E+01
    -15.414  0.0000E+00  0.2000E+01
    -15.342  0.0000E+00  0.2000E+01
    -15.271  0.0000E+00  0.2000E+01
    -15.199  0.0000E+00  0.2000E+01
    -15.127  0.0000E+00  0.2000E+01
    -15.055  0.0000E+00  0.2000E+01
    -14.983  0.0000E+00  0.2000E+01
    -14.911  0.0000E+00  0.2000E+01
    -14.839  0.0000E+00  0.2000E+01
    -14.767  0.0000E+00  0.2000E+01
    -14.695  0.0000E+00  0.2000E+01
    -14.623  0.0000E+00  0.2000E+01
    -14.551  0.0000E+00  0.2000E+01
    -14.479  0.0000E+00  0.2000E+01
    -14.408  0.0000E+00  0.2000E+01
    -14.336  0.0000E+00  0.2000E+01
    -14.264  0.0000E+00  0.2000E+01
    -14.192  0.0000E+00  0.2000E+01
    -14.120  0.0000E+00  0.2000E+01
    -14.048  0.0000E+00  0.2000E+01
    -13.976  0.0000E+00  0.2000E+01
    -13.904  0.0000E+00  0.2000E+01
    -13.832  0.0000E+00  0.2000E+01
    -13.760  0.0000E+00  0.2000E+01
    -13.688  0.0000E+00  0.2000E+01
    -13.616  0.0000E+00  0.2000E+01
    -13.545  0.0000E+00  0.2000E+01
    -13.473  0.0000E+00  0.2000E+01
    -13.401  0.0000E+00  0.2000E+01
    -13.329  0.0000E+00  0.2000E+01
    -13.257  0.0000E+00  0.2000E+01
    -13.185  0.0000E+00  0.2000E+01
    -13.113  0.0000E+00  0.2000E+01
    -13.041  0.0000E+00  0.2000E+01
    -12.969  0.0000E+00  0.2000E+01
    -12.897  0.0000E+00  0.2000E+01
    -12.825  0.0000E+00  0.2000E+01
    -12.753  0.0000E+00  0.2000E+01
    -12.682  0.0000E+00  0.2000E+01
    -12.610  0.0000E+00  0.2000E+01
    -12.538  0.0000E+00  0.2000E+01
    -12.466  0.0000E+00  0.2000E+01
    -12.394  0.0000E+00  0.2000E+01
    -12.322  0.0000E+00  0.2000E+01
    -12.250  0.0000E+00  0.2000E+01
    -12.178  0.0000E+00  0.2000E+01
    -12.106  0.0000E+00  0.2000E+01
    -12.034  0.0000E+00  0.2000E+01
    -11.962  0.0000E+00  0.2000E+01
    -11.890  0.0000E+00  0.2000E+01
    -11.819  0.0000E+00  0.2000E+01
    -11.747  0.0000E+00  0.2000E+01
    -11.675  0.0000E+00  0.2000E+01
    -11.603  0.0000E+00  0.2000E+01
    -11.531  0.0000E+00  0.2000E+01
    -11.459  0.0000E+00  0.2000E+01
    -11.387  0.0000E+00  0.2000E+01
    -11.315  0.0000E+00  0.2000E+01
    -11.243  0.0000E+00  0.2000E+01
    -11.171  0.0000E+00  0.2000E+01
    -11.099  0.0000E+00  0.2000E+01
    -11.027 -0.7102E-26  0.2000E+01
    -10.956 -0.1902E-23  0.2000E+01
    -10.884 -0.3934E-21  0.2000E+01
    -10.812 -0.6267E-19  0.2000E+01
    -10.740 -0.7683E-17  0.2000E+01
    -10.668 -0.7248E-15  0.2000E+01
    -10.596 -0.5103E-13  0.2000E+01
    -10.524 -0.2835E-11  0.2000E+01
    -10.452 -0.1208E-09  0.2000E+01
    -10.380 -0.3941E-08  0.2000E+01
    -10.308 -0.9838E-07  0.2000E+01
    -10.236 -0.1874E-05  0.2000E+01
    -10.164 -0.2715E-04  0.2000E+01
    -10.093 -0.2979E-03  0.2000E+01
    -10.021 -0.2458E-02  0.2000E+01
     -9.949 -0.1510E-01  0.1999E+01
     -9.877 -0.6779E-01  0.1994E+01
     -9.805 -0.2149E+00  0.1978E+01
     -9.733 -0.4415E+00  0.1947E+01
     -9.661 -0.4078E+00  0.1917E+01
     -9.589  0.6362E+00  0.1963E+01
     -9.517  0.3183E+01  0.2192E+01
     -9.445  0.6690E+01  0.2673E+01
     -9.373  0.1033E+02  0.3416E+01
     -9.301  0.1406E+02  0.4428E+01
     -9.230  0.1712E+02  0.5659E+01
     -9.158  0.1682E+02  0.6869E+01
     -9.086  0.1189E+02  0.7724E+01
     -9.014  0.5175E+01  0.8096E+01
     -8.942  0.6078E+00  0.8139E+01
     -8.870 -0.8569E+00  0.8078E+01
     -8.798 -0.6930E+00  0.8028E+01
     -8.726 -0.2900E+00  0.8007E+01
     -8.654 -0.8091E-01  0.8001E+01
     -8.582 -0.1613E-01  0.8000E+01
     -8.510 -0.2366E-02  0.8000E+01
     -8.438 -0.2596E-03  0.8000E+01
     -8.367 -0.2149E-04  0.8000E+01
     -8.295 -0.1350E-05  0.8000E+01
     -8.223 -0.6463E-07  0.8000E+01
     -8.151 -0.2365E-08  0.8000E+01
     -8.079 -0.6628E-10  0.8000E+01
     -8.007 -0.1428E-11  0.8000E+01
     -7.935 -0.2470E-13  0.8000E+01
     -7.863  0.0000E+00  0.8000E+01
     -7.791  0.0000E+00  0.8000E+01
     -7.719  0.0000E+00  0.8000E+01
     -7.647  0.0000E+00  0.8000E+01
     -7.575  0.0000E+00  0.8000E+01
     -7.504  0.0000E+00  0.8000E+01
     -7.432  0.0000E+00  0.8000E+01
     -7.360  0.0000E+00  0.8000E+01
     -7.288  0.0000E+00  0.8000E+01
     -7.216  0.0000E+00  0.8000E+01
     -7.144  0.0000E+00  0.8000E+01
     -7.072  0.0000E+00  0.8000E+01
     -7.000  0.0000E+00  0.8000E+01
     -6.928  0.0000E+00  0.8000E+01
     -6.856  0.0000E+00  0.8000E+01
     -6.784  0.0000E+00  0.8000E+01
     -6.712  0.0000E+00  0.8000E+01
     -6.641  0.0000E+00  0.8000E+01
     -6.569  0.0000E+00  0.8000E+01
     -6.497  0.0000E+00  0.8000E+01
     -6.425  0.0000E+00  0.8000E+01
     -6.353  0.0000E+00  0.8000E+01
     -6.281  0.0000E+00  0.8000E+01
     -6.209  0.0000E+00  0.8000E+01
     -6.137  0.0000E+00  0.8000E+01
     -6.065  0.0000E+00  0.8000E+01
     -5.993  0.0000E+00  0.8000E+01
     -5.921  0.0000E+00  0.8000E+01
     -5.849  0.0000E+00  0.8000E+01
     -5.778  0.0000E+00  0.8000E+01
     -5.706  0.0000E+00  0.8000E+01
     -5.634  0.0000E+00  0.8000E+01
     -5.562  0.0000E+00  0.8000E+01
     -5.490  0.0000E+00  0.8000E+01
     -5.418  0.0000E+00  0.8000E+01
     -5.346  0.0000E+00  0.8000E+01
     -5.274  0.0000E+00  0.8000E+01
     -5.202  0.0000E+00  0.8000E+01
     -5.130  0.0000E+00  0.8000E+01
     -5.058  0.0000E+00  0.8000E+01
     -4.986  0.0000E+00  0.8000E+01
     -4.915  0.0000E+00  0.8000E+01
     -4.843  0.0000E+00  0.8000E+01
     -4.771  0.0000E+00  0.8000E+01
     -4.699  0.0000E+00  0.8000E+01
     -4.627  0.0000E+00  0.8000E+01
     -4.555  0.0000E+00  0.8000E+01
     -4.483  0.0000E+00  0.8000E+01
     -4.411  0.0000E+00  0.8000E+01
     -4.339  0.0000E+00  0.8000E+01
     -4.267  0.0000E+00  0.8000E+01
     -4.195  0.0000E+00  0.8000E+01
     -4.123  0.0000E+00  0.8000E+01
     -4.052  0.0000E+00  0.8000E+01
     -3.980  0.0000E+00  0.8000E+01
     -3.908  0.0000E+00  0.8000E+01
     -3.836  0.0000E+00  0.8000E+01
     -3.764  0.0000E+00  0.8000E+01
     -3.692  0.0000E+00  0.8000E+01
     -3.620  0.0000E+00  0.8000E+01
     -3.548  0.0000E+00  0.8000E+01
     -3.476  0.0000E+00  0.8000E+01
     -3.404  0.0000E+00  0.8000E+01
     -3.332  0.0000E+00  0.8000E+01
     -3.260  0.0000E+00  0.8000E+01
     -3.189  0.0000E+00  0.8000E+01
     -3.117  0.0000E+00  0.8000E+01
     -3.045  0.0000E+00  0.8000E+01
     -2.973  0.0000E+00  0.8000E+01
     -2.901  0.0000E+00  0.8000E+01
     -2.829  0.0000E+00  0.8000E+01
     -2.757  0.0000E+00  0.8000E+01
     -2.685  0.0000E+00  0.8000E+01
     -2.613  0.0000E+00  0.8000E+01
     -2.541  0.0000E+00  0.8000E+01
     -2.469  0.0000E+00  0.8000E+01
     -2.397  0.0000E+00  0.8000E+01
     -2.325  0.0000E+00  0.8000E+01
     -2.254  0.0000E+00  0.8000E+01
     -2.182  0.0000E+00  0.8000E+01
     -2.110  0.0000E+00  0.8000E+01
     -2.038  0.0000E+00  0.8000E+01
     -1.966 -0.2049E-27  0.8000E+01
     -1.894 -0.6425E-25  0.8000E+01
     -1.822 -0.1556E-22  0.8000E+01
     -1.750 -0.2903E-20  0.8000E+01
     -1.678 -0.4171E-18  0.8000E+01
     -1.606 -0.4613E-16  0.8000E+01
     -1.534 -0.3924E-14  0.8000E+01
     -1.462 -0.2486E-12  0.8000E+01
     -1.391 -0.1246E-10  0.8000E+01
     -1.319 -0.4785E-09  0.8000E+01
     -1.247 -0.1407E-07  0.8000E+01
     -1.175 -0.3161E-06  0.8000E+01
     -1.103 -0.5416E-05  0.8000E+01
     -1.031 -0.7046E-04  0.8000E+01
     -0.959 -0.6926E-03  0.8000E+01
     -0.887 -0.5100E-02  0.8000E+01
     -0.815 -0.2775E-01  0.7998E+01
     -0.743 -0.1088E+00  0.7990E+01
     -0.671 -0.2900E+00  0.7969E+01
     -0.599 -0.4380E+00  0.7937E+01
     -0.528  0.4522E-01  0.7941E+01
     -0.456  0.2014E+01  0.8085E+01
     -0.384  0.5335E+01  0.8469E+01
     -0.312  0.7996E+01  0.9044E+01
     -0.240  0.7754E+01  0.9602E+01
     -0.168  0.4829E+01  0.9949E+01
     -0.096  0.1619E+01  0.1007E+02
     -0.024 -0.1042E+00  0.1006E+02
      0.048 -0.4595E+00  0.1003E+02
      0.120 -0.3627E+00  0.9999E+01
      0.192 -0.4161E+00  0.9969E+01
      0.264 -0.7039E+00  0.9918E+01
      0.335 -0.7215E+00  0.9866E+01
      0.407  0.7839E+00  0.9923E+01
      0.479  0.5207E+01  0.1030E+02
      0.551  0.1237E+02  0.1119E+02
      0.623  0.1923E+02  0.1257E+02
      0.695  0.2139E+02  0.1411E+02
      0.767  0.1703E+02  0.1533E+02
      0.839  0.9081E+01  0.1599E+02
      0.911  0.2446E+01  0.1616E+02
      0.983 -0.5651E+00  0.1612E+02
      1.055 -0.9450E+00  0.1605E+02
      1.127 -0.5111E+00  0.1602E+02
      1.198 -0.1737E+00  0.1600E+02
      1.270 -0.4145E-01  0.1600E+02
      1.342 -0.7239E-02  0.1600E+02
      1.414 -0.9428E-03  0.1600E+02
      1.486 -0.9258E-04  0.1600E+02
      1.558 -0.6901E-05  0.1600E+02
      1.630 -0.3922E-06  0.1600E+02
      1.702 -0.1705E-07  0.1600E+02
      1.774 -0.5680E-09  0.1600E+02
      1.846 -0.1452E-10  0.1600E+02
      1.918 -0.2887E-12  0.1600E+02
      1.990 -0.4631E-14  0.1600E+02
      2.061  0.0000E+00  0.1600E+02
      2.133  0.0000E+00  0.1600E+02
      2.205  0.0000E+00  0.1600E+02
      2.277  0.0000E+00  0.1600E+02
      2.349  0.0000E+00  0.1600E+02
      2.421  0.0000E+00  0.1600E+02
      2.493  0.0000E+00  0.1600E+02
      2.565  0.0000E+00  0.1600E+02
      2.637  0.0000E+00  0.1600E+02
      2.709  0.0000E+00  0.1600E+02
      2.70964970    -18.80815356  301     -8.98800378      1.00000000
    -18.808  0.0000E+00  0.0000E+00
    -18.736  0.0000E+00  0.0000E+00
    -18.665  0.0000E+00  0.0000E+00
    -18.593  0.0000E+00  0.0000E+00
    -18.521  0.0000E+00  0.0000E+00
    -18.450 -0.3613E-27 -0.2591E-28
    -18.378 -0.1091E-24 -0.7848E-26
    -18.306 -0.2546E-22 -0.1834E-23
    -18.234 -0.4584E-20 -0.3306E-21
    -18.163 -0.6362E-18 -0.4596E-19
    -18.091 -0.6805E-16 -0.4927E-17
    -18.019 -0.5607E-14 -0.4071E-15
    -17.947 -0.3448E-12 -0.2514E-13
    -17.876 -0.1675E-10 -0.1227E-11
    -17.804 -0.6248E-09 -0.4604E-10
    -17.732 -0.1787E-07 -0.1328E-08
    -17.661 -0.3910E-06 -0.2937E-07
    -17.589 -0.6529E-05 -0.4976E-06
    -17.517 -0.8288E-04 -0.6442E-05
    -17.445 -0.7955E-03 -0.6350E-04
    -17.374 -0.5724E-02 -0.4741E-03
    -17.302 -0.3044E-01 -0.2657E-02
    -17.230 -0.1165E+00 -0.1102E-01
    -17.158 -0.3025E+00 -0.3271E-01
    -17.087 -0.4369E+00 -0.6405E-01
    -17.015  0.1026E+00 -0.5668E-01
    -16.943  0.2153E+01  0.9772E-01
    -16.872  0.5496E+01  0.4919E+00
    -16.800  0.8061E+01  0.1070E+01
    -16.728  0.7678E+01  0.1621E+01
    -16.656  0.4693E+01  0.1957E+01
    -16.585  0.1525E+01  0.2067E+01
    -16.513 -0.1311E+00  0.2057E+01
    -16.441 -0.4342E+00  0.2026E+01
    -16.369 -0.2526E+00  0.2008E+01
    -16.298 -0.8817E-01  0.2002E+01
    -16.226 -0.2127E-01  0.2000E+01
    -16.154 -0.3723E-02  0.2000E+01
    -16.083 -0.4836E-03  0.2000E+01
    -16.011 -0.4721E-04  0.2000E+01
    -15.939 -0.3489E-05  0.2000E+01
    -15.867 -0.1962E-06  0.2000E+01
    -15.796 -0.8427E-08  0.2000E+01
    -15.724 -0.2771E-09  0.2000E+01
    -15.652 -0.6987E-11  0.2000E+01
    -15.580 -0.1362E-12  0.2000E+01
    -15.509  0.0000E+00  0.2000E+01
    -15.437  0.0000E+00  0.2000E+01
    -15.365  0.0000E+00  0.2000E+01
    -15.294  0.0000E+00  0.2000E+01
    -15.222  0.0000E+00  0.2000E+01
    -15.150  0.0000E+00  0.2000E+01
    -15.078  0.0000E+00  0.2000E+01
    -15.007  0.0000E+00  0.2000E+01
    -14.935  0.0000E+00  0.2000E+01
    -14.863  0.0000E+00  0.2000E+01
    -14.791  0.0000E+00  0.2000E+01
    -14.720  0.0000E+00  0.2000E+01
    -14.648  0.0000E+00  0.2000E+01
    -14.576  0.0000E+00  0.2000E+01
    -14.505  0.0000E+00  0.2000E+01
    -14.433  0.0000E+00  0.2000E+01
    -14.361  0.0000E+00  0.2000E+01
    -14.289  0.0000E+00  0.2000E+01
    -14.218  0.0000E+00  0.2000E+01
    -14.146  0.0000E+00  0.2000E+01
    -14.074  0.0000E+00  0.2000E+01
    -14.003  0.0000E+00  0.2000E+01
    -13.931  0.0000E+00  0.2000E+01
    -13.859  0.0000E+00  0.2000E+01
    -13.787  0.0000E+00  0.2000E+01
    -13.716  0.0000E+00  0.2000E+01
    -13.644  0.0000E+00  0.2000E+01
    -13.572  0.0000E+00  0.2000E+01
    -13.500  0.0000E+00  0.2000E+01
    -13.429  0.0000E+00  0.2000E+01
    -13.357  0.0000E+00  0.2000E+01
    -13.285  0.0000E+00  0.2000E+01
    -13.214  0.0000E+00  0.2000E+01
    -13.142  0.0000E+00  0.2000E+01
    -13.070  0.0000E+00  0.2000E+01
    -12.998  0.0000E+00  0.2000E+01
    -12.927  0.0000E+00  0.2000E+01
    -12.855  0.0000E+00  0.2000E+01
    -12.783  0.0000E+00  0.2000E+01
    -12.711  0.0000E+00  0.2000E+01
    -12.640  0.0000E+00  0.2000E+01
    -12.568  0.0000E+00  0.2000E+01
    -12.496  0.0000E+00  0.2000E+01
    -12.425  0.0000E+00  0.2000E+01
    -12.353  0.0000E+00  0.2000E+01
    -12.281  0.0000E+00  0.2000E+01
    -12.209  0.0000E+00  0.2000E+01
    -12.138  0.0000E+00  0.2000E+01
    -12.066  0.0000E+00  0.2000E+01
    -11.994  0.0000E+00  0.2000E+01
    -11.922  0.0000E+00  0.2000E+01
    -11.851  0.0000E+00  0.2000E+01
    -11.779  0.0000E+00  0.2000E+01
    -11.707  0.0000E+00  0.2000E+01
    -11.636  0.0000E+00  0.2000E+01
    -11.564  0.0000E+00  0.2000E+01
    -11.492  0.0000E+00  0.2000E+01
    -11.420  0.0000E+00  0.2000E+01
    -11.349  0.0000E+00  0.2000E+01
    -11.277  0.0000E+00  0.2000E+01
    -11.205  0.0000E+00  0.2000E+01
    -11.133  0.0000E+00  0.2000E+01
    -11.062 -0.5996E-28  0.2000E+01
    -10.990 -0.1959E-25  0.2000E+01
    -10.918 -0.4952E-23  0.2000E+01
    -10.847 -0.9651E-21  0.2000E+01
    -10.775 -0.1450E-18  0.2000E+01
    -10.703 -0.1680E-16  0.2000E+01
    -10.631 -0.1499E-14  0.2000E+01
    -10.560 -0.9989E-13  0.2000E+01
    -10.488 -0.5264E-11  0.2000E+01
    -10.416 -0.2129E-09  0.2000E+01
    -10.344 -0.6603E-08  0.2000E+01
    -10.273 -0.1568E-06  0.2000E+01
    -10.201 -0.2846E-05  0.2000E+01
    -10.129 -0.3932E-04  0.2000E+01
    -10.058 -0.4116E-03  0.2000E+01
     -9.986 -0.3243E-02  0.2000E+01
     -9.914 -0.1902E-01  0.1998E+01
     -9.842 -0.8145E-01  0.1993E+01
     -9.771 -0.2452E+00  0.1975E+01
     -9.699 -0.4707E+00  0.1941E+01
     -9.627 -0.3543E+00  0.1916E+01
     -9.555  0.9023E+00  0.1980E+01
     -9.484  0.3727E+01  0.2248E+01
     -9.412  0.7379E+01  0.2777E+01
     -9.340  0.1076E+02  0.3549E+01
     -9.269  0.1366E+02  0.4528E+01
     -9.197  0.1580E+02  0.5662E+01
     -9.125  0.1549E+02  0.6773E+01
     -9.053  0.1158E+02  0.7603E+01
     -8.982  0.5832E+01  0.8021E+01
     -8.910  0.1370E+01  0.8120E+01
     -8.838 -0.5109E+00  0.8083E+01
     -8.767 -0.6670E+00  0.8035E+01
     -8.695 -0.3440E+00  0.8011E+01
     -8.623 -0.1144E+00  0.8002E+01
     -8.551 -0.2701E-01  0.8000E+01
     -8.480 -0.4694E-02  0.8000E+01
     -8.408 -0.6107E-03  0.8000E+01
     -8.336 -0.6005E-04  0.8000E+01
     -8.264 -0.4489E-05  0.8000E+01
     -8.193 -0.2561E-06  0.8000E+01
     -8.121 -0.1118E-07  0.8000E+01
     -8.049 -0.3742E-09  0.8000E+01
     -7.978 -0.9614E-11  0.8000E+01
     -7.906 -0.1919E-12  0.8000E+01
     -7.834  0.0000E+00  0.8000E+01
     -7.762  0.0000E+00  0.8000E+01
     -7.691  0.0000E+00  0.8000E+01
     -7.619  0.0000E+00  0.8000E+01
     -7.547  0.0000E+00  0.8000E+01
     -7.475  0.0000E+00  0.8000E+01
     -7.404  0.0000E+00  0.8000E+01
     -7.332  0.0000E+00  0.8000E+01
     -7.260  0.0000E+00  0.8000E+01
     -7.189  0.0000E+00  0.8000E+01
     -7.117  0.0000E+00  0.8000E+01
     -7.045  0.0000E+00  0.8000E+01
     -6.973  0.0000E+00  0.8000E+01
     -6.902  0.0000E+00  0.8000E+01
     -6.830  0.0000E+00  0.8000E+01
     -6.758  0.0000E+00  0.8000E+01
     -6.686  0.0000E+00  0.8000E+01
     -6.615  0.0000E+00  0.8000E+01
     -6.543  0.0000E+00  0.8000E+01
     -6.471  0.0000E+00  0.8000E+01
     -6.400  0.0000E+00  0.8000E+01
     -6.328  0.0000E+00  0.8000E+01
     -6.256  0.0000E+00  0.8000E+01
     -6.184  0.0000E+00  0.8000E+01
     -6.113  0.0000E+00  0.8000E+01
     -6.041  0.0000E+00  0.8000E+01
     -5.969  0.0000E+00  0.8000E+01
     -5.897  0.0000E+00  0.8000E+01
     -5.826  0.0000E+00  0.8000E+01
     -5.754  0.0000E+00  0.8000E+01
     -5.682  0.0000E+00  0.8000E+01
     -5.611  0.0000E+00  0.8000E+01
     -5.539  0.0000E+00  0.8000E+01
     -5.467  0.0000E+00  0.8000E+01
     -5.395  0.0000E+00  0.8000E+01
     -5.324  0.0000E+00  0.8000E+01
     -5.252  0.0000E+00  0.8000E+01
     -5.180  0.0000E+00  0.8000E+01
     -5.108  0.0000E+00  0.8000E+01
     -5.037  0.0000E+00  0.8000E+01
     -4.965  0.0000E+00  0.8000E+01
     -4.893  0.0000E+00  0.8000E+01
     -4.822  0.0000E+00  0.8000E+01
     -4.750  0.0000E+00  0.8000E+01
     -4.678  0.0000E+00  0.8000E+01
     -4.606  0.0000E+00  0.8000E+01
     -4.535  0.0000E+00  0.8000E+01
     -4.463  0.0000E+00  0.8000E+01
     -4.391  0.0000E+00  0.8000E+01
     -4.319  0.0000E+00  0.8000E+01
     -4.248  0.0000E+00  0.8000E+01
     -4.176  0.0000E+00  0.8000E+01
     -4.104  0.0000E+00  0.8000E+01
     -4.033  0.0000E+00  0.8000E+01
     -3.961  0.0000E+00  0.8000E+01
     -3.889  0.0000E+00  0.8000E+01
     -3.817  0.0000E+00  0.8000E+01
     -3.746  0.0000E+00  0.8000E+01
     -3.674  0.0000E+00  0.8000E+01
     -3.602  0.0000E+00  0.8000E+01
     -3.531  0.0000E+00  0.8000E+01
     -3.459  0.0000E+00  0.8000E+01
     -3.387  0.0000E+00  0.8000E+01
     -3.315  0.0000E+00  0.8000E+01
     -3.244  0.0000E+00  0.8000E+01
     -3.172  0.0000E+00  0.8000E+01
     -3.100  0.0000E+00  0.8000E+01
     -3.028  0.0000E+00  0.8000E+01
     -2.957  0.0000E+00  0.8000E+01
     -2.885  0.0000E+00  0.8000E+01
     -2.813  0.0000E+00  0.8000E+01
     -2.742  0.0000E+00  0.8000E+01
     -2.670  0.0000E+00  0.8000E+01
     -2.598  0.0000E+00  0.8000E+01
     -2.526  0.0000E+00  0.8000E+01
     -2.455  0.0000E+00  0.8000E+01
     -2.383  0.0000E+00  0.8000E+01
     -2.311  0.0000E+00  0.8000E+01
     -2.239  0.0000E+00  0.8000E+01
     -2.168  0.0000E+00  0.8000E+01
     -2.096  0.0000E+00  0.8000E+01
     -2.024  0.0000E+00  0.8000E+01
     -1.953 -0.1540E-26  0.8000E+01
     -1.881 -0.4348E-24  0.8000E+01
     -1.809 -0.9495E-22  0.8000E+01
     -1.737 -0.1599E-19  0.8000E+01
     -1.666 -0.2077E-17  0.8000E+01
     -1.594 -0.2079E-15  0.8000E+01
     -1.522 -0.1603E-13  0.8000E+01
     -1.450 -0.9214E-12  0.8000E+01
     -1.379 -0.4190E-10  0.8000E+01
     -1.307 -0.1462E-08  0.8000E+01
     -1.235 -0.3911E-07  0.8000E+01
     -1.164 -0.8000E-06  0.8000E+01
     -1.092 -0.1248E-04  0.8000E+01
     -1.020 -0.1479E-03  0.8000E+01
     -0.948 -0.1323E-02  0.8000E+01
     -0.877 -0.8851E-02  0.7999E+01
     -0.805 -0.4355E-01  0.7996E+01
     -0.733 -0.1528E+00  0.7985E+01
     -0.661 -0.3538E+00  0.7960E+01
     -0.590 -0.4016E+00  0.7931E+01
     -0.518  0.4405E+00  0.7963E+01
     -0.446  0.2894E+01  0.8170E+01
     -0.375  0.6290E+01  0.8621E+01
     -0.303  0.8274E+01  0.9215E+01
     -0.231  0.7116E+01  0.9725E+01
     -0.159  0.3849E+01  0.1000E+02
     -0.088  0.9670E+00  0.1007E+02
     -0.016 -0.2995E+00  0.1005E+02
      0.056 -0.4370E+00  0.1002E+02
      0.128 -0.3309E+00  0.9994E+01
      0.199 -0.4389E+00  0.9963E+01
      0.271 -0.7411E+00  0.9909E+01
      0.343 -0.6275E+00  0.9864E+01
      0.414  0.1228E+01  0.9952E+01
      0.486  0.6094E+01  0.1039E+02
      0.558  0.1341E+02  0.1135E+02
      0.630  0.1984E+02  0.1277E+02
      0.701  0.2112E+02  0.1429E+02
      0.773  0.1608E+02  0.1544E+02
      0.845  0.8109E+01  0.1602E+02
      0.916  0.1912E+01  0.1616E+02
      0.988 -0.6886E+00  0.1611E+02
      1.060 -0.9032E+00  0.1605E+02
      1.132 -0.4625E+00  0.1601E+02
      1.203 -0.1522E+00  0.1600E+02
      1.275 -0.3550E-01  0.1600E+02
      1.347 -0.6089E-02  0.1600E+02
      1.419 -0.7819E-03  0.1600E+02
      1.490 -0.7595E-04  0.1600E+02
      1.562 -0.5616E-05  0.1600E+02
      1.634 -0.3174E-06  0.1600E+02
      1.705 -0.1375E-07  0.1600E+02
      1.777 -0.4579E-09  0.1600E+02
      1.849 -0.1172E-10  0.1600E+02
      1.921 -0.2337E-12  0.1600E+02
      1.992 -0.3096E-14  0.1600E+02
      2.064  0.0000E+00  0.1600E+02
      2.136  0.0000E+00  0.1600E+02
      2.208  0.0000E+00  0.1600E+02
      2.279  0.0000E+00  0.1600E+02
      2.351  0.0000E+00  0.1600E+02
      2.423  0.0000E+00  0.1600E+02
      2.494  0.0000E+00  0.1600E+02
      2.566  0.0000E+00  0.1600E+02
      2.638  0.0000E+00  0.1600E+02
      2.710  0.0000E+00  0.1600E+02
      2.70595092    -18.77523826  301     -8.81740251      1.00000000
    -18.775  0.0000E+00  0.0000E+00
    -18.704  0.0000E+00  0.0000E+00
    -18.632  0.0000E+00  0.0000E+00
    -18.560  0.0000E+00  0.0000E+00
    -18.489  0.0000E+00  0.0000E+00
    -18.417 -0.3444E-27 -0.2466E-28
    -18.346 -0.1032E-24 -0.7415E-26
    -18.274 -0.2394E-22 -0.1722E-23
    -18.202 -0.4286E-20 -0.3086E-21
    -18.131 -0.5922E-18 -0.4271E-19
    -18.059 -0.6310E-16 -0.4561E-17
    -17.988 -0.5184E-14 -0.3758E-15
    -17.916 -0.3173E-12 -0.2310E-13
    -17.844 -0.1544E-10 -0.1129E-11
    -17.773 -0.5759E-09 -0.4237E-10
    -17.701 -0.1648E-07 -0.1223E-08
    -17.630 -0.3613E-06 -0.2710E-07
    -17.558 -0.6050E-05 -0.4603E-06
    -17.486 -0.7710E-04 -0.5981E-05
    -17.415 -0.7437E-03 -0.5923E-04
    -17.343 -0.5385E-02 -0.4448E-03
    -17.272 -0.2886E-01 -0.2512E-02
    -17.200 -0.1116E+00 -0.1051E-01
    -17.128 -0.2941E+00 -0.3157E-01
    -17.057 -0.4386E+00 -0.6297E-01
    -16.985  0.5429E-01 -0.5909E-01
    -16.914  0.2028E+01  0.8615E-01
    -16.842  0.5342E+01  0.4686E+00
    -16.770  0.7997E+01  0.1041E+01
    -16.699  0.7772E+01  0.1598E+01
    -16.627  0.4869E+01  0.1946E+01
    -16.556  0.1658E+01  0.2065E+01
    -16.484 -0.8425E-01  0.2059E+01
    -16.412 -0.4374E+00  0.2028E+01
    -16.341 -0.2647E+00  0.2009E+01
    -16.269 -0.9480E-01  0.2002E+01
    -16.197 -0.2339E-01  0.2000E+01
    -16.126 -0.4184E-02  0.2000E+01
    -16.054 -0.5553E-03  0.2000E+01
    -15.983 -0.5540E-04  0.2000E+01
    -15.911 -0.4188E-05  0.2000E+01
    -15.839 -0.2410E-06  0.2000E+01
    -15.768 -0.1060E-07  0.2000E+01
    -15.696 -0.3573E-09  0.2000E+01
    -15.625 -0.9244E-11  0.2000E+01
    -15.553 -0.1861E-12  0.2000E+01
    -15.481  0.0000E+00  0.2000E+01
    -15.410  0.0000E+00  0.2000E+01
    -15.338  0.0000E+00  0.2000E+01
    -15.267  0.0000E+00  0.2000E+01
    -15.195  0.0000E+00  0.2000E+01
    -15.123  0.0000E+00  0.2000E+01
    -15.052  0.0000E+00  0.2000E+01
    -14.980  0.0000E+00  0.2000E+01
    -14.909  0.0000E+00  0.2000E+01
    -14.837  0.0000E+00  0.2000E+01
    -14.765  0.0000E+00  0.2000E+01
    -14.694  0.0000E+00  0.2000E+01
    -14.622  0.0000E+00  0.2000E+01
    -14.551  0.0000E+00  0.2000E+01
    -14.479  0.0000E+00  0.2000E+01
    -14.407  0.0000E+00  0.2000E+01
    -14.336  0.0000E+00  0.2000E+01
    -14.264  0.0000E+00  0.2000E+01
    -14.193  0.0000E+00  0.2000E+01
    -14.121  0.0000E+00  0.2000E+01
    -14.049  0.0000E+00  0.2000E+01
    -13.978  0.0000E+00  0.2000E+01
    -13.906  0.0000E+00  0.2000E+01
    -13.835  0.0000E+00  0.2000E+01
    -13.763  0.0000E+00  0.2000E+01
    -13.691  0.0000E+00  0.2000E+01
    -13.620  0.0000E+00  0.2000E+01
    -13.548  0.0000E+00  0.2000E+01
    -13.477  0.0000E+00  0.2000E+01
    -13.405  0.0000E+00  0.2000E+01
    -13.333  0.0000E+00  0.2000E+01
    -13.262  0.0000E+00  0.2000E+01
    -13.190  0.0000E+00  0.2000E+01
    -13.119  0.0000E+00  0.2000E+01
    -13.047  0.0000E+00  0.2000E+01
    -12.975  0.0000E+00  0.2000E+01
    -12.904  0.0000E+00  0.2000E+01
    -12.832  0.0000E+00  0.2000E+01
    -12.761  0.0000E+00  0.2000E+01
    -12.689  0.0000E+00  0.2000E+01
    -12.617  0.0000E+00  0.2000E+01
    -12.546  0.0000E+00  0.2000E+01
    -12.474  0.0000E+00  0.2000E+01
    -12.402  0.0000E+00  0.2000E+01
    -12.331  0.0000E+00  0.2000E+01
    -12.259  0.0000E+00  0.2000E+01
    -12.188  0.0000E+00  0.2000E+01
    -12.116  0.0000E+00  0.2000E+01
    -12.044  0.0000E+00  0.2000E+01
    -11.973  0.0000E+00  0.2000E+01
    -11.901  0.0000E+00  0.2000E+01
    -11.830  0.0000E+00  0.2000E+01
    -11.758  0.0000E+00  0.2000E+01
    -11.686  0.0000E+00  0.2000E+01
    -11.615  0.0000E+00  0.2000E+01
    -11.543  0.0000E+00  0.2000E+01
    -11.472  0.0000E+00  0.2000E+01
    -11.400  0.0000E+00  0.2000E+01
    -11.328  0.0000E+00  0.2000E+01
    -11.257  0.0000E+00  0.2000E+01
    -11.185 -0.4425E-28  0.2000E+01
    -11.114 -0.1452E-25  0.2000E+01
    -11.042 -0.3685E-23  0.2000E+01
    -10.970 -0.7222E-21  0.2000E+01
    -10.899 -0.1092E-18  0.2000E+01
    -10.827 -0.1274E-16  0.2000E+01
    -10.756 -0.1147E-14  0.2000E+01
    -10.684 -0.7639E-13  0.2000E+01
    -10.612 -0.4106E-11  0.2000E+01
    -10.541 -0.1679E-09  0.2000E+01
    -10.469 -0.5270E-08  0.2000E+01
    -10.398 -0.1268E-06  0.2000E+01
    -10.326 -0.2334E-05  0.2000E+01
    -10.254 -0.3273E-04  0.2000E+01
    -10.183 -0.3482E-03  0.2000E+01
    -10.111 -0.2790E-02  0.2000E+01
    -10.040 -0.1664E-01  0.1999E+01
     -9.968 -0.7245E-01  0.1993E+01
     -9.896 -0.2206E+00  0.1978E+01
     -9.825 -0.4188E+00  0.1948E+01
     -9.753 -0.2510E+00  0.1930E+01
     -9.682  0.1122E+01  0.2010E+01
     -9.610  0.4042E+01  0.2299E+01
     -9.538  0.7070E+01  0.2806E+01
     -9.467  0.7773E+01  0.3362E+01
     -9.395  0.5754E+01  0.3774E+01
     -9.324  0.3717E+01  0.4040E+01
     -9.252  0.4337E+01  0.4351E+01
     -9.180  0.7197E+01  0.4866E+01
     -9.109  0.9920E+01  0.5577E+01
     -9.037  0.1105E+02  0.6368E+01
     -8.965  0.1038E+02  0.7111E+01
     -8.894  0.7910E+01  0.7677E+01
     -8.822  0.4336E+01  0.7988E+01
     -8.751  0.1262E+01  0.8078E+01
     -8.679 -0.2386E+00  0.8061E+01
     -8.607 -0.4706E+00  0.8028E+01
     -8.536 -0.2652E+00  0.8009E+01
     -8.464 -0.9243E-01  0.8002E+01
     -8.393 -0.2245E-01  0.8000E+01
     -8.321 -0.3970E-02  0.8000E+01
     -8.249 -0.5219E-03  0.8000E+01
     -8.178 -0.5162E-04  0.8000E+01
     -8.106 -0.3870E-05  0.8000E+01
     -8.035 -0.2210E-06  0.8000E+01
     -7.963 -0.9645E-08  0.8000E+01
     -7.891 -0.3225E-09  0.8000E+01
     -7.820 -0.8278E-11  0.8000E+01
     -7.748 -0.1644E-12  0.8000E+01
     -7.677  0.0000E+00  0.8000E+01
     -7.605  0.0000E+00  0.8000E+01
     -7.533  0.0000E+00  0.8000E+01
     -7.462  0.0000E+00  0.8000E+01
     -7.390  0.0000E+00  0.8000E+01
     -7.319  0.0000E+00  0.8000E+01
     -7.247  0.0000E+00  0.8000E+01
     -7.175  0.0000E+00  0.8000E+01
     -7.104  0.0000E+00  0.8000E+01
     -7.032  0.0000E+00  0.8000E+01
     -6.961  0.0000E+00  0.8000E+01
     -6.889  0.0000E+00  0.8000E+01
     -6.817  0.0000E+00  0.8000E+01
     -6.746  0.0000E+00  0.8000E+01
     -6.674  0.0000E+00  0.8000E+01
     -6.603  0.0000E+00  0.8000E+01
     -6.531  0.0000E+00  0.8000E+01
     -6.459  0.0000E+00  0.8000E+01
     -6.388  0.0000E+00  0.8000E+01
     -6.316  0.0000E+00  0.8000E+01
     -6.245  0.0000E+00  0.8000E+01
     -6.173  0.0000E+00  0.8000E+01
     -6.101  0.0000E+00  0.8000E+01
     -6.030  0.0000E+00  0.8000E+01
     -5.958  0.0000E+00  0.8000E+01
     -5.887  0.0000E+00  0.8000E+01
     -5.815  0.0000E+00  0.8000E+01
     -5.743  0.0000E+00  0.8000E+01
     -5.672  0.0000E+00  0.8000E+01
     -5.600  0.0000E+00  0.8000E+01
     -5.529  0.0000E+00  0.8000E+01
     -5.457  0.0000E+00  0.8000E+01
     -5.385  0.0000E+00  0.8000E+01
     -5.314  0.0000E+00  0.8000E+01
     -5.242  0.0000E+00  0.8000E+01
     -5.170  0.0000E+00  0.8000E+01
     -5.099  0.0000E+00  0.8000E+01
     -5.027  0.0000E+00  0.8000E+01
     -4.956  0.0000E+00  0.8000E+01
     -4.884  0.0000E+00  0.8000E+01
     -4.812  0.0000E+00  0.8000E+01
     -4.741  0.0000E+00  0.8000E+01
     -4.669  0.0000E+00  0.8000E+01
     -4.598  0.0000E+00  0.8000E+01
     -4.526  0.0000E+00  0.8000E+01
     -4.454  0.0000E+00  0.8000E+01
     -4.383  0.0000E+00  0.8000E+01
     -4.311  0.0000E+00  0.8000E+01
     -4.240  0.0000E+00  0.8000E+01
     -4.168  0.0000E+00  0.8000E+01
     -4.096  0.0000E+00  0.8000E+01
     -4.025  0.0000E+00  0.8000E+01
     -3.953  0.0000E+00  0.8000E+01
     -3.882  0.0000E+00  0.8000E+01
     -3.810  0.0000E+00  0.8000E+01
     -3.738  0.0000E+00  0.8000E+01
     -3.667  0.0000E+00  0.8000E+01
     -3.595  0.0000E+00  0.8000E+01
     -3.524  0.0000E+00  0.8000E+01
     -3.452  0.0000E+00  0.8000E+01
     -3.380  0.0000E+00  0.8000E+01
     -3.309  0.0000E+00  0.8000E+01
     -3.237  0.0000E+00  0.8000E+01
     -3.166  0.0000E+00  0.8000E+01
     -3.094  0.0000E+00  0.8000E+01