    5    5    1    1
  0.2009700E+03  0.9929188E-09  0.1015332E-08  0.9974726E-09  0.2000000E-14
   50.000000000000000     
  CAR 
 unknown system                          
      8      4      8

  0.2500000E+00  0.2500000E+00  0.2500000E+00  0.2500000E+00
    1      -16.693082   1.000000
    2       -9.425194   1.000143
    3       -9.071286   1.034591
    4       -8.983844   0.965353
    5       -0.327124   0.000000
    6        0.536317   0.000000
    7        0.649360   0.000000
    8        0.688105   0.000000

 -0.2500000E+00  0.2500000E+00  0.2500000E+00  0.2500000E+00
    1      -16.693056   1.000000
    2       -9.425031   1.000144
    3       -9.071163   1.034576
    4       -8.983796   0.965273
    5       -0.331131   0.000000
    6        0.542609   0.000000
    7        0.657673   0.000000
    8        0.695345   0.000000

  0.2500000E+00 -0.2500000E+00  0.2500000E+00  0.2500000E+00
    1      -16.693027   1.000000
    2       -9.425093   1.000143
    3       -9.071283   1.034591
    4       -8.983765   0.965220
    5       -0.337588   0.000000
    6        0.556692   0.000000
    7        0.677922   0.000000
    8        0.709536   0.000000

 -0.2500000E+00 -0.2500000E+00  0.2500000E+00  0.2500000E+00
    1      -16.693017   1.000000
    2       -9.425103   1.000143
    3       -9.071251   1.034587
    4       -8.983774   0.965235
    5       -0.330757   0.000000
    6        0.552688   0.000000
    7        0.652622   0.000000
    8        0.689285   0.000000
