 vasp.5.4.4.18Apr17-6-g9f103f2a35 (build Jul 12 2018 13:43:46) complex           
 executed on             LinuxGNU date 2019.06.22  02:17:35
 running on    1 total cores
 distrk:  each k-point on    1 cores,    1 groups
 distr:  one band on NCORES_PER_BAND=   1 cores,    1 groups


--------------------------------------------------------------------------------------------------------


 INCAR:
 POTCAR:    PAW_PBE H 15Jun2001                   
 POTCAR:    PAW_PBE C 08Apr2002                   
 POTCAR:    PAW_PBE H 15Jun2001                   
   VRHFIN =H: ultrasoft test                                                    
   LEXCH  = PE                                                                  
   EATOM  =    12.4884 eV,    0.9179 Ry                                         
                                                                                
   TITEL  = PAW_PBE H 15Jun2001                                                 
   LULTRA =        F    use ultrasoft PP ?                                      
   IUNSCR =        0    unscreen: 0-lin 1-nonlin 2-no                           
   RPACOR =    0.000    partial core radius                                     
   POMASS =    1.000; ZVAL   =    1.000    mass and valenz                      
   RCORE  =    1.100    outmost cutoff radius                                   
   RWIGS  =    0.700; RWIGS  =    0.370    wigner-seitz radius (au A)           
   ENMAX  =  250.000; ENMIN  =  200.000 eV                                      
   RCLOC  =    0.701    cutoff for local pot                                    
   LCOR   =        T    correct aug charges                                     
   LPAW   =        T    paw PP                                                  
   EAUG   =  400.000                                                            
   RMAX   =    1.123    core radius for proj-oper                               
   RAUG   =    1.200    factor for augmentation sphere                          
   RDEP   =    1.112    radius for radial grids                                 
   RDEPT  =    0.926    core radius for aug-charge                              
                                                                                
   Atomic configuration                                                         
    2 entries                                                                   
     n  l   j            E        occ.                                          
     1  0  0.50        -6.4927   1.0000                                         
     2  1  0.50        -3.4015   0.0000                                         
   Description                                                                  
     l       E           TYP  RCUT    TYP  RCUT                                 
     0     -6.4927494     23  1.100                                             
     0      6.8029130     23  1.100                                             
     1     -4.0817478     23  1.100                                             
  local pseudopotential read in
  atomic valenz-charges read in
  non local Contribution for L=           0  read in
    real space projection operators read in
  non local Contribution for L=           0  read in
    real space projection operators read in
  non local Contribution for L=           1  read in
    real space projection operators read in
    PAW grid and wavefunctions read in

   number of l-projection  operators is LMAX  =           3
   number of lm-projection operators is LMMAX =           5

 POTCAR:    PAW_PBE C 08Apr2002                   
   VRHFIN =C: s2p2                                                              
   LEXCH  = PE                                                                  
   EATOM  =   147.1560 eV,   10.8157 Ry                                         
                                                                                
   TITEL  = PAW_PBE C 08Apr2002                                                 
   LULTRA =        F    use ultrasoft PP ?                                      
   IUNSCR =        1    unscreen: 0-lin 1-nonlin 2-no                           
   RPACOR =    1.200    partial core radius                                     
   POMASS =   12.011; ZVAL   =    4.000    mass and valenz                      
   RCORE  =    1.500    outmost cutoff radius                                   
   RWIGS  =    1.630; RWIGS  =    0.863    wigner-seitz radius (au A)           
   ENMAX  =  400.000; ENMIN  =  300.000 eV                                      
   ICORE  =        2    local potential                                         
   LCOR   =        T    correct aug charges                                     
   LPAW   =        T    paw PP                                                  
   EAUG   =  644.873                                                            
   DEXC   =    0.000                                                            
   RMAX   =    1.529    core radius for proj-oper                               
   RAUG   =    1.300    factor for augmentation sphere                          
   RDEP   =    1.501    radius for radial grids                                 
   RDEPT  =    1.300    core radius for aug-charge                              
                                                                                
   Atomic configuration                                                         
    4 entries                                                                   
     n  l   j            E        occ.                                          
     1  0  0.50      -273.3789   2.0000                                         
     2  0  0.50       -13.7508   2.0000                                         
     2  1  0.50        -5.2854   2.0000                                         
     3  2  1.50        -5.4423   0.0000                                         
   Description                                                                  
     l       E           TYP  RCUT    TYP  RCUT                                 
     0    -13.7508458     23  1.200                                             
     0     -8.2022199     23  1.200                                             
     1     -5.2854383     23  1.500                                             
     1     34.0145650     23  1.500                                             
     2     -5.4423304      7  1.500                                             
  local pseudopotential read in
  partial core-charges read in
  partial kinetic energy density read in
  atomic valenz-charges read in
  non local Contribution for L=           0  read in
    real space projection operators read in
  non local Contribution for L=           0  read in
    real space projection operators read in
  non local Contribution for L=           1  read in
    real space projection operators read in
  non local Contribution for L=           1  read in
    real space projection operators read in
    PAW grid and wavefunctions read in

   number of l-projection  operators is LMAX  =           4
   number of lm-projection operators is LMMAX =           8


 ----------------------------------------------------------------------------- 
|                                                                             |
|  ADVICE TO THIS USER RUNNING 'VASP/VAMP'   (HEAR YOUR MASTER'S VOICE ...):  |
|                                                                             |
|      You have a (more or less) 'small supercell' and for smaller cells      |
|      it is recommended  to use the reciprocal-space projection scheme!      |
|      The real space optimization is not  efficient for small cells and it   |
|      is also less accurate ...                                              |
|      Therefore set LREAL=.FALSE. in the  INCAR file                         |
|                                                                             |
 ----------------------------------------------------------------------------- 


 ----------------------------------------------------------------------------- 
|                                                                             |
|           W    W    AA    RRRRR   N    N  II  N    N   GGGG   !!!           |
|           W    W   A  A   R    R  NN   N  II  NN   N  G    G  !!!           |
|           W    W  A    A  R    R  N N  N  II  N N  N  G       !!!           |
|           W WW W  AAAAAA  RRRRR   N  N N  II  N  N N  G  GGG   !            |
|           WW  WW  A    A  R   R   N   NN  II  N   NN  G    G                |
|           W    W  A    A  R    R  N    N  II  N    N   GGGG   !!!           |
|                                                                             |
|     The real-space-projection scheme for the treatment of the nonlocal      |
|     pseudopotentials has been switched on -- but on file POTCAR I have      |
|     not found any entries signalling me that you have ever performed a      |
|     real-space optimization of all nonlocal projectors! BE WARNED that      |
|     a calculation using the real-space-projection scheme together with      |
|     nonlocal projectors which were not real-space-optimized (according      |
|     to the plane-wave-cutoff used in this calculation) might give more      |
|     or less inaccurate results                                              |
|     I hope you know what you are doing                                      |
|                                                                             |
 ----------------------------------------------------------------------------- 

  PAW_PBE H 15Jun2001                   :
 energy of atom  1       EATOM=  -12.4884
 kinetic energy error for atom=    0.0098 (will be added to EATOM!!)
  PAW_PBE C 08Apr2002                   :
 energy of atom  2       EATOM= -147.1560
 kinetic energy error for atom=    0.0288 (will be added to EATOM!!)


 POSCAR:  H  C                                   
  positions in cartesian coordinates
  No initial velocities read in
 exchange correlation table for  LEXCH =        8
   RHO(1)=    0.500       N(1)  =     2000
   RHO(2)=  100.500       N(2)  =     4000



--------------------------------------------------------------------------------------------------------


 ion  position               nearest neighbor table
   1  0.538  0.407  0.360-   5 1.09
   2  0.394  0.480  0.438-   5 1.10
   3  0.552  0.565  0.443-   5 1.10
   4  0.529  0.417  0.539-   5 1.10
   5  0.504  0.467  0.446-   1 1.09   3 1.10   2 1.10   4 1.10


IMPORTANT INFORMATION: All symmetrisations will be switched off!
NOSYMM: (Re-)initialisation of all symmetry stuff for point group C_1.




Automatic generation of k-mesh.
 generate k-points for:    2    2    2
Space group operators:
 irot       det(A)        alpha          n_x          n_y          n_z        tau_x        tau_y        tau_z
    1     1.000000     0.000000     1.000000     0.000000     0.000000     0.000000     0.000000     0.000000
 
 Subroutine IBZKPT returns following result:
 ===========================================
 
 Found      4 irreducible k-points:
 
 Following reciprocal coordinates:
            Coordinates               Weight
  0.250000  0.250000  0.250000      2.000000
 -0.250000  0.250000  0.250000      2.000000
  0.250000 -0.250000  0.250000      2.000000
 -0.250000 -0.250000  0.250000      2.000000
 
 Following cartesian coordinates:
            Coordinates               Weight
  0.025178  0.025344  0.025518      2.000000
 -0.025178  0.023920  0.025858      2.000000
  0.025178 -0.023920  0.024285      2.000000
 -0.025178 -0.025344  0.024626      2.000000
 


--------------------------------------------------------------------------------------------------------




 Dimension of arrays:
   k-points           NKPTS =      4   k-points in BZ     NKDIM =      4   number of bands    NBANDS=      8
   number of dos      NEDOS =    301   number of ions     NIONS =      5
   non local maximal  LDIM  =      4   non local SUM 2l+1 LMDIM =      8
   total plane-waves  NPLWV = 343000
   max r-space proj   IRMAX =    807   max aug-charges    IRDMAX=   4227
   dimension x,y,z NGX =    70 NGY =   70 NGZ =   70
   dimension x,y,z NGXF=   140 NGYF=  140 NGZF=  140
   support grid    NGXF=   140 NGYF=  140 NGZF=  140
   ions per type =               4   1
   NGX,Y,Z   is equivalent  to a cutoff of  11.72, 11.46, 11.67 a.u.
   NGXF,Y,Z  is equivalent  to a cutoff of  23.44, 22.92, 23.33 a.u.

 SYSTEM =  unknown system                          
 POSCAR =   H  C                                   

 Startparameter for this run:
   NWRITE =      2    write-flag & timer
   PREC   = a         normal or accurate (medium, high low for compatibility)
   ISTART =      0    job   : 0-new  1-cont  2-samecut
   ICHARG =      2    charge: 1-file 2-atom 10-const
   ISPIN  =      1    spin polarized calculation?
   LNONCOLLINEAR =      F non collinear calculations
   LSORBIT =      F    spin-orbit coupling
   INIWAV =      1    electr: 0-lowe 1-rand  2-diag
   LASPH  =      F    aspherical Exc in radial PAW
   METAGGA=      F    non-selfconsistent MetaGGA calc.

 Electronic Relaxation 1
   ENCUT  =  400.0 eV  29.40 Ry    5.42 a.u.  16.19 16.56 16.27*2*pi/ulx,y,z
   ENINI  =  400.0     initial cutoff
   ENAUG  =  644.9 eV  augmentation charge cutoff
   NELM   =     60;   NELMIN=  2; NELMDL= -5     # of ELM steps 
   EDIFF  = 0.1E-05   stopping-criterion for ELM
   LREAL  =      T    real-space projection
   NLSPLINE    = F    spline interpolate recip. space projectors
   LCOMPAT=      F    compatible to vasp.4.4
   GGA_COMPAT  = T    GGA compatible to vasp.4.4-vasp.4.6
   LMAXPAW     = -100 max onsite density
   LMAXMIX     =    2 max onsite mixed and CHGCAR
   VOSKOWN=      0    Vosko Wilk Nusair interpolation
   ROPT   =    0.00000   0.00000
 Ionic relaxation
   EDIFFG = 0.1E-04   stopping-criterion for IOM
   NSW    =     10    number of steps for IOM
   NBLOCK =      1;   KBLOCK =      1    inner block; outer block 
   IBRION =      0    ionic relax: 0-MD 1-quasi-New 2-CG
   NFREE  =      0    steps in history (QN), initial steepest desc. (CG)
   ISIF   =      2    stress and relaxation
   IWAVPR =     12    prediction:  0-non 1-charg 2-wave 3-comb
   ISYM   =      0    0-nonsym 1-usesym 2-fastsym
   LCORR  =      T    Harris-Foulkes like correction to forces

   POTIM  = 2.0000    time-step for ionic-motion
   TEIN   =   50.0    initial temperature
   TEBEG  =   50.0;   TEEND  =  50.0 temperature during run
   SMASS  =   0.00    Nose mass-parameter (am)
   estimated Nose-frequenzy (Omega)   =  0.79E+14 period in steps = 40.00 mass=   0.123E-29a.u.
   SCALEE = 1.0000    scale energy and forces
   NPACO  =    256;   APACO  = 16.0  distance and # of slots for P.C.
   PSTRESS=    0.0 pullay stress

  Mass of Ions in am
   POMASS =   1.00 12.01
  Ionic Valenz
   ZVAL   =   1.00  4.00
  Atomic Wigner-Seitz radii
   RWIGS  =  -1.00 -1.00
  virtual crystal weights 
   VCA    =   1.00  1.00
   NELECT =       8.0000    total number of electrons
   NUPDOWN=      -1.0000    fix difference up-down

 DOS related values:
   EMIN   =  10.00;   EMAX   =-10.00  energy-range for DOS
   EFERMI =   0.00
   ISMEAR =     1;   SIGMA  =   0.20  broadening in eV -4-tet -1-fermi 0-gaus

 Electronic relaxation 2 (details)
   IALGO  =     68    algorithm
   LDIAG  =      T    sub-space diagonalisation (order eigenvalues)
   LSUBROT=      F    optimize rotation matrix (better conditioning)
   TURBO    =      0    0=normal 1=particle mesh
   IRESTART =      0    0=no restart 2=restart with 2 vectors
   NREBOOT  =      0    no. of reboots
   NMIN     =      0    reboot dimension
   EREF     =   0.00    reference energy to select bands
   IMIX   =      4    mixing-type and parameters
     AMIX     =   0.40;   BMIX     =  1.00
     AMIX_MAG =   1.60;   BMIX_MAG =  1.00
     AMIN     =   0.10
     WC   =   100.;   INIMIX=   1;  MIXPRE=   1;  MAXMIX=  50

 Intra band minimization:
   WEIMIN = 0.0010     energy-eigenvalue tresh-hold
   EBREAK =  0.31E-07  absolut break condition
   DEPER  =   0.30     relativ break condition  

   TIME   =   0.40     timestep for ELM

  volume/ion in A,a.u.               =     200.97      1356.21
  Fermi-wavevector in a.u.,A,eV,Ry     =   0.326892  0.617737  1.453897  0.106858
  Thomas-Fermi vector in A             =   1.219147

 Write flags
   LWAVE        =      F    write WAVECAR
   LDOWNSAMPLE  =      F    k-point downsampling of WAVECAR
   LCHARG       =      F    write CHGCAR
   LVTOT        =      F    write LOCPOT, total local potential
   LVHAR        =      F    write LOCPOT, Hartree potential only
   LELF         =      F    write electronic localiz. function (ELF)
   LORBIT       =      0    0 simple, 1 ext, 2 COOP (PROOUT), +10 PAW based schemes


 Dipole corrections
   LMONO  =      F    monopole corrections only (constant potential shift)
   LDIPOL =      F    correct potential (dipole corrections)
   IDIPOL =      0    1-x, 2-y, 3-z, 4-all directions 
   EPSILON=  1.0000000 bulk dielectric constant

 Exchange correlation treatment:
   GGA     =    --    GGA type
   LEXCH   =     8    internal setting for exchange type
   VOSKOWN=      0    Vosko Wilk Nusair interpolation
   LHFCALC =     F    Hartree Fock is set to
   LHFONE  =     F    Hartree Fock one center treatment
   AEXX    =    0.0000 exact exchange contribution

 Linear response parameters
   LEPSILON=     F    determine dielectric tensor
   LRPA    =     F    only Hartree local field effects (RPA)
   LNABLA  =     F    use nabla operator in PAW spheres
   LVEL    =     F    velocity operator in full k-point grid
   LINTERFAST=   F  fast interpolation
   KINTER  =     0    interpolate to denser k-point grid
   CSHIFT  =0.1000    complex shift for real part using Kramers Kronig
   OMEGAMAX=  -1.0    maximum frequency
   DEG_THRESHOLD= 0.2000000E-02 threshold for treating states as degnerate
   RTIME   =   -0.100 relaxation time in fs
  (WPLASMAI=    0.000 imaginary part of plasma frequency in eV, 0.658/RTIME)
   DFIELD  = 0.0000000 0.0000000 0.0000000 field for delta impulse in time

 Orbital magnetization related:
   ORBITALMAG=     F  switch on orbital magnetization
   LCHIMAG   =     F  perturbation theory with respect to B field
   DQ        =  0.001000  dq finite difference perturbation B field
   LLRAUG    =     F  two centre corrections for induced B field



--------------------------------------------------------------------------------------------------------


 molecular dynamics for ions
   using nose mass (canonical ensemble)
 charge density and potential will be updated during run
 non-spin polarized calculation
 RMM-DIIS sequential band-by-band and
  variant of blocked Davidson during initial phase
 perform sub-space diagonalisation
    before iterative eigenvector-optimisation
 modified Broyden-mixing scheme, WC =      100.0
 initial mixing is a Kerker type mixing with AMIX =  0.4000 and BMIX =      1.0000
 Hartree-type preconditioning will be used
 using additional bands            4
 real space projection scheme for non local part
 use partial core corrections
 calculate Harris-corrections to forces   (improved forces if not selfconsistent)
 use gradient corrections 
 use of overlap-Matrix (Vanderbilt PP)
 Methfessel and Paxton  Order N= 1 SIGMA  =   0.20


--------------------------------------------------------------------------------------------------------


  energy-cutoff  :      400.00
  volume of cell :     1004.85
      direct lattice vectors                 reciprocal lattice vectors
     9.929188456  0.000000000  0.000000000     0.100713165  0.002848455 -0.000681651
    -0.287049944 10.149259953  0.000000000    -0.000000000  0.098529351  0.002464240
     0.074541730 -0.249385062  9.971329343     0.000000000 -0.000000000  0.100287531

  length of vectors
     9.929188456 10.153318436  9.974725974     0.100755744  0.098560162  0.100287531



 k-points in units of 2pi/SCALE and weight: read from INCAR                         
   0.02517829  0.02534445  0.02551753       0.250
  -0.02517829  0.02392022  0.02585836       0.250
   0.02517829 -0.02392022  0.02428541       0.250
  -0.02517829 -0.02534445  0.02462624       0.250

 k-points in reciprocal lattice and weights: read from INCAR                         
   0.25000000  0.25000000  0.25000000       0.250
  -0.25000000  0.25000000  0.25000000       0.250
   0.25000000 -0.25000000  0.25000000       0.250
  -0.25000000 -0.25000000  0.25000000       0.250

 position of ions in fractional coordinates (direct lattice) 
   0.53822569  0.40675987  0.36048956
   0.39424367  0.47999014  0.43822853
   0.55187985  0.56511508  0.44268268
   0.52860952  0.41667610  0.53883543
   0.50369077  0.46683219  0.44577476

 position of ions in cartesian coordinates  (Angst):
   5.25425540  4.03841095  3.59456015
   3.80940486  4.76225701  4.36972100
   5.35050109  5.62510137  4.41413481
   5.16922237  4.09457658  5.37290551
   4.90046522  4.62683172  4.44496693



--------------------------------------------------------------------------------------------------------


 k-point  1 :   0.2500 0.2500 0.2500  plane waves:   18262
 k-point  2 :  -0.2500 0.2500 0.2500  plane waves:   18231
 k-point  3 :   0.2500-0.2500 0.2500  plane waves:   18238
 k-point  4 :  -0.2500-0.2500 0.2500  plane waves:   18238

 maximum and minimum number of plane-waves per node :     18262    18231

 maximum number of plane-waves:     18262
 maximum index in each direction: 
   IXMAX=   16   IYMAX=   16   IZMAX=   16
   IXMIN=  -16   IYMIN=  -16   IZMIN=  -16


 serial   3D FFT for wavefunctions
 parallel 3D FFT for charge:
    minimum data exchange during FFTs selected (reduces bandwidth)


 total amount of memory used by VASP MPI-rank0   303276. kBytes
=======================================================================

   base      :      30000. kBytes
   nonlr-proj:        167. kBytes
   fftplans  :      94700. kBytes
   grid      :     169030. kBytes
   one-center:         15. kBytes
   wavefun   :       9364. kBytes

     INWAV:  cpu time    0.0000: real time    0.0000
 Broyden mixing: mesh for mixing (old mesh)
   NGX = 33   NGY = 33   NGZ = 33
  (NGX  =140   NGY  =140   NGZ  =140)
  gives a total of  35937 points

 initial charge density was supplied:
 charge density of overlapping atoms calculated
 number of electron       8.0000000 magnetization 
 keeping initial charge density in first step


--------------------------------------------------------------------------------------------------------


 Maximum index for non-local projection operator          733
 Maximum index for augmentation-charges         3917 (set IRDMAX)


--------------------------------------------------------------------------------------------------------


 First call to EWALD:  gamma=   0.177
 Maximum number of real-space cells 3x 3x 3
 Maximum number of reciprocal cells 3x 3x 3

    FEWALD:  cpu time    0.0007: real time    0.0007


--------------------------------------- Iteration      1(   1)  ---------------------------------------


    POTLOK:  cpu time    1.8726: real time    1.8773
    SETDIJ:  cpu time    0.0067: real time    0.0067
     EDDAV:  cpu time    3.0616: real time    3.0688
       DOS:  cpu time    0.0003: real time    0.0003
    --------------------------------------------
      LOOP:  cpu time    4.9412: real time    4.9531

 eigenvalue-minimisations  :    96
 total energy-change (2. order) : 0.1548056E+02  (-0.2016952E+03)
 number of electron       8.0000000 magnetization 
 augmentation part        8.0000000 magnetization 

 Free energy of the ion-electron system (eV)
  ---------------------------------------------------
  alpha Z        PSCENC =         0.24108157
  Ewald energy   TEWEN  =       128.58541595
  -Hartree energ DENC   =      -244.01078090
  -exchange      EXHF   =         0.00000000
  -V(xc)+E(xc)   XCENC  =        22.00171898
  PAW double counting   =       117.05815612     -117.66307307
  entropy T*S    EENTRO =         0.00289895
  eigenvalues    EBANDS =       -87.77661238
  atomic energy  EATOM  =       197.04175453
  Solvation  Ediel_sol  =         0.00000000
  ---------------------------------------------------
  free energy    TOTEN  =        15.48055977 eV

  energy without entropy =       15.47766081  energy(sigma->0) =       15.47959345


--------------------------------------------------------------------------------------------------------




--------------------------------------- Iteration      1(   2)  ---------------------------------------


     EDDAV:  cpu time    2.4064: real time    2.4122
       DOS:  cpu time    0.0002: real time    0.0002
    --------------------------------------------
      LOOP:  cpu time    2.4066: real time    2.4124

 eigenvalue-minimisations  :    72
 total energy-change (2. order) :-0.3858806E+02  (-0.3858806E+02)
 number of electron       8.0000000 magnetization 
 augmentation part        8.0000000 magnetization 

 Free energy of the ion-electron system (eV)
  ---------------------------------------------------
  alpha Z        PSCENC =         0.24108157
  Ewald energy   TEWEN  =       128.58541595
  -Hartree energ DENC   =      -244.01078090
  -exchange      EXHF   =         0.00000000
  -V(xc)+E(xc)   XCENC  =        22.00171898
  PAW double counting   =       117.05815612     -117.66307307
  entropy T*S    EENTRO =         0.00289897
  eigenvalues    EBANDS =      -126.36467412
  atomic energy  EATOM  =       197.04175453
  Solvation  Ediel_sol  =         0.00000000
  ---------------------------------------------------
  free energy    TOTEN  =       -23.10750196 eV

  energy without entropy =      -23.11040093  energy(sigma->0) =      -23.10846829


--------------------------------------------------------------------------------------------------------




--------------------------------------- Iteration      1(   3)  ---------------------------------------


     EDDAV:  cpu time    2.1960: real time    2.2012
       DOS:  cpu time    0.0002: real time    0.0002
    --------------------------------------------
      LOOP:  cpu time    2.1962: real time    2.2014

 eigenvalue-minimisations  :    64
 total energy-change (2. order) :-0.4230577E+01  (-0.4247111E+01)
 number of electron       8.0000000 magnetization 
 augmentation part        8.0000000 magnetization 

 Free energy of the ion-electron system (eV)
  ---------------------------------------------------
  alpha Z        PSCENC =         0.24108157
  Ewald energy   TEWEN  =       128.58541595
  -Hartree energ DENC   =      -244.01078090
  -exchange      EXHF   =         0.00000000
  -V(xc)+E(xc)   XCENC  =        22.00171898
  PAW double counting   =       117.05815612     -117.66307307
  entropy T*S    EENTRO =         0.02824045
  eigenvalues    EBANDS =      -130.62059235
  atomic energy  EATOM  =       197.04175453
  Solvation  Ediel_sol  =         0.00000000
  ---------------------------------------------------
  free energy    TOTEN  =       -27.33807871 eV

  energy without entropy =      -27.36631916  energy(sigma->0) =      -27.34749219


--------------------------------------------------------------------------------------------------------




--------------------------------------- Iteration      1(   4)  ---------------------------------------


     EDDAV:  cpu time    3.9145: real time    3.9238
       DOS:  cpu time    0.0002: real time    0.0002
    --------------------------------------------
      LOOP:  cpu time    3.9147: real time    3.9240

 eigenvalue-minimisations  :   128
 total energy-change (2. order) :-0.1699148E+00  (-0.1694976E+00)
 number of electron       8.0000000 magnetization 
 augmentation part        8.0000000 magnetization 

 Free energy of the ion-electron system (eV)
  ---------------------------------------------------
  alpha Z        PSCENC =         0.24108157
  Ewald energy   TEWEN  =       128.58541595
  -Hartree energ DENC   =      -244.01078090
  -exchange      EXHF   =         0.00000000
  -V(xc)+E(xc)   XCENC  =        22.00171898
  PAW double counting   =       117.05815612     -117.66307307
  entropy T*S    EENTRO =         0.02876728
  eigenvalues    EBANDS =      -130.79103402
  atomic energy  EATOM  =       197.04175453
  Solvation  Ediel_sol  =         0.00000000
  ---------------------------------------------------
  free energy    TOTEN  =       -27.50799355 eV

  energy without entropy =      -27.53676083  energy(sigma->0) =      -27.51758264


--------------------------------------------------------------------------------------------------------




--------------------------------------- Iteration      1(   5)  ---------------------------------------


     EDDAV:  cpu time    3.2230: real time    3.2307
       DOS:  cpu time    0.0002: real time    0.0002
    CHARGE:  cpu time    0.2124: real time    0.2129
    MIXING:  cpu time    0.0425: real time    0.0426
    --------------------------------------------
      LOOP:  cpu time    3.4781: real time    3.4864

 eigenvalue-minimisations  :   104
 total energy-change (2. order) :-0.4812640E-04  (-0.4812767E-04)
 number of electron       8.0000002 magnetization 
 augmentation part        0.2250480 magnetization 

 Broyden mixing:
  rms(total) = 0.87650E+00    rms(broyden)= 0.87631E+00
  rms(prec ) = 0.12366E+01
  weight for this iteration     100.00

 Free energy of the ion-electron system (eV)
  ---------------------------------------------------
  alpha Z        PSCENC =         0.24108157
  Ewald energy   TEWEN  =       128.58541595
  -Hartree energ DENC   =      -244.01078090
  -exchange      EXHF   =         0.00000000
  -V(xc)+E(xc)   XCENC  =        22.00171898
  PAW double counting   =       117.05815612     -117.66307307
  entropy T*S    EENTRO =         0.02876761
  eigenvalues    EBANDS =      -130.79108248
  atomic energy  EATOM  =       197.04175453
  Solvation  Ediel_sol  =         0.00000000
  ---------------------------------------------------
  free energy    TOTEN  =       -27.50804168 eV

  energy without entropy =      -27.53680928  energy(sigma->0) =      -27.51763088


--------------------------------------------------------------------------------------------------------




--------------------------------------- Iteration      1(   6)  ---------------------------------------


    POTLOK:  cpu time    1.8770: real time    1.8815
    SETDIJ:  cpu time    0.0066: real time    0.0066
    EDDIAG:  cpu time    0.4891: real time    0.4903
  RMM-DIIS:  cpu time    1.5535: real time    1.5572
    ORTHCH:  cpu time    0.0118: real time    0.0119
       DOS:  cpu time    0.0002: real time    0.0002
    CHARGE:  cpu time    0.1995: real time    0.2000
    MIXING:  cpu time    0.0447: real time    0.0448
    --------------------------------------------
      LOOP:  cpu time    4.1825: real time    4.1924

 eigenvalue-minimisations  :    64
 total energy-change (2. order) : 0.2877881E+01  (-0.5332931E+00)
 number of electron       8.0000002 magnetization 
 augmentation part        0.1983125 magnetization 

 Broyden mixing:
  rms(total) = 0.43991E+00    rms(broyden)= 0.43982E+00
  rms(prec ) = 0.56520E+00
  weight for this iteration     100.00

 eigenvalues of (default mixing * dielectric matrix)
  average eigenvalue GAMMA=   1.2963
  1.2963

 Free energy of the ion-electron system (eV)
  ---------------------------------------------------
  alpha Z        PSCENC =         0.24108157
  Ewald energy   TEWEN  =       128.58541595
  -Hartree energ DENC   =      -263.68540654
  -exchange      EXHF   =         0.00000000
  -V(xc)+E(xc)   XCENC  =        23.19585003
  PAW double counting   =       245.01562308     -245.79471040
  entropy T*S    EENTRO =         0.02787119
  eigenvalues    EBANDS =      -109.25763991
  atomic energy  EATOM  =       197.04175453
  Solvation  Ediel_sol  =         0.00000000
  ---------------------------------------------------
  free energy    TOTEN  =       -24.63016049 eV

  energy without entropy =      -24.65803168  energy(sigma->0) =      -24.63945089


--------------------------------------------------------------------------------------------------------




--------------------------------------- Iteration      1(   7)  ---------------------------------------


    POTLOK:  cpu time    1.9075: real time    1.9120
    SETDIJ:  cpu time    0.0065: real time    0.0065
    EDDIAG:  cpu time    0.4783: real time    0.4795
  RMM-DIIS:  cpu time    1.5337: real time    1.5373
    ORTHCH:  cpu time    0.0118: real time    0.0119
       DOS:  cpu time    0.0002: real time    0.0002
    CHARGE:  cpu time    0.2046: real time    0.2051
    MIXING:  cpu time    0.0442: real time    0.0443
    --------------------------------------------
      LOOP:  cpu time    4.1868: real time    4.1967

 eigenvalue-minimisations  :    64
 total energy-change (2. order) : 0.4872653E+00  (-0.1196729E+00)
 number of electron       8.0000002 magnetization 
 augmentation part        0.1879505 magnetization 

 Broyden mixing:
  rms(total) = 0.23908E+00    rms(broyden)= 0.23902E+00
  rms(prec ) = 0.28737E+00
  weight for this iteration     100.00

 eigenvalues of (default mixing * dielectric matrix)
  average eigenvalue GAMMA=   1.6306
  1.4515  1.8098

 Free energy of the ion-electron system (eV)
  ---------------------------------------------------
  alpha Z        PSCENC =         0.24108157
  Ewald energy   TEWEN  =       128.58541595
  -Hartree energ DENC   =      -275.23361629
  -exchange      EXHF   =         0.00000000
  -V(xc)+E(xc)   XCENC  =        24.04458615
  PAW double counting   =       380.32468040     -381.14267194
  entropy T*S    EENTRO =         0.02975697
  eigenvalues    EBANDS =       -98.03388250
  atomic energy  EATOM  =       197.04175453
  Solvation  Ediel_sol  =         0.00000000
  ---------------------------------------------------
  free energy    TOTEN  =       -24.14289516 eV

  energy without entropy =      -24.17265213  energy(sigma->0) =      -24.15281415


--------------------------------------------------------------------------------------------------------




--------------------------------------- Iteration      1(   8)  ---------------------------------------


    POTLOK:  cpu time    1.9122: real time    1.9167
    SETDIJ:  cpu time    0.0065: real time    0.0065
    EDDIAG:  cpu time    0.4436: real time    0.4447
  RMM-DIIS:  cpu time    1.5913: real time    1.5950
    ORTHCH:  cpu time    0.0118: real time    0.0119
       DOS:  cpu time    0.0002: real time    0.0002
    CHARGE:  cpu time    0.2165: real time    0.2170
    MIXING:  cpu time    0.0469: real time    0.0471
    --------------------------------------------
      LOOP:  cpu time    4.2290: real time    4.2391

 eigenvalue-minimisations  :    64
 total energy-change (2. order) : 0.1257542E+00  (-0.1160935E-01)
 number of electron       8.0000002 magnetization 
 augmentation part        0.1865212 magnetization 

 Broyden mixing:
  rms(total) = 0.94574E-01    rms(broyden)= 0.94486E-01
  rms(prec ) = 0.13095E+00
  weight for this iteration     100.00

 eigenvalues of (default mixing * dielectric matrix)
  average eigenvalue GAMMA=   1.4446
  2.2635  1.4473  0.6229

 Free energy of the ion-electron system (eV)
  ---------------------------------------------------
  alpha Z        PSCENC =         0.24108157
  Ewald energy   TEWEN  =       128.58541595
  -Hartree energ DENC   =      -279.61403152
  -exchange      EXHF   =         0.00000000
  -V(xc)+E(xc)   XCENC  =        24.47082200
  PAW double counting   =       473.89718714     -474.69155288
  entropy T*S    EENTRO =         0.02977442
  eigenvalues    EBANDS =       -93.97759214
  atomic energy  EATOM  =       197.04175453
  Solvation  Ediel_sol  =         0.00000000
  ---------------------------------------------------
  free energy    TOTEN  =       -24.01714093 eV

  energy without entropy =      -24.04691534  energy(sigma->0) =      -24.02706573


--------------------------------------------------------------------------------------------------------




--------------------------------------- Iteration      1(   9)  ---------------------------------------


    POTLOK:  cpu time    1.8810: real time    1.8856
    SETDIJ:  cpu time    0.0065: real time    0.0065
    EDDIAG:  cpu time    0.4616: real time    0.4627
  RMM-DIIS:  cpu time    1.6114: real time    1.6152
    ORTHCH:  cpu time    0.0120: real time    0.0121
       DOS:  cpu time    0.0002: real time    0.0002
    CHARGE:  cpu time    0.2243: real time    0.2248
    MIXING:  cpu time    0.0469: real time    0.0470
    --------------------------------------------
      LOOP:  cpu time    4.2440: real time    4.2542

 eigenvalue-minimisations  :    64
 total energy-change (2. order) : 0.2824366E-01  (-0.3257314E-02)
 number of electron       8.0000002 magnetization 
 augmentation part        0.1861073 magnetization 

 Broyden mixing:
  rms(total) = 0.26289E-01    rms(broyden)= 0.26236E-01
  rms(prec ) = 0.49209E-01
  weight for this iteration     100.00

 eigenvalues of (default mixing * dielectric matrix)
  average eigenvalue GAMMA=   1.3060
  2.1617  1.4020  0.9689  0.6914

 Free energy of the ion-electron system (eV)
  ---------------------------------------------------
  alpha Z        PSCENC =         0.24108157
  Ewald energy   TEWEN  =       128.58541595
  -Hartree energ DENC   =      -281.39443175
  -exchange      EXHF   =         0.00000000
  -V(xc)+E(xc)   XCENC  =        24.62655961
  PAW double counting   =       504.37119351     -505.15816313
  entropy T*S    EENTRO =         0.02879817
  eigenvalues    EBANDS =       -92.33110573
  atomic energy  EATOM  =       197.04175453
  Solvation  Ediel_sol  =         0.00000000
  ---------------------------------------------------
  free energy    TOTEN  =       -23.98889726 eV

  energy without entropy =      -24.01769543  energy(sigma->0) =      -23.99849665


--------------------------------------------------------------------------------------------------------




--------------------------------------- Iteration      1(  10)  ---------------------------------------


    POTLOK:  cpu time    1.8682: real time    1.8726
    SETDIJ:  cpu time    0.0065: real time    0.0065
    EDDIAG:  cpu time    0.4647: real time    0.4658
  RMM-DIIS:  cpu time    1.6256: real time    1.6294
    ORTHCH:  cpu time    0.0118: real time    0.0118
       DOS:  cpu time    0.0002: real time    0.0002
    CHARGE:  cpu time    0.2089: real time    0.2093
    MIXING:  cpu time    0.0463: real time    0.0464
    --------------------------------------------
      LOOP:  cpu time    4.2320: real time    4.2420

 eigenvalue-minimisations  :    64
 total energy-change (2. order) : 0.1506369E-02  (-0.9383506E-03)
 number of electron       8.0000002 magnetization 
 augmentation part        0.1854768 magnetization 

 Broyden mixing:
  rms(total) = 0.18913E-01    rms(broyden)= 0.18869E-01
  rms(prec ) = 0.36216E-01
  weight for this iteration     100.00

 eigenvalues of (default mixing * dielectric matrix)
  average eigenvalue GAMMA=   1.6866
  2.7344  2.7344  1.2711  0.9798  0.7131

 Free energy of the ion-electron system (eV)
  ---------------------------------------------------
  alpha Z        PSCENC =         0.24108157
  Ewald energy   TEWEN  =       128.58541595
  -Hartree energ DENC   =      -282.53571211
  -exchange      EXHF   =         0.00000000
  -V(xc)+E(xc)   XCENC  =        24.67010098
  PAW double counting   =       499.27600660     -500.06719612
  entropy T*S    EENTRO =         0.02935859
  eigenvalues    EBANDS =       -91.22820089
  atomic energy  EATOM  =       197.04175453
  Solvation  Ediel_sol  =         0.00000000
  ---------------------------------------------------
  free energy    TOTEN  =       -23.98739090 eV

  energy without entropy =      -24.01674948  energy(sigma->0) =      -23.99717709


--------------------------------------------------------------------------------------------------------




--------------------------------------- Iteration      1(  11)  ---------------------------------------


    POTLOK:  cpu time    1.7783: real time    1.7825
    SETDIJ:  cpu time    0.0065: real time    0.0065
    EDDIAG:  cpu time    0.4678: real time    0.4689
  RMM-DIIS:  cpu time    1.6231: real time    1.6269
    ORTHCH:  cpu time    0.0119: real time    0.0119
       DOS:  cpu time    0.0002: real time    0.0002
    CHARGE:  cpu time    0.2164: real time    0.2169
    MIXING:  cpu time    0.0489: real time    0.0490
    --------------------------------------------
      LOOP:  cpu time    4.1530: real time    4.1628

 eigenvalue-minimisations  :    64
 total energy-change (2. order) : 0.6432961E-02  (-0.5501286E-03)
 number of electron       8.0000002 magnetization 
 augmentation part        0.1851985 magnetization 

 Broyden mixing:
  rms(total) = 0.16714E-01    rms(broyden)= 0.16690E-01
  rms(prec ) = 0.24297E-01
  weight for this iteration     100.00

 eigenvalues of (default mixing * dielectric matrix)
  average eigenvalue GAMMA=   1.6210
  3.1748  2.4074  1.2508  1.2508  0.7941  0.8483

 Free energy of the ion-electron system (eV)
  ---------------------------------------------------
  alpha Z        PSCENC =         0.24108157
  Ewald energy   TEWEN  =       128.58541595
  -Hartree energ DENC   =      -283.99958787
  -exchange      EXHF   =         0.00000000
  -V(xc)+E(xc)   XCENC  =        24.72870507
  PAW double counting   =       492.69616516     -493.48450224
  entropy T*S    EENTRO =         0.02912608
  eigenvalues    EBANDS =       -89.81911618
  atomic energy  EATOM  =       197.04175453
  Solvation  Ediel_sol  =         0.00000000
  ---------------------------------------------------
  free energy    TOTEN  =       -23.98095793 eV

  energy without entropy =      -24.01008401  energy(sigma->0) =      -23.99066663


--------------------------------------------------------------------------------------------------------




--------------------------------------- Iteration      1(  12)  ---------------------------------------


    POTLOK:  cpu time    1.7471: real time    1.7512
    SETDIJ:  cpu time    0.0066: real time    0.0066
    EDDIAG:  cpu time    0.4660: real time    0.4671
  RMM-DIIS:  cpu time    1.6553: real time    1.6592
    ORTHCH:  cpu time    0.0119: real time    0.0120
       DOS:  cpu time    0.0002: real time    0.0002
    CHARGE:  cpu time    0.2207: real time    0.2213
    MIXING:  cpu time    0.0478: real time    0.0479
    --------------------------------------------
      LOOP:  cpu time    4.1556: real time    4.1654

 eigenvalue-minimisations  :    64
 total energy-change (2. order) :-0.4889388E-02  (-0.2440342E-03)
 number of electron       8.0000002 magnetization 
 augmentation part        0.1852114 magnetization 

 Broyden mixing:
  rms(total) = 0.28707E-01    rms(broyden)= 0.28663E-01
  rms(prec ) = 0.38688E-01
  weight for this iteration     100.00

 eigenvalues of (default mixing * dielectric matrix)
  average eigenvalue GAMMA=   1.8528
  3.9687  2.6430  2.6430  1.3063  1.0101  0.6994  0.6994

 Free energy of the ion-electron system (eV)
  ---------------------------------------------------
  alpha Z        PSCENC =         0.24108157
  Ewald energy   TEWEN  =       128.58541595
  -Hartree energ DENC   =      -284.27836487
  -exchange      EXHF   =         0.00000000
  -V(xc)+E(xc)   XCENC  =        24.74236155
  PAW double counting   =       495.62904283     -496.41529070
  entropy T*S    EENTRO =         0.03008678
  eigenvalues    EBANDS =       -89.56193496
  atomic energy  EATOM  =       197.04175453
  Solvation  Ediel_sol  =         0.00000000
  ---------------------------------------------------
  free energy    TOTEN  =       -23.98584732 eV

  energy without entropy =      -24.01593410  energy(sigma->0) =      -23.99587625


--------------------------------------------------------------------------------------------------------




--------------------------------------- Iteration      1(  13)  ---------------------------------------


    POTLOK:  cpu time    1.6444: real time    1.6482
    SETDIJ:  cpu time    0.0065: real time    0.0065
    EDDIAG:  cpu time    0.4718: real time    0.4729
  RMM-DIIS:  cpu time    1.6790: real time    1.6830
    ORTHCH:  cpu time    0.0121: real time    0.0122
       DOS:  cpu time    0.0002: real time    0.0002
    CHARGE:  cpu time    0.2152: real time    0.2157
    MIXING:  cpu time    0.0501: real time    0.0502
    --------------------------------------------
      LOOP:  cpu time    4.0793: real time    4.0890

 eigenvalue-minimisations  :    64
 total energy-change (2. order) :-0.4945106E-02  (-0.2197040E-03)
 number of electron       8.0000002 magnetization 
 augmentation part        0.1852912 magnetization 

 Broyden mixing:
  rms(total) = 0.11573E-01    rms(broyden)= 0.11552E-01
  rms(prec ) = 0.14348E-01
  weight for this iteration     100.00

 eigenvalues of (default mixing * dielectric matrix)
  average eigenvalue GAMMA=   1.8441
  4.8887  2.8528  2.3312  1.1350  1.0438  1.0438  0.7288  0.7288

 Free energy of the ion-electron system (eV)
  ---------------------------------------------------
  alpha Z        PSCENC =         0.24108157
  Ewald energy   TEWEN  =       128.58541595
  -Hartree energ DENC   =      -284.43331256
  -exchange      EXHF   =         0.00000000
  -V(xc)+E(xc)   XCENC  =        24.74236034
  PAW double counting   =       496.40611088     -497.19130002
  entropy T*S    EENTRO =         0.02916887
  eigenvalues    EBANDS =       -89.41207198
  atomic energy  EATOM  =       197.04175453
  Solvation  Ediel_sol  =         0.00000000
  ---------------------------------------------------
  free energy    TOTEN  =       -23.99079243 eV

  energy without entropy =      -24.01996130  energy(sigma->0) =      -24.00051539


--------------------------------------------------------------------------------------------------------




--------------------------------------- Iteration      1(  14)  ---------------------------------------


    POTLOK:  cpu time    1.6298: real time    1.6336
    SETDIJ:  cpu time    0.0065: real time    0.0065
    EDDIAG:  cpu time    0.4837: real time    0.4849
  RMM-DIIS:  cpu time    1.6454: real time    1.6493
    ORTHCH:  cpu time    0.0123: real time    0.0123
       DOS:  cpu time    0.0002: real time    0.0002
    CHARGE:  cpu time    0.2075: real time    0.2080
    MIXING:  cpu time    0.0487: real time    0.0489
    --------------------------------------------
      LOOP:  cpu time    4.0340: real time    4.0435

 eigenvalue-minimisations  :    64
 total energy-change (2. order) :-0.1332051E-02  (-0.9639881E-04)
 number of electron       8.0000002 magnetization 
 augmentation part        0.1851573 magnetization 

 Broyden mixing:
  rms(total) = 0.34693E-02    rms(broyden)= 0.34425E-02
  rms(prec ) = 0.53371E-02
  weight for this iteration     100.00

 eigenvalues of (default mixing * dielectric matrix)
  average eigenvalue GAMMA=   2.0198
  5.2770  3.2651  2.3909  2.3909  1.2089  1.2089  0.9900  0.7231  0.7231

 Free energy of the ion-electron system (eV)
  ---------------------------------------------------
  alpha Z        PSCENC =         0.24108157
  Ewald energy   TEWEN  =       128.58541595
  -Hartree energ DENC   =      -284.43723398
  -exchange      EXHF   =         0.00000000
  -V(xc)+E(xc)   XCENC  =        24.73209671
  PAW double counting   =       492.86728636     -493.65469332
  entropy T*S    EENTRO =         0.02906831
  eigenvalues    EBANDS =       -89.39690061
  atomic energy  EATOM  =       197.04175453
  Solvation  Ediel_sol  =         0.00000000
  ---------------------------------------------------
  free energy    TOTEN  =       -23.99212448 eV

  energy without entropy =      -24.02119279  energy(sigma->0) =      -24.00181392


--------------------------------------------------------------------------------------------------------




--------------------------------------- Iteration      1(  15)  ---------------------------------------


    POTLOK:  cpu time    1.6304: real time    1.6343
    SETDIJ:  cpu time    0.0065: real time    0.0066
    EDDIAG:  cpu time    0.4861: real time    0.4872
  RMM-DIIS:  cpu time    1.6226: real time    1.6265
    ORTHCH:  cpu time    0.0117: real time    0.0118
       DOS:  cpu time    0.0002: real time    0.0002
    CHARGE:  cpu time    0.2096: real time    0.2101
    MIXING:  cpu time    0.0523: real time    0.0524
    --------------------------------------------
      LOOP:  cpu time    4.0196: real time    4.0290

 eigenvalue-minimisations  :    64
 total energy-change (2. order) :-0.2428281E-02  (-0.6670279E-04)
 number of electron       8.0000002 magnetization 
 augmentation part        0.1850836 magnetization 

 Broyden mixing:
  rms(total) = 0.58471E-02    rms(broyden)= 0.58417E-02
  rms(prec ) = 0.75150E-02
  weight for this iteration     100.00

 eigenvalues of (default mixing * dielectric matrix)
  average eigenvalue GAMMA=   2.1053
  6.3487  4.0947  2.5405  2.2489  1.2094  1.2094  0.7294  0.7294  0.9711  0.9711

 Free energy of the ion-electron system (eV)
  ---------------------------------------------------
  alpha Z        PSCENC =         0.24108157
  Ewald energy   TEWEN  =       128.58541595
  -Hartree energ DENC   =      -284.40763395
  -exchange      EXHF   =         0.00000000
  -V(xc)+E(xc)   XCENC  =        24.72424151
  PAW double counting   =       492.29499266     -493.08264927
  entropy T*S    EENTRO =         0.02926342
  eigenvalues    EBANDS =       -89.42101919
  atomic energy  EATOM  =       197.04175453
  Solvation  Ediel_sol  =         0.00000000
  ---------------------------------------------------
  free energy    TOTEN  =       -23.99455276 eV

  energy without entropy =      -24.02381618  energy(sigma->0) =      -24.00430723


--------------------------------------------------------------------------------------------------------




--------------------------------------- Iteration      1(  16)  ---------------------------------------


    POTLOK:  cpu time    1.6418: real time    1.6457
    SETDIJ:  cpu time    0.0066: real time    0.0066
    EDDIAG:  cpu time    0.4854: real time    0.4865
  RMM-DIIS:  cpu time    1.6044: real time    1.6082
    ORTHCH:  cpu time    0.0127: real time    0.0127
       DOS:  cpu time    0.0002: real time    0.0002
    CHARGE:  cpu time    0.2288: real time    0.2294
    MIXING:  cpu time    0.0549: real time    0.0550
    --------------------------------------------
      LOOP:  cpu time    4.0347: real time    4.0443

 eigenvalue-minimisations  :    64
 total energy-change (2. order) :-0.1660259E-03  (-0.7305634E-05)
 number of electron       8.0000002 magnetization 
 augmentation part        0.1850770 magnetization 

 Broyden mixing:
  rms(total) = 0.14915E-02    rms(broyden)= 0.14786E-02
  rms(prec ) = 0.19923E-02
  weight for this iteration     100.00

 eigenvalues of (default mixing * dielectric matrix)
  average eigenvalue GAMMA=   2.1616
  6.9267  4.2929  2.4350  2.4350  1.7302  1.2559  1.1441  1.1441  0.7304  0.7304
  0.9530

 Free energy of the ion-electron system (eV)
  ---------------------------------------------------
  alpha Z        PSCENC =         0.24108157
  Ewald energy   TEWEN  =       128.58541595
  -Hartree energ DENC   =      -284.41434970
  -exchange      EXHF   =         0.00000000
  -V(xc)+E(xc)   XCENC  =        24.72631317
  PAW double counting   =       493.32164145     -494.10873760
  entropy T*S    EENTRO =         0.02915465
  eigenvalues    EBANDS =       -89.41699282
  atomic energy  EATOM  =       197.04175453
  Solvation  Ediel_sol  =         0.00000000
  ---------------------------------------------------
  free energy    TOTEN  =       -23.99471879 eV

  energy without entropy =      -24.02387344  energy(sigma->0) =      -24.00443700


--------------------------------------------------------------------------------------------------------




--------------------------------------- Iteration      1(  17)  ---------------------------------------


    POTLOK:  cpu time    1.6299: real time    1.6338
    SETDIJ:  cpu time    0.0064: real time    0.0065
    EDDIAG:  cpu time    0.4798: real time    0.4810
  RMM-DIIS:  cpu time    1.6192: real time    1.6230
    ORTHCH:  cpu time    0.0122: real time    0.0122
       DOS:  cpu time    0.0003: real time    0.0003
    CHARGE:  cpu time    0.2222: real time    0.2227
    MIXING:  cpu time    0.0531: real time    0.0533
    --------------------------------------------
      LOOP:  cpu time    4.0231: real time    4.0328

 eigenvalue-minimisations  :    64
 total energy-change (2. order) :-0.2367866E-03  (-0.6197684E-05)
 number of electron       8.0000002 magnetization 
 augmentation part        0.1851181 magnetization 

 Broyden mixing:
  rms(total) = 0.21056E-02    rms(broyden)= 0.21037E-02
  rms(prec ) = 0.28217E-02
  weight for this iteration     100.00

 eigenvalues of (default mixing * dielectric matrix)
  average eigenvalue GAMMA=   2.2309
  7.6262  4.7417  3.0400  2.5028  2.0991  1.2587  1.2587  0.7304  0.7304  0.9628
  0.9100  0.9100

 Free energy of the ion-electron system (eV)
  ---------------------------------------------------
  alpha Z        PSCENC =         0.24108157
  Ewald energy   TEWEN  =       128.58541595
  -Hartree energ DENC   =      -284.38916113
  -exchange      EXHF   =         0.00000000
  -V(xc)+E(xc)   XCENC  =        24.72524074
  PAW double counting   =       493.27036201     -494.05707820
  entropy T*S    EENTRO =         0.02919312
  eigenvalues    EBANDS =       -89.44176417
  atomic energy  EATOM  =       197.04175453
  Solvation  Ediel_sol  =         0.00000000
  ---------------------------------------------------
  free energy    TOTEN  =       -23.99495557 eV

  energy without entropy =      -24.02414869  energy(sigma->0) =      -24.00468661


--------------------------------------------------------------------------------------------------------




--------------------------------------- Iteration      1(  18)  ---------------------------------------


    POTLOK:  cpu time    1.6583: real time    1.6622
    SETDIJ:  cpu time    0.0065: real time    0.0066
    EDDIAG:  cpu time    0.4791: real time    0.4803
  RMM-DIIS:  cpu time    1.6311: real time    1.6350
    ORTHCH:  cpu time    0.0116: real time    0.0116
       DOS:  cpu time    0.0002: real time    0.0002
    CHARGE:  cpu time    0.1972: real time    0.1977
    MIXING:  cpu time    0.0522: real time    0.0523
    --------------------------------------------
      LOOP:  cpu time    4.0363: real time    4.0459

 eigenvalue-minimisations  :    64
 total energy-change (2. order) :-0.4943259E-04  (-0.9234379E-06)
 number of electron       8.0000002 magnetization 
 augmentation part        0.1851044 magnetization 

 Broyden mixing:
  rms(total) = 0.28480E-03    rms(broyden)= 0.27745E-03
  rms(prec ) = 0.38178E-03
  weight for this iteration     100.00

 eigenvalues of (default mixing * dielectric matrix)
  average eigenvalue GAMMA=   2.3084
  7.9179  4.2794  4.2794  2.3699  2.3699  1.9786  1.2518  1.2518  0.7305  0.7305
  1.0209  0.9221  0.9063

 Free energy of the ion-electron system (eV)
  ---------------------------------------------------
  alpha Z        PSCENC =         0.24108157
  Ewald energy   TEWEN  =       128.58541595
  -Hartree energ DENC   =      -284.41879247
  -exchange      EXHF   =         0.00000000
  -V(xc)+E(xc)   XCENC  =        24.72683699
  PAW double counting   =       493.34491417     -494.13179963
  entropy T*S    EENTRO =         0.02916217
  eigenvalues    EBANDS =       -89.41357829
  atomic energy  EATOM  =       197.04175453
  Solvation  Ediel_sol  =         0.00000000
  ---------------------------------------------------
  free energy    TOTEN  =       -23.99500501 eV

  energy without entropy =      -24.02416717  energy(sigma->0) =      -24.00472573


--------------------------------------------------------------------------------------------------------




--------------------------------------- Iteration      1(  19)  ---------------------------------------


    POTLOK:  cpu time    1.7319: real time    1.7360
    SETDIJ:  cpu time    0.0065: real time    0.0065
    EDDIAG:  cpu time    0.4618: real time    0.4629
  RMM-DIIS:  cpu time    1.5728: real time    1.5766
    ORTHCH:  cpu time    0.0120: real time    0.0120
       DOS:  cpu time    0.0002: real time    0.0002
    CHARGE:  cpu time    0.2192: real time    0.2197
    MIXING:  cpu time    0.0584: real time    0.0586
    --------------------------------------------
      LOOP:  cpu time    4.0628: real time    4.0725

 eigenvalue-minimisations  :    64
 total energy-change (2. order) :-0.2849788E-04  (-0.1069653E-05)
 number of electron       8.0000002 magnetization 
 augmentation part        0.1850799 magnetization 

 Broyden mixing:
  rms(total) = 0.41482E-03    rms(broyden)= 0.41460E-03
  rms(prec ) = 0.55928E-03
  weight for this iteration     100.00

 eigenvalues of (default mixing * dielectric matrix)
  average eigenvalue GAMMA=   2.2822
  8.3738  5.1820  3.8888  2.4941  2.4941  1.7561  1.3265  1.3265  0.7308  0.7308
  0.9933  0.9933  0.8302  0.8302

 Free energy of the ion-electron system (eV)
  ---------------------------------------------------
  alpha Z        PSCENC =         0.24108157
  Ewald energy   TEWEN  =       128.58541595
  -Hartree energ DENC   =      -284.43634757
  -exchange      EXHF   =         0.00000000
  -V(xc)+E(xc)   XCENC  =        24.72754752
  PAW double counting   =       493.30158667     -494.08864604
  entropy T*S    EENTRO =         0.02916407
  eigenvalues    EBANDS =       -89.39659022
  atomic energy  EATOM  =       197.04175453
  Solvation  Ediel_sol  =         0.00000000
  ---------------------------------------------------
  free energy    TOTEN  =       -23.99503350 eV

  energy without entropy =      -24.02419758  energy(sigma->0) =      -24.00475486


--------------------------------------------------------------------------------------------------------




--------------------------------------- Iteration      1(  20)  ---------------------------------------


    POTLOK:  cpu time    1.7422: real time    1.7463
    SETDIJ:  cpu time    0.0065: real time    0.0065
    EDDIAG:  cpu time    0.4518: real time    0.4528
  RMM-DIIS:  cpu time    1.2556: real time    1.2586
    ORTHCH:  cpu time    0.0123: real time    0.0123
       DOS:  cpu time    0.0002: real time    0.0002
    CHARGE:  cpu time    0.2247: real time    0.2253
    MIXING:  cpu time    0.0603: real time    0.0605
    --------------------------------------------
      LOOP:  cpu time    3.7536: real time    3.7625

 eigenvalue-minimisations  :    48
 total energy-change (2. order) :-0.2908571E-05  (-0.1697962E-06)
 number of electron       8.0000002 magnetization 
 augmentation part        0.1850868 magnetization 

 Broyden mixing:
  rms(total) = 0.75317E-04    rms(broyden)= 0.74994E-04
  rms(prec ) = 0.11604E-03
  weight for this iteration     100.00

 eigenvalues of (default mixing * dielectric matrix)
  average eigenvalue GAMMA=   2.2914
  8.4589  5.3371  3.8550  2.8658  2.4175  2.1264  1.3040  1.3040  0.7305  0.7305
  1.1679  1.1679  0.8972  1.0043  1.0043

 Free energy of the ion-electron system (eV)
  ---------------------------------------------------
  alpha Z        PSCENC =         0.24108157
  Ewald energy   TEWEN  =       128.58541595
  -Hartree energ DENC   =      -284.42557981
  -exchange      EXHF   =         0.00000000
  -V(xc)+E(xc)   XCENC  =        24.72709633
  PAW double counting   =       493.33693807     -494.12388604
  entropy T*S    EENTRO =         0.02916068
  eigenvalues    EBANDS =       -89.40701769
  atomic energy  EATOM  =       197.04175453
  Solvation  Ediel_sol  =         0.00000000
  ---------------------------------------------------
  free energy    TOTEN  =       -23.99503641 eV

  energy without entropy =      -24.02419709  energy(sigma->0) =      -24.00475664


--------------------------------------------------------------------------------------------------------




--------------------------------------- Iteration      1(  21)  ---------------------------------------


    POTLOK:  cpu time    1.7608: real time    1.7650
    SETDIJ:  cpu time    0.0064: real time    0.0065
    EDDIAG:  cpu time    0.4565: real time    0.4576
  RMM-DIIS:  cpu time    1.2357: real time    1.2386
    ORTHCH:  cpu time    0.0118: real time    0.0118
       DOS:  cpu time    0.0002: real time    0.0002
    CHARGE:  cpu time    0.1967: real time    0.1972
    MIXING:  cpu time    0.0606: real time    0.0607
    --------------------------------------------
      LOOP:  cpu time    3.7286: real time    3.7375

 eigenvalue-minimisations  :    48
 total energy-change (2. order) :-0.2587528E-05  (-0.6685956E-07)
 number of electron       8.0000002 magnetization 
 augmentation part        0.1850911 magnetization 

 Broyden mixing:
  rms(total) = 0.45031E-04    rms(broyden)= 0.44974E-04
  rms(prec ) = 0.58376E-04
  weight for this iteration     100.00

 eigenvalues of (default mixing * dielectric matrix)
  average eigenvalue GAMMA=   2.2426
  8.5226  5.4125  4.0422  2.8662  2.4772  2.0858  1.6601  1.3472  1.3472  0.7307
  0.7307  1.0089  1.0089  1.0049  0.8186  0.8186

 Free energy of the ion-electron system (eV)
  ---------------------------------------------------
  alpha Z        PSCENC =         0.24108157
  Ewald energy   TEWEN  =       128.58541595
  -Hartree energ DENC   =      -284.42151058
  -exchange      EXHF   =         0.00000000
  -V(xc)+E(xc)   XCENC  =        24.72683770
  PAW double counting   =       493.33081705     -494.11773865
  entropy T*S    EENTRO =         0.02916029
  eigenvalues    EBANDS =       -89.41085687
  atomic energy  EATOM  =       197.04175453
  Solvation  Ediel_sol  =         0.00000000
  ---------------------------------------------------
  free energy    TOTEN  =       -23.99503900 eV

  energy without entropy =      -24.02419929  energy(sigma->0) =      -24.00475910


--------------------------------------------------------------------------------------------------------




--------------------------------------- Iteration      1(  22)  ---------------------------------------


    POTLOK:  cpu time    1.7708: real time    1.7750
    SETDIJ:  cpu time    0.0066: real time    0.0066
    EDDIAG:  cpu time    0.4399: real time    0.4410
  RMM-DIIS:  cpu time    1.1735: real time    1.1763
    ORTHCH:  cpu time    0.0123: real time    0.0123
       DOS:  cpu time    0.0002: real time    0.0002
    --------------------------------------------
      LOOP:  cpu time    3.4033: real time    3.4114

 eigenvalue-minimisations  :    44
 total energy-change (2. order) :-0.7869012E-06  (-0.1493750E-07)
 number of electron       8.0000002 magnetization 
 augmentation part        0.1850911 magnetization 

 Free energy of the ion-electron system (eV)
  ---------------------------------------------------
  alpha Z        PSCENC =         0.24108157
  Ewald energy   TEWEN  =       128.58541595
  -Hartree energ DENC   =      -284.42205180
  -exchange      EXHF   =         0.00000000
  -V(xc)+E(xc)   XCENC  =        24.72685562
  PAW double counting   =       493.32582397     -494.11274672
  entropy T*S    EENTRO =         0.02915998
  eigenvalues    EBANDS =       -89.41033290
  atomic energy  EATOM  =       197.04175453
  Solvation  Ediel_sol  =         0.00000000
  ---------------------------------------------------
  free energy    TOTEN  =       -23.99503979 eV

  energy without entropy =      -24.02419976  energy(sigma->0) =      -24.00475978


--------------------------------------------------------------------------------------------------------




 average (electrostatic) potential at core
  the test charge radii are     0.5201  0.6991
  (the norm of the test charge is              1.0000)
       1 -41.4643       2 -41.5312       3 -41.5399       4 -41.3928       5 -57.9684



 E-fermi :  -9.0424     XC(G=0):  -0.6986     alpha+bet : -0.2097


 k-point     1 :       0.2500    0.2500    0.2500
  band No.  band energies     occupation 
      1     -16.8664      2.00000
      2      -9.4231      2.02156
      3      -9.2143      2.00740
      4      -9.1991      1.97127
      5      -0.3127      0.00000
      6       0.5479      0.00000
      7       0.6593      0.00000
      8       0.6877      0.00000

 k-point     2 :      -0.2500    0.2500    0.2500
  band No.  band energies     occupation 
      1     -16.8664      2.00000
      2      -9.4230      2.02160
      3      -9.2142      2.00714
      4      -9.1989      1.97094
      5      -0.3168      0.00000
      6       0.5539      0.00000
      7       0.6659      0.00000
      8       0.6994      0.00000

 k-point     3 :       0.2500   -0.2500    0.2500
  band No.  band energies     occupation 
      1     -16.8664      2.00000
      2      -9.4230      2.02160
      3      -9.2142      2.00726
      4      -9.1991      1.97130
      5      -0.3227      0.00000
      6       0.5671      0.00000
      7       0.6859      0.00000
      8       0.7087      0.00000

 k-point     4 :      -0.2500   -0.2500    0.2500
  band No.  band energies     occupation 
      1     -16.8663      2.00000
      2      -9.4231      2.02157
      3      -9.2142      2.00725
      4      -9.1990      1.97112
      5      -0.3160      0.00000
      6       0.5582      0.00000
      7       0.6622      0.00000
      8       0.6971      0.00000


--------------------------------------------------------------------------------------------------------


 soft charge-density along one line, spin component           1
         0         1         2         3         4         5         6         7         8         9
 total charge-density along one line

 pseudopotential strength for first ion, spin component:           1
 -2.340  -4.032  -0.001  -0.002   0.001
 -4.032  -6.862  -0.003  -0.005   0.002
 -0.001  -0.003  -0.337   0.002  -0.001
 -0.002  -0.005   0.002  -0.335  -0.001
  0.001   0.002  -0.001  -0.001  -0.338
 total augmentation occupancy for first ion, spin component:           1
  3.538  -0.629   0.237   0.390  -0.181
 -0.629   0.126  -0.044  -0.071   0.032
  0.237  -0.044   0.022   0.022  -0.011
  0.390  -0.071   0.022   0.047  -0.018
 -0.181   0.032  -0.011  -0.018   0.017


------------------------ aborting loop because EDIFF is reached ----------------------------------------


    CHARGE:  cpu time    0.2066: real time    0.2071
    FORLOC:  cpu time    0.1200: real time    0.1203
    FORNL :  cpu time    0.6485: real time    0.6500
    STRESS:  cpu time    2.1157: real time    2.1207
    FORCOR:  cpu time    1.8338: real time    1.8381
    FORHAR:  cpu time    0.5965: real time    0.5979
    MIXING:  cpu time    0.0572: real time    0.0574
    OFIELD:  cpu time    0.0000: real time    0.0000

  FORCE on cell =-STRESS in cart. coord.  units (eV):
  Direction    XX          YY          ZZ          XY          YZ          ZX
  --------------------------------------------------------------------------------------
  Alpha Z     0.24108     0.24108     0.24108
  Ewald      42.74324    43.38830    42.45384    -2.63262    -1.39398     0.49394
  Hartree    95.45843    93.78378    95.18223    -1.15065    -0.76159     0.25147
  E(xc)     -27.20106   -27.18358   -27.19831    -0.01350    -0.00723     0.00328
  Local    -196.97926  -195.61565  -196.76412     3.59347     2.06698    -0.69413
  n-local   -15.70059   -14.57525   -15.39643     0.02978    -0.06668    -0.00323
  augment     0.11567     0.11160     0.11549     0.00044     0.00047     0.00008
  Kinetic   100.99009   100.73722   101.38775     0.29999     0.31601    -0.20570
  Fock        0.00000     0.00000     0.00000     0.00000     0.00000     0.00000
  -------------------------------------------------------------------------------------
  Total      -0.33239     0.88751     0.02153     0.12691     0.15397    -0.15429
  in kB      -0.52998     1.41509     0.03433     0.20235     0.24549    -0.24600
  external pressure =        0.31 kB  Pullay stress =        0.00 kB

  kinetic pressure (ideal gas correction) =      0.03 kB
  total pressure  =      0.33 kB
  Total+kin.    -0.506       1.441       0.068       0.187       0.257      -0.264

 VOLUME and BASIS-vectors are now :
 -----------------------------------------------------------------------------
  energy-cutoff  :      400.00
  volume of cell :     1004.85
      direct lattice vectors                 reciprocal lattice vectors
     9.929188456  0.000000000  0.000000000     0.100713165  0.002848455 -0.000681651
    -0.287049944 10.149259953  0.000000000    -0.000000000  0.098529351  0.002464240
     0.074541730 -0.249385062  9.971329343     0.000000000 -0.000000000  0.100287531

  length of vectors
     9.929188456 10.153318436  9.974725974     0.100755744  0.098560162  0.100287531


 FORCES acting on ions
    electron-ion (+dipol)            ewald-force                    non-local-force                 convergence-correction
 -----------------------------------------------------------------------------------------------
   -.172E+02 0.286E+02 0.412E+02   0.190E+02 -.316E+02 -.456E+02   -.147E+01 0.278E+01 0.391E+01   0.101E-03 -.166E-03 -.189E-03
   0.520E+02 -.632E+01 0.349E+01   -.573E+02 0.693E+01 -.379E+01   0.587E+01 -.248E+00 0.109E+01   -.226E-03 0.163E-05 -.133E-04
   -.219E+02 -.481E+02 0.136E+01   0.242E+02 0.532E+02 -.146E+01   -.200E+01 -.468E+01 0.218E-01   0.122E-03 0.212E-03 -.142E-04
   -.128E+02 0.253E+02 -.442E+02   0.140E+02 -.277E+02 0.486E+02   -.136E+01 0.269E+01 -.447E+01   0.699E-04 -.153E-03 0.199E-03
   0.643E-01 0.480E+00 -.201E+01   0.716E-01 -.751E+00 0.227E+01   -.927E+00 0.685E+00 -.458E+00   0.461E-03 -.693E-03 -.450E-04
 -----------------------------------------------------------------------------------------------
   0.204E+00 -.258E-01 -.160E+00   0.178E-14 -.355E-14 0.142E-13   0.113E+00 0.124E+01 0.962E-01   0.529E-03 -.798E-03 -.626E-04


 POSITION                                       TOTAL-FORCE (eV/Angst)
 -----------------------------------------------------------------------------------
      5.25426      4.03841      3.59456         0.330514     -0.250882     -0.488993
      3.80940      4.76226      4.36972         0.588676      0.361394      0.788174
      5.35050      5.62510      4.41413         0.328677      0.394957     -0.078632
      5.16922      4.09458      5.37291        -0.139210      0.291463     -0.092878
      4.90047      4.62683      4.44497        -0.790743      0.413305     -0.191658
 -----------------------------------------------------------------------------------
    total drift:                                0.317912      1.210237     -0.063987


--------------------------------------------------------------------------------------------------------



  FREE ENERGIE OF THE ION-ELECTRON SYSTEM (eV)
  ---------------------------------------------------
  free  energy   TOTEN  =       -23.99503979 eV

  energy  without entropy=      -24.02419976  energy(sigma->0) =      -24.00475978



--------------------------------------------------------------------------------------------------------


    POTLOK:  cpu time    1.8249: real time    1.8292


--------------------------------------------------------------------------------------------------------


           RANDOM_SEED =         578496012                0                0
           RANDOM_SEED =         578496012               30                0
   IONSTEP:  cpu time    0.0017: real time    0.0019

  ENERGY OF THE ELECTRON-ION-THERMOSTAT SYSTEM (eV)
  ---------------------------------------------------
% ion-electron   TOTEN  =       -23.995040  see above
  kinetic energy EKIN   =         0.038483
  kin. lattice  EKIN_LAT=         0.000000  (temperature   74.43 K)
  nose potential ES     =         0.000000
  nose kinetic   EPS    =         0.000019
  ---------------------------------------------------
  total energy   ETOTAL =       -23.956537 eV

  maximum distance moved by ions :      0.44E-02


 mean value of Nose-termostat <S>:     1.006 mean value of <T> :    74.430
 mean temperature <T/S>/<1/S>  :    74.430

    WAVPRE:  cpu time    0.4810: real time    0.4895
    FEWALD:  cpu time    0.0004: real time    0.0004
    ORTHCH:  cpu time    0.2346: real time    0.2351
     LOOP+:  cpu time   93.6262: real time   93.8575


--------------------------------------- Iteration      2(   1)  ---------------------------------------


    POTLOK:  cpu time    1.8486: real time    1.8532
    SETDIJ:  cpu time    0.0065: real time    0.0065
     EDDAV:  cpu time    2.1660: real time    2.1711
       DOS:  cpu time    0.0002: real time    0.0002
    CHARGE:  cpu time    0.2138: real time    0.2143
    MIXING:  cpu time    0.0455: real time    0.0456
    --------------------------------------------
      LOOP:  cpu time    4.2806: real time    4.2909

 eigenvalue-minimisations  :    64
 total energy-change (2. order) :-0.2665648E-01  (-0.1847822E+00)
 number of electron       8.0000001 magnetization 
 augmentation part        0.1834462 magnetization 

 Broyden mixing:
  rms(total) = 0.59331E-01    rms(broyden)= 0.59281E-01
  rms(prec ) = 0.70448E-01
  weight for this iteration     100.00

 Free energy of the ion-electron system (eV)
  ---------------------------------------------------
  alpha Z        PSCENC =         0.24108157
  Ewald energy   TEWEN  =       126.61116766
  -Hartree energ DENC   =      -283.25408189
  -exchange      EXHF   =         0.00000000
  -V(xc)+E(xc)   XCENC  =        24.66793692
  PAW double counting   =       493.32319642     -494.11013406
  entropy T*S    EENTRO =         0.02528458
  eigenvalues    EBANDS =       -88.56790121
  atomic energy  EATOM  =       197.04175453
  Solvation  Ediel_sol  =         0.00000000
  ---------------------------------------------------
  free energy    TOTEN  =       -24.02169548 eV

  energy without entropy =      -24.04698006  energy(sigma->0) =      -24.03012367


--------------------------------------------------------------------------------------------------------




--------------------------------------- Iteration      2(   2)  ---------------------------------------


    POTLOK:  cpu time    1.6368: real time    1.6406
    SETDIJ:  cpu time    0.0066: real time    0.0066
    EDDIAG:  cpu time    0.4679: real time    0.4690
  RMM-DIIS:  cpu time    1.6626: real time    1.6666
    ORTHCH:  cpu time    0.0118: real time    0.0118
       DOS:  cpu time    0.0002: real time    0.0002
    CHARGE:  cpu time    0.2219: real time    0.2225
    MIXING:  cpu time    0.0712: real time    0.0714
    --------------------------------------------
      LOOP:  cpu time    4.0790: real time    4.0887

 eigenvalue-minimisations  :    64
 total energy-change (2. order) : 0.4714429E-02  (-0.8260654E-02)
 number of electron       8.0000001 magnetization 
 augmentation part        0.1850090 magnetization 

 Broyden mixing:
  rms(total) = 0.41272E-01    rms(broyden)= 0.41259E-01
  rms(prec ) = 0.54529E-01
  weight for this iteration     100.00

 eigenvalues of (default mixing * dielectric matrix)
  average eigenvalue GAMMA=   2.2413
  8.5264  5.5068  3.9695  2.9919  2.9919  2.3776  1.9996  1.9996  1.2649  1.2649
  1.1836  1.1836  0.7306  0.7306  0.9868  0.9868  0.8640  0.7835

 Free energy of the ion-electron system (eV)
  ---------------------------------------------------
  alpha Z        PSCENC =         0.24108157
  Ewald energy   TEWEN  =       126.61116766
  -Hartree energ DENC   =      -281.08120758
  -exchange      EXHF   =         0.00000000
  -V(xc)+E(xc)   XCENC  =        24.52508190
  PAW double counting   =       469.36742255     -470.14517288
  entropy T*S    EENTRO =         0.02817725
  eigenvalues    EBANDS =       -90.60528604
  atomic energy  EATOM  =       197.04175453
  Solvation  Ediel_sol  =         0.00000000
  ---------------------------------------------------
  free energy    TOTEN  =       -24.01698105 eV

  energy without entropy =      -24.04515830  energy(sigma->0) =      -24.02637347


--------------------------------------------------------------------------------------------------------




--------------------------------------- Iteration      2(   3)  ---------------------------------------


    POTLOK:  cpu time    1.6541: real time    1.6580
    SETDIJ:  cpu time    0.0065: real time    0.0065
    EDDIAG:  cpu time    0.4738: real time    0.4750
  RMM-DIIS:  cpu time    1.6627: real time    1.6667
    ORTHCH:  cpu time    0.0119: real time    0.0119
       DOS:  cpu time    0.0002: real time    0.0002
    CHARGE:  cpu time    0.2116: real time    0.2121
    MIXING:  cpu time    0.0626: real time    0.0628
    --------------------------------------------
      LOOP:  cpu time    4.0835: real time    4.0932

 eigenvalue-minimisations  :    64
 total energy-change (2. order) : 0.3178503E-02  (-0.2048765E-02)
 number of electron       8.0000001 magnetization 
 augmentation part        0.1841400 magnetization 

 Broyden mixing:
  rms(total) = 0.37193E-01    rms(broyden)= 0.37187E-01
  rms(prec ) = 0.49774E-01
  weight for this iteration     100.00

 eigenvalues of (default mixing * dielectric matrix)
  average eigenvalue GAMMA=   2.2084
  8.5265  5.5079  3.9734  3.0285  3.0285  2.4973  2.3495  1.9679  1.2434  1.2434
  1.2140  1.2140  0.7306  0.7306  1.0832  0.9856  0.9856  0.8691  0.7802

 Free energy of the ion-electron system (eV)
  ---------------------------------------------------
  alpha Z        PSCENC =         0.24108157
  Ewald energy   TEWEN  =       126.61116766
  -Hartree energ DENC   =      -282.68701917
  -exchange      EXHF   =         0.00000000
  -V(xc)+E(xc)   XCENC  =        24.63358016
  PAW double counting   =       475.02367005     -475.80599148
  entropy T*S    EENTRO =         0.02791630
  eigenvalues    EBANDS =       -89.09996217
  atomic energy  EATOM  =       197.04175453
  Solvation  Ediel_sol  =         0.00000000
  ---------------------------------------------------
  free energy    TOTEN  =       -24.01380255 eV

  energy without entropy =      -24.04171884  energy(sigma->0) =      -24.02310798


--------------------------------------------------------------------------------------------------------




--------------------------------------- Iteration      2(   4)  ---------------------------------------


    POTLOK:  cpu time    1.7028: real time    1.7068
    SETDIJ:  cpu time    0.0065: real time    0.0065
    EDDIAG:  cpu time    0.4693: real time    0.4704
  RMM-DIIS:  cpu time    1.6359: real time    1.6398
    ORTHCH:  cpu time    0.0122: real time    0.0122
       DOS:  cpu time    0.0002: real time    0.0002
    CHARGE:  cpu time    0.2206: real time    0.2211
    MIXING:  cpu time    0.0712: real time    0.0714
    --------------------------------------------
      LOOP:  cpu time    4.1187: real time    4.1285

 eigenvalue-minimisations  :    64
 total energy-change (2. order) :-0.3526201E-02  (-0.1064772E-02)
 number of electron       8.0000001 magnetization 
 augmentation part        0.1834654 magnetization 

 Broyden mixing:
  rms(total) = 0.24807E-01    rms(broyden)= 0.24795E-01
  rms(prec ) = 0.32525E-01
  weight for this iteration     100.00

 eigenvalues of (default mixing * dielectric matrix)
  average eigenvalue GAMMA=   2.1168
  8.5272  5.5151  4.0319  3.0053  3.0053  2.4976  2.3514  1.9372  1.2299  1.2299
  1.2005  1.2005  0.7306  0.7306  0.9942  0.9942  1.0325  0.8331  0.8331  0.4564

 Free energy of the ion-electron system (eV)
  ---------------------------------------------------
  alpha Z        PSCENC =         0.24108157
[...]
  rms(prec ) = 0.14246E-03
  weight for this iteration     100.00

 eigenvalues of (default mixing * dielectric matrix)
  average eigenvalue GAMMA=   2.4117
  6.7967  6.0138  5.3406  4.3942  3.7774  3.7774  0.6725  0.6725  0.7978  0.7978
  0.8858  0.8858  2.4125  2.4125  0.9775  1.0680  1.2479  1.2479  1.2354  1.5403
  1.5403  1.5787  3.1926  2.0646  2.0646  1.9749  1.9749  2.9035  2.9035  2.9743
  2.6386  2.6386  2.8088  2.8088  2.3400  2.3400  2.2209  2.7153  2.7153  2.3586
  2.3586  2.3982  2.5242  2.5242  2.5420  2.6696  2.6205

 Free energy of the ion-electron system (eV)
  ---------------------------------------------------
  alpha Z        PSCENC =         0.24108157
  Ewald energy   TEWEN  =       130.25907615
  -Hartree energ DENC   =      -285.86310812
  -exchange      EXHF   =         0.00000000
  -V(xc)+E(xc)   XCENC  =        24.80251797
  PAW double counting   =       497.34203376     -498.13464647
  entropy T*S    EENTRO =         0.01203518
  eigenvalues    EBANDS =       -89.70063942
  atomic energy  EATOM  =       197.04175453
  Solvation  Ediel_sol  =         0.00000000
  ---------------------------------------------------
  free energy    TOTEN  =       -23.99989483 eV

  energy without entropy =      -24.01193001  energy(sigma->0) =      -24.00390656


--------------------------------------------------------------------------------------------------------




--------------------------------------- Iteration     10(  11)  ---------------------------------------


    POTLOK:  cpu time    1.5417: real time    1.5454
    SETDIJ:  cpu time    0.0057: real time    0.0057
    EDDIAG:  cpu time    0.3331: real time    0.3339
  RMM-DIIS:  cpu time    1.0191: real time    1.0216
    ORTHCH:  cpu time    0.0103: real time    0.0103
       DOS:  cpu time    0.0002: real time    0.0002
    CHARGE:  cpu time    0.2530: real time    0.2536
    MIXING:  cpu time    0.1217: real time    0.1220
    --------------------------------------------
      LOOP:  cpu time    3.2849: real time    3.2927

 eigenvalue-minimisations  :    48
 total energy-change (2. order) :-0.6052205E-05  (-0.7395299E-07)
 number of electron       8.0000002 magnetization 
 augmentation part        0.1874729 magnetization 

 Broyden mixing:
  rms(total) = 0.64473E-04    rms(broyden)= 0.64433E-04
  rms(prec ) = 0.88376E-04
  weight for this iteration     100.00

 eigenvalues of (default mixing * dielectric matrix)
  average eigenvalue GAMMA=   2.4168
  6.9608  6.0795  5.4553  4.7304  3.8845  3.8845  0.6684  0.6684  0.7935  0.7935
  1.2465  1.2465  0.8860  0.8860  0.9888  0.9888  1.0714  1.2526  2.4018  2.4018
  1.4622  1.6121  3.2566  2.0673  2.0673  1.9532  1.9532  3.0482  2.6286  2.6286
  2.2734  2.2734  2.9655  2.8194  2.8194  2.8263  2.2579  2.3572  2.3572  2.3533
  2.6817  2.6817  2.4254  2.6649  2.6225  2.5673  2.5673  2.5277

 Free energy of the ion-electron system (eV)
  ---------------------------------------------------
  alpha Z        PSCENC =         0.24108157
  Ewald energy   TEWEN  =       130.25907615
  -Hartree energ DENC   =      -285.86495553
  -exchange      EXHF   =         0.00000000
  -V(xc)+E(xc)   XCENC  =        24.80256519
  PAW double counting   =       497.30958130     -498.10221107
  entropy T*S    EENTRO =         0.01203538
  eigenvalues    EBANDS =       -89.69882842
  atomic energy  EATOM  =       197.04175453
  Solvation  Ediel_sol  =         0.00000000
  ---------------------------------------------------
  free energy    TOTEN  =       -23.99990089 eV

  energy without entropy =      -24.01193627  energy(sigma->0) =      -24.00391268


--------------------------------------------------------------------------------------------------------




--------------------------------------- Iteration     10(  12)  ---------------------------------------


    POTLOK:  cpu time    1.5653: real time    1.5690
    SETDIJ:  cpu time    0.0064: real time    0.0064
    EDDIAG:  cpu time    0.3355: real time    0.3363
  RMM-DIIS:  cpu time    1.0838: real time    1.0864
    ORTHCH:  cpu time    0.0216: real time    0.0217
       DOS:  cpu time    0.0003: real time    0.0003
    CHARGE:  cpu time    0.1736: real time    0.1740
    MIXING:  cpu time    0.1166: real time    0.1169
    --------------------------------------------
      LOOP:  cpu time    3.3031: real time    3.3110

 eigenvalue-minimisations  :    48
 total energy-change (2. order) :-0.3103768E-05  (-0.2175895E-07)
 number of electron       8.0000002 magnetization 
 augmentation part        0.1874730 magnetization 

 Broyden mixing:
  rms(total) = 0.39402E-04    rms(broyden)= 0.39386E-04
  rms(prec ) = 0.54958E-04
  weight for this iteration     100.00

 eigenvalues of (default mixing * dielectric matrix)
  average eigenvalue GAMMA=   2.4186
  6.9967  6.2086  5.3780  4.6860  4.2156  3.7348  0.6999  0.6999  0.8226  0.8226
  0.9227  0.9227  0.8884  0.9897  0.9897  1.1102  1.1986  1.1986  1.5607  1.5607
  2.3891  2.3891  1.6219  3.0232  3.0232  3.2473  2.1048  2.1048  2.6369  2.6369
  2.0486  2.0486  2.3812  2.3812  2.9106  2.2247  2.8449  2.7394  2.7394  2.3605
  2.3605  2.3959  2.5460  2.5460  2.5366  2.6998  2.6998  2.6331  2.6331

 Free energy of the ion-electron system (eV)
  ---------------------------------------------------
  alpha Z        PSCENC =         0.24108157
  Ewald energy   TEWEN  =       130.25907615
  -Hartree energ DENC   =      -285.86379448
  -exchange      EXHF   =         0.00000000
  -V(xc)+E(xc)   XCENC  =        24.80251547
  PAW double counting   =       497.31535743     -498.10797637
  entropy T*S    EENTRO =         0.01203548
  eigenvalues    EBANDS =       -89.69995377
  atomic energy  EATOM  =       197.04175453
  Solvation  Ediel_sol  =         0.00000000
  ---------------------------------------------------
  free energy    TOTEN  =       -23.99990399 eV

  energy without entropy =      -24.01193947  energy(sigma->0) =      -24.00391582


--------------------------------------------------------------------------------------------------------




--------------------------------------- Iteration     10(  13)  ---------------------------------------


    POTLOK:  cpu time    1.6045: real time    1.6083
    SETDIJ:  cpu time    0.0062: real time    0.0062
    EDDIAG:  cpu time    0.3354: real time    0.3362
  RMM-DIIS:  cpu time    1.0321: real time    1.0346
    ORTHCH:  cpu time    0.0114: real time    0.0114
       DOS:  cpu time    0.0002: real time    0.0002
    CHARGE:  cpu time    0.2143: real time    0.2148
    MIXING:  cpu time    0.1166: real time    0.1169
    --------------------------------------------
      LOOP:  cpu time    3.3207: real time    3.3286

 eigenvalue-minimisations  :    44
 total energy-change (2. order) :-0.1824163E-05  (-0.1375263E-07)
 number of electron       8.0000002 magnetization 
 augmentation part        0.1874736 magnetization 

 Broyden mixing:
  rms(total) = 0.40826E-04    rms(broyden)= 0.40824E-04
  rms(prec ) = 0.53745E-04
  weight for this iteration     100.00

 eigenvalues of (default mixing * dielectric matrix)
  average eigenvalue GAMMA=   2.4645
  6.8031  5.9909  4.8264  4.8264  3.9640  3.9640  0.7913  0.7913  0.8699  0.8699
  0.9615  1.0351  1.0351  1.0367  1.2758  1.2758  3.4003  1.5522  1.5522  3.1406
  2.2391  2.2391  1.6892  2.8656  2.8656  2.1271  2.1271  2.0439  2.8660  2.3969
  2.3969  2.2339  2.6724  2.6724  2.6943  2.6943  2.5921  2.5921  2.3951  2.3951
  2.3442  2.3442  2.5101  2.5101  2.4315

 Free energy of the ion-electron system (eV)
  ---------------------------------------------------
  alpha Z        PSCENC =         0.24108157
  Ewald energy   TEWEN  =       130.25907615
  -Hartree energ DENC   =      -285.86338650
  -exchange      EXHF   =         0.00000000
  -V(xc)+E(xc)   XCENC  =        24.80249795
  PAW double counting   =       497.31649168     -498.10910484
  entropy T*S    EENTRO =         0.01203667
  eigenvalues    EBANDS =       -89.70035304
  atomic energy  EATOM  =       197.04175453
  Solvation  Ediel_sol  =         0.00000000
  ---------------------------------------------------
  free energy    TOTEN  =       -23.99990581 eV

  energy without entropy =      -24.01194248  energy(sigma->0) =      -24.00391804


--------------------------------------------------------------------------------------------------------




--------------------------------------- Iteration     10(  14)  ---------------------------------------


    POTLOK:  cpu time    1.6194: real time    1.6232
    SETDIJ:  cpu time    0.0057: real time    0.0057
    EDDIAG:  cpu time    0.3364: real time    0.3372
  RMM-DIIS:  cpu time    0.8906: real time    0.8927
    ORTHCH:  cpu time    0.0114: real time    0.0114
       DOS:  cpu time    0.0002: real time    0.0002
    --------------------------------------------
      LOOP:  cpu time    2.8637: real time    2.8705

 eigenvalue-minimisations  :    32
 total energy-change (2. order) :-0.3512597E-06  ( 0.0000000E+00)
 number of electron       8.0000002 magnetization 
 augmentation part        0.1874736 magnetization 

 Free energy of the ion-electron system (eV)
  ---------------------------------------------------
  alpha Z        PSCENC =         0.24108157
  Ewald energy   TEWEN  =       130.25907615
  -Hartree energ DENC   =      -285.86358295
  -exchange      EXHF   =         0.00000000
  -V(xc)+E(xc)   XCENC  =        24.80250451
  PAW double counting   =       497.31609184     -498.10870845
  entropy T*S    EENTRO =         0.01203603
  eigenvalues    EBANDS =       -89.70015941
  atomic energy  EATOM  =       197.04175453
  Solvation  Ediel_sol  =         0.00000000
  ---------------------------------------------------
  free energy    TOTEN  =       -23.99990617 eV

  energy without entropy =      -24.01194220  energy(sigma->0) =      -24.00391818


--------------------------------------------------------------------------------------------------------




 average (electrostatic) potential at core
  the test charge radii are     0.5201  0.6991
  (the norm of the test charge is              1.0000)
       1 -41.5126       2 -41.6116       3 -41.5157       4 -41.4852       5 -57.9294



 E-fermi :  -8.8749     XC(G=0):  -0.6941     alpha+bet : -0.2097


 k-point     1 :       0.2500    0.2500    0.2500
  band No.  band energies     occupation 
      1     -16.9273      2.00000
      2      -9.4549      2.00032
      3      -9.4250      2.00071
      4      -9.0429      1.99908
      5      -0.3023      0.00000
      6       0.5490      0.00000
      7       0.6636      0.00000
      8       0.6991      0.00000

 k-point     2 :      -0.2500    0.2500    0.2500
  band No.  band energies     occupation 
      1     -16.9272      2.00000
      2      -9.4548      2.00032
      3      -9.4249      2.00071
      4      -9.0428      1.99892
      5      -0.3068      0.00000
      6       0.5640      0.00000
      7       0.6676      0.00000
      8       0.7026      0.00000

 k-point     3 :       0.2500   -0.2500    0.2500
  band No.  band energies     occupation 
      1     -16.9272      2.00000
      2      -9.4549      2.00032
      3      -9.4250      2.00070
      4      -9.0428      1.99884
      5      -0.3126      0.00000
      6       0.5716      0.00000
      7       0.6876      0.00000
      8       0.7192      0.00000

 k-point     4 :      -0.2500   -0.2500    0.2500
  band No.  band energies     occupation 
      1     -16.9272      2.00000
      2      -9.4549      2.00032
      3      -9.4249      2.00071
      4      -9.0429      1.99904
      5      -0.3058      0.00000
      6       0.5643      0.00000
      7       0.6692      0.00000
      8       0.6974      0.00000


--------------------------------------------------------------------------------------------------------


 soft charge-density along one line, spin component           1
         0         1         2         3         4         5         6         7         8         9
 total charge-density along one line

 pseudopotential strength for first ion, spin component:           1
 -2.341  -4.034  -0.001  -0.001   0.001
 -4.034  -6.865  -0.003  -0.004   0.002
 -0.001  -0.003  -0.337   0.002  -0.001
 -0.001  -0.004   0.002  -0.335  -0.001
  0.001   0.002  -0.001  -0.001  -0.338
 total augmentation occupancy for first ion, spin component:           1
  3.760  -0.715   0.289   0.302  -0.154
 -0.715   0.151  -0.055  -0.060   0.030
  0.289  -0.055   0.030   0.019  -0.011
  0.302  -0.060   0.019   0.027  -0.011
 -0.154   0.030  -0.011  -0.011   0.014


------------------------ aborting loop because EDIFF is reached ----------------------------------------


    CHARGE:  cpu time    0.1577: real time    0.1581
    FORLOC:  cpu time    0.1163: real time    0.1166
    FORNL :  cpu time    0.5289: real time    0.5302
    STRESS:  cpu time    1.7297: real time    1.7338
    FORCOR:  cpu time    1.7214: real time    1.7254
    FORHAR:  cpu time    0.5361: real time    0.5374
    MIXING:  cpu time    0.1158: real time    0.1160
    OFIELD:  cpu time    0.0000: real time    0.0000

  FORCE on cell =-STRESS in cart. coord.  units (eV):
  Direction    XX          YY          ZZ          XY          YZ          ZX
  --------------------------------------------------------------------------------------
  Alpha Z     0.24108     0.24108     0.24108
  Ewald      43.63354    44.81343    41.81208    -0.98282    -0.19818     4.63865
  Hartree    95.90767    94.60272    95.35341    -0.52052    -0.35832     1.33328
  E(xc)     -27.28497   -27.25800   -27.28480    -0.00303     0.00047     0.02429
  Local    -198.20446  -197.63338  -196.34055     1.37151     0.62548    -5.15157
  n-local   -16.29527   -14.73830   -15.49673     0.23760     0.09198    -0.06751
  augment     0.11284     0.11034     0.11761     0.00097    -0.00023    -0.00605
  Kinetic   101.98864   100.62067   101.97378     0.07392     0.04917    -1.19766
  Fock        0.00000     0.00000     0.00000     0.00000     0.00000     0.00000
  -------------------------------------------------------------------------------------
  Total       0.09907     0.75857     0.37588     0.17764     0.21038    -0.42657
  in kB       0.15796     1.20949     0.59932     0.28324     0.33544    -0.68015
  external pressure =        0.66 kB  Pullay stress =        0.00 kB

  kinetic pressure (ideal gas correction) =      0.06 kB
  total pressure  =      0.72 kB
  Total+kin.     0.215       1.283       0.662       0.301       0.280      -0.715

 VOLUME and BASIS-vectors are now :
 -----------------------------------------------------------------------------
  energy-cutoff  :      400.00
  volume of cell :     1004.85
      direct lattice vectors                 reciprocal lattice vectors
     9.929188456  0.000000000  0.000000000     0.100713165  0.002848455 -0.000681651
    -0.287049944 10.149259953  0.000000000    -0.000000000  0.098529351  0.002464240
     0.074541730 -0.249385062  9.971329343     0.000000000 -0.000000000  0.100287531

  length of vectors
     9.929188456 10.153318436  9.974725974     0.100755744  0.098560162  0.100287531


 FORCES acting on ions
    electron-ion (+dipol)            ewald-force                    non-local-force                 convergence-correction
 -----------------------------------------------------------------------------------------------
   -.168E+02 0.313E+02 0.397E+02   0.188E+02 -.345E+02 -.441E+02   -.150E+01 0.306E+01 0.417E+01   0.171E-04 0.163E-04 -.328E-04
   0.528E+02 -.606E+01 0.686E+01   -.590E+02 0.675E+01 -.742E+01   0.612E+01 -.506E+00 0.512E+00   -.225E-04 0.382E-04 -.208E-04
   -.231E+02 -.477E+02 0.118E+01   0.257E+02 0.527E+02 -.136E+01   -.219E+01 -.449E+01 0.214E+00   0.105E-04 0.328E-04 -.104E-04
   -.120E+02 0.248E+02 -.451E+02   0.131E+02 -.272E+02 0.498E+02   -.856E+00 0.238E+01 -.427E+01   0.204E-04 0.171E-04 0.168E-04
   -.124E+01 -.218E+01 -.278E+01   0.148E+01 0.235E+01 0.309E+01   -.726E+00 0.948E-01 -.905E+00   0.686E-04 0.259E-03 -.116E-03
 -----------------------------------------------------------------------------------------------
   -.418E+00 0.132E+00 -.162E+00   0.355E-14 0.000E+00 -.142E-13   0.860E+00 0.549E+00 -.273E+00   0.940E-04 0.364E-03 -.163E-03


 POSITION                                       TOTAL-FORCE (eV/Angst)
 -----------------------------------------------------------------------------------
      5.24136      3.99060      3.63228         0.492489     -0.191159     -0.255617
      3.83351      4.74999      4.30445        -0.086738      0.182658     -0.048558
      5.37743      5.61542      4.41873         0.320739      0.476769      0.032604
      5.14810      4.11262      5.38164         0.206521     -0.052982      0.438623
      4.89905      4.63114      4.44615        -0.490686      0.265838     -0.602216
 -----------------------------------------------------------------------------------
    total drift:                                0.442324      0.681123     -0.435164


--------------------------------------------------------------------------------------------------------



  FREE ENERGIE OF THE ION-ELECTRON SYSTEM (eV)
  ---------------------------------------------------
  free  energy   TOTEN  =       -23.99990617 eV

  energy  without entropy=      -24.01194220  energy(sigma->0) =      -24.00391818

 d Force = 0.5907864E-01[ 0.123E-01, 0.106E+00]  d Energy = 0.3641416E-01 0.227E-01
 d Force = 0.1141979E+01[ 0.117E+01, 0.111E+01]  d Ewald  = 0.1144080E+01-0.210E-02


--------------------------------------------------------------------------------------------------------


    POTLOK:  cpu time    1.6620: real time    1.6660


--------------------------------------------------------------------------------------------------------


           RANDOM_SEED =         578496012               30                0
   IONSTEP:  cpu time    0.0001: real time    0.0001

  ENERGY OF THE ELECTRON-ION-THERMOSTAT SYSTEM (eV)
  ---------------------------------------------------
% ion-electron   TOTEN  =       -23.999906  see above
  kinetic energy EKIN   =         0.065879
  kin. lattice  EKIN_LAT=         0.000000  (temperature  127.42 K)
  nose potential ES     =         0.020626
  nose kinetic   EPS    =         0.014044
  ---------------------------------------------------
  total energy   ETOTAL =       -23.899357 eV

  maximum distance moved by ions :      0.62E-02


 mean value of Nose-termostat <S>:     1.631 mean value of <T> :   127.416
 mean temperature <T/S>/<1/S>  :   127.416

    WAVPRE:  cpu time    0.5271: real time    0.5352
    FEWALD:  cpu time    0.0003: real time    0.0003
    ORTHCH:  cpu time    0.1832: real time    0.1836
 Prediction of Wavefunctions ALPHA= 1.096 BETA=-0.394
    POTLOK:  cpu time    1.6206: real time    1.6244
    EDDIAG:  cpu time    0.3441: real time    0.3449
     LOOP+:  cpu time   56.6626: real time   56.8098
    4ORBIT:  cpu time    0.0000: real time    0.0000

 total amount of memory used by VASP MPI-rank0   322004. kBytes
=======================================================================

   base      :      30000. kBytes
   nonlr-proj:        167. kBytes
   fftplans  :      94700. kBytes
   grid      :     169030. kBytes
   one-center:         15. kBytes
   wavefun   :      28092. kBytes

  
  
 General timing and accounting informations for this job:
 ========================================================
  
                  Total CPU time used (sec):      983.267
                            User time (sec):      964.503
                          System time (sec):       18.763
                         Elapsed time (sec):      988.037
  
                   Maximum memory used (kb):      501652.
                   Average memory used (kb):           0.
  
                          Minor page faults:      2987258
                          Major page faults:            0
                 Voluntary context switches:          410
