 running on    1 total cores
 distrk:  each k-point on    1 cores,    1 groups
 distr:  one band on    1 cores,    1 groups
 using from now: INCAR     
 vasp.5.4.4.18Apr17-6-g9f103f2a35 (build Jul 12 2018 13:43:46) complex           
 POSCAR found type information on POSCAR  H  C 
 POSCAR found :  2 types and       5 ions
 scaLAPACK will be used

 ----------------------------------------------------------------------------- 
|                                                                             |
|  ADVICE TO THIS USER RUNNING 'VASP/VAMP'   (HEAR YOUR MASTER'S VOICE ...):  |
|                                                                             |
|      You have a (more or less) 'small supercell' and for smaller cells      |
|      it is recommended  to use the reciprocal-space projection scheme!      |
|      The real space optimization is not  efficient for small cells and it   |
|      is also less accurate ...                                              |
|      Therefore set LREAL=.FALSE. in the  INCAR file                         |
|                                                                             |
 ----------------------------------------------------------------------------- 


 ----------------------------------------------------------------------------- 
|                                                                             |
|           W    W    AA    RRRRR   N    N  II  N    N   GGGG   !!!           |
|           W    W   A  A   R    R  NN   N  II  NN   N  G    G  !!!           |
|           W    W  A    A  R    R  N N  N  II  N N  N  G       !!!           |
|           W WW W  AAAAAA  RRRRR   N  N N  II  N  N N  G  GGG   !            |
|           WW  WW  A    A  R   R   N   NN  II  N   NN  G    G                |
|           W    W  A    A  R    R  N    N  II  N    N   GGGG   !!!           |
|                                                                             |
|     The real-space-projection scheme for the treatment of the nonlocal      |
|     pseudopotentials has been switched on -- but on file POTCAR I have      |
|     not found any entries signalling me that you have ever performed a      |
|     real-space optimization of all nonlocal projectors! BE WARNED that      |
|     a calculation using the real-space-projection scheme together with      |
|     nonlocal projectors which were not real-space-optimized (according      |
|     to the plane-wave-cutoff used in this calculation) might give more      |
|     or less inaccurate results                                              |
|     I hope you know what you are doing                                      |
|                                                                             |
 ----------------------------------------------------------------------------- 

 LDA part: xc-table for Pade appr. of Perdew
 generate k-points for:    2    2    2
 POSCAR, INCAR and KPOINTS ok, starting setup
 FFT: planning ...
 WAVECAR not read
 prediction of wavefunctions initialized - no I/O
 entering main loop
       N       E                     dE             d eps       ncg     rms          rms(c)
DAV:   1     0.154805597673E+02    0.15481E+02   -0.20170E+03    96   0.421E+02
DAV:   2    -0.231075019648E+02   -0.38588E+02   -0.38588E+02    72   0.113E+02
DAV:   3    -0.273380787057E+02   -0.42306E+01   -0.42471E+01    64   0.434E+01
DAV:   4    -0.275079935488E+02   -0.16991E+00   -0.16950E+00   128   0.971E+00
DAV:   5    -0.275080416752E+02   -0.48126E-04   -0.48128E-04   104   0.186E-01    0.877E+00
RMM:   6    -0.246301604888E+02    0.28779E+01   -0.53329E+00    64   0.141E+01    0.440E+00
RMM:   7    -0.241428951606E+02    0.48727E+00   -0.11967E+00    64   0.632E+00    0.239E+00
RMM:   8    -0.240171409279E+02    0.12575E+00   -0.11609E-01    64   0.229E+00    0.946E-01
RMM:   9    -0.239888972645E+02    0.28244E-01   -0.32573E-02    64   0.133E+00    0.263E-01
RMM:  10    -0.239873908950E+02    0.15064E-02   -0.93835E-03    64   0.529E-01    0.189E-01
RMM:  11    -0.239809579345E+02    0.64330E-02   -0.55013E-03    64   0.456E-01    0.167E-01
RMM:  12    -0.239858473224E+02   -0.48894E-02   -0.24403E-03    64   0.308E-01    0.287E-01
RMM:  13    -0.239907924284E+02   -0.49451E-02   -0.21970E-03    64   0.290E-01    0.116E-01
RMM:  14    -0.239921244798E+02   -0.13321E-02   -0.96399E-04    64   0.197E-01    0.347E-02
RMM:  15    -0.239945527612E+02   -0.24283E-02   -0.66703E-04    64   0.154E-01    0.585E-02
RMM:  16    -0.239947187871E+02   -0.16603E-03   -0.73056E-05    64   0.483E-02    0.149E-02
RMM:  17    -0.239949555737E+02   -0.23679E-03   -0.61977E-05    64   0.486E-02    0.211E-02
RMM:  18    -0.239950050063E+02   -0.49433E-04   -0.92344E-06    64   0.196E-02    0.285E-03
RMM:  19    -0.239950335042E+02   -0.28498E-04   -0.10697E-05    64   0.188E-02    0.415E-03
RMM:  20    -0.239950364128E+02   -0.29086E-05   -0.16980E-06    48   0.814E-03    0.753E-04
RMM:  21    -0.239950390003E+02   -0.25875E-05   -0.66860E-07    48   0.616E-03    0.450E-04
RMM:  22    -0.239950397872E+02   -0.78690E-06   -0.14938E-07    44   0.319E-03
    1 T=    74. E= -.23956537E+02 F= -.23995040E+02 E0= -.24004760E+02  EK= 0.38483E-01 SP= 0.00E+00 SK= 0.19E-04
 bond charge predicted
       N       E                     dE             d eps       ncg     rms          rms(c)
DAV:   1    -0.240216954794E+02   -0.26656E-01   -0.18478E+00    64   0.135E+01    0.593E-01
RMM:   2    -0.240169810501E+02    0.47144E-02   -0.82607E-02    64   0.203E+00    0.413E-01
RMM:   3    -0.240138025467E+02    0.31785E-02   -0.20488E-02    64   0.922E-01    0.372E-01
RMM:   4    -0.240173287479E+02   -0.35262E-02   -0.10648E-02    64   0.612E-01    0.248E-01
RMM:   5    -0.240177281992E+02   -0.39945E-03   -0.34138E-04    64   0.146E-01    0.236E-01
RMM:   6    -0.240170651272E+02    0.66307E-03   -0.67115E-03    64   0.470E-01    0.124E-01
RMM:   7    -0.240170635801E+02    0.15472E-05   -0.18133E-04    64   0.104E-01    0.108E-01
RMM:   8    -0.240172003219E+02   -0.13674E-03   -0.62006E-04    64   0.154E-01    0.185E-02
RMM:   9    -0.240172958052E+02   -0.95483E-04   -0.51130E-05    64   0.493E-02    0.170E-02
RMM:  10    -0.240173408986E+02   -0.45093E-04   -0.16315E-05    64   0.255E-02    0.180E-02
RMM:  11    -0.240173713003E+02   -0.30402E-04   -0.13540E-05    64   0.216E-02    0.869E-03
RMM:  12    -0.240173946523E+02   -0.23352E-04   -0.27698E-05    64   0.319E-02    0.500E-03
RMM:  13    -0.240174021303E+02   -0.74780E-05   -0.98494E-07    48   0.781E-03    0.392E-03
RMM:  14    -0.240174048345E+02   -0.27042E-05   -0.33558E-06    60   0.107E-02    0.144E-03
RMM:  15    -0.240174067452E+02   -0.19106E-05   -0.24940E-07    48   0.385E-03    0.847E-04
RMM:  16    -0.240174074609E+02   -0.71576E-06   -0.61299E-08    44   0.201E-03
    2 T=   123. E= -.23953277E+02 F= -.24017407E+02 E0= -.24027367E+02  EK= 0.63344E-01 SP= 0.31E-03 SK= 0.48E-03
 bond charge predicted
 prediction of wavefunctions
       N       E                     dE             d eps       ncg     rms          rms(c)
DAV:   1    -0.239649404105E+02    0.52466E-01   -0.49004E-01    64   0.707E+00    0.642E-01
RMM:   2    -0.239604534607E+02    0.44869E-02   -0.25724E-02    64   0.118E+00    0.254E-01
RMM:   3    -0.239600622795E+02    0.39118E-03   -0.24913E-02    64   0.880E-01    0.227E-01
RMM:   4    -0.239595911732E+02    0.47111E-03   -0.76130E-03    64   0.520E-01    0.553E-02
RMM:   5    -0.239600019748E+02   -0.41080E-03   -0.93473E-04    64   0.205E-01    0.844E-02
RMM:   6    -0.239599884561E+02    0.13519E-04   -0.10716E-03    64   0.188E-01    0.365E-02
RMM:   7    -0.239600104098E+02   -0.21954E-04   -0.56128E-05    64   0.522E-02    0.196E-02
RMM:   8    -0.239600534553E+02   -0.43046E-04   -0.65196E-05    64   0.477E-02    0.737E-03
RMM:   9    -0.239600811833E+02   -0.27728E-04   -0.37159E-06    60   0.131E-02    0.843E-03
RMM:  10    -0.239600888450E+02   -0.76617E-05   -0.46563E-06    64   0.126E-02    0.461E-03
RMM:  11    -0.239600950513E+02   -0.62063E-05   -0.11054E-06    48   0.716E-03    0.248E-03
RMM:  12    -0.239600969398E+02   -0.18885E-05   -0.48186E-07    48   0.499E-03    0.186E-03
RMM:  13    -0.239600982130E+02   -0.12732E-05   -0.29771E-07    48   0.383E-03    0.107E-03
RMM:  14    -0.239600988202E+02   -0.60721E-06   -0.16663E-07    48   0.309E-03
    3 T=    64. E= -.23924271E+02 F= -.23960099E+02 E0= -.23966722E+02  EK= 0.32915E-01 SP= 0.15E-02 SK= 0.14E-02
 bond charge predicted
 prediction of wavefunctions
       N       E                     dE             d eps       ncg     rms          rms(c)
DAV:   1    -0.239699401788E+02   -0.98420E-02   -0.11744E+00    64   0.103E+01    0.508E-01
RMM:   2    -0.240025505123E+02   -0.32610E-01   -0.28947E-01    64   0.313E+00    0.114E+00
RMM:   3    -0.239687821131E+02    0.33768E-01   -0.13548E-01    64   0.212E+00    0.359E-01
RMM:   4    -0.239667239454E+02    0.20582E-02   -0.39841E-03    64   0.476E-01    0.235E-01
RMM:   5    -0.239656825580E+02    0.10414E-02   -0.16119E-03    64   0.252E-01    0.202E-01
RMM:   6    -0.239652050805E+02    0.47748E-03   -0.76362E-04    64   0.165E-01    0.161E-01
RMM:   7    -0.239649672309E+02    0.23785E-03   -0.63092E-04    64   0.152E-01    0.113E-01
RMM:   8    -0.239648147766E+02    0.15245E-03   -0.26989E-04    64   0.104E-01    0.698E-02
RMM:   9    -0.239648133408E+02    0.14357E-05   -0.31845E-04    64   0.110E-01    0.473E-02
RMM:  10    -0.239648042780E+02    0.90628E-05   -0.10293E-04    64   0.647E-02    0.316E-02
RMM:  11    -0.239648342949E+02   -0.30017E-04   -0.61055E-05    64   0.515E-02    0.233E-02
RMM:  12    -0.239648309451E+02    0.33498E-05   -0.98470E-06    64   0.208E-02    0.919E-03
RMM:  13    -0.239648405534E+02   -0.96083E-05   -0.17370E-05    64   0.248E-02    0.545E-03
RMM:  14    -0.239648448782E+02   -0.43249E-05   -0.16821E-06    48   0.907E-03    0.538E-03
RMM:  15    -0.239648480670E+02   -0.31887E-05   -0.17698E-06    52   0.887E-03    0.322E-03
RMM:  16    -0.239648489120E+02   -0.84500E-06   -0.28678E-07    48   0.426E-03
    4 T=    71. E= -.23923147E+02 F= -.23964849E+02 E0= -.23973193E+02  EK= 0.36877E-01 SP= 0.29E-02 SK= 0.19E-02
 bond charge predicted
 prediction of wavefunctions
       N       E                     dE             d eps       ncg     rms          rms(c)
DAV:   1    -0.239456777910E+02    0.19170E-01   -0.83183E-01    64   0.847E+00    0.524E-01
RMM:   2    -0.239471014026E+02   -0.14236E-02   -0.49691E-02    64   0.162E+00    0.472E-01
RMM:   3    -0.239423723417E+02    0.47291E-02   -0.89773E-03    64   0.638E-01    0.267E-01
RMM:   4    -0.239444958440E+02   -0.21235E-02   -0.32296E-03    64   0.366E-01    0.359E-01
RMM:   5    -0.239435164259E+02    0.97942E-03   -0.96286E-04    64   0.210E-01    0.215E-01
RMM:   6    -0.239434651570E+02    0.51269E-04   -0.72987E-03    64   0.511E-01    0.936E-02
RMM:   7    -0.239433468639E+02    0.11829E-03   -0.48816E-04    64   0.145E-01    0.625E-02
RMM:   8    -0.239434017923E+02   -0.54928E-04   -0.17756E-04    64   0.871E-02    0.638E-02
RMM:   9    -0.239433977292E+02    0.40630E-05   -0.14923E-04    64   0.735E-02    0.676E-02
RMM:  10    -0.239433320105E+02    0.65719E-04   -0.51626E-05    64   0.465E-02    0.667E-02
RMM:  11    -0.239432327832E+02    0.99227E-04   -0.59777E-05    64   0.487E-02    0.716E-02
RMM:  12    -0.239432782748E+02   -0.45492E-04   -0.16015E-05    64   0.262E-02    0.664E-02
RMM:  13    -0.239432108075E+02    0.67467E-04   -0.21768E-05    64   0.288E-02    0.725E-02
RMM:  14    -0.239432752569E+02   -0.64449E-04   -0.19289E-05    64   0.268E-02    0.664E-02
RMM:  15    -0.239435469918E+02   -0.27173E-03   -0.48351E-04    64   0.131E-01    0.522E-02
RMM:  16    -0.239438585589E+02   -0.31157E-03   -0.47694E-04    64   0.132E-01    0.791E-02
RMM:  17    -0.239437484850E+02    0.11007E-03   -0.42634E-05    64   0.455E-02    0.627E-02
RMM:  18    -0.239434506249E+02    0.29786E-03   -0.54606E-04    64   0.141E-01    0.579E-02
RMM:  19    -0.239421542953E+02    0.12963E-02   -0.39509E-03    64   0.380E-01    0.110E-01
RMM:  20    -0.239415485654E+02    0.60573E-03   -0.13728E-03    64   0.229E-01    0.904E-02
RMM:  21    -0.239416831373E+02   -0.13457E-03   -0.41533E-05    64   0.563E-02    0.945E-02
RMM:  22    -0.239417429845E+02   -0.59847E-04   -0.14196E-05    64   0.240E-02    0.968E-02
RMM:  23    -0.239417067018E+02    0.36283E-04   -0.26694E-06    56   0.110E-02    0.954E-02
RMM:  24    -0.239417156576E+02   -0.89558E-05   -0.28096E-07    48   0.427E-03    0.959E-02
RMM:  25    -0.239417324876E+02   -0.16830E-04   -0.77684E-07    48   0.557E-03    0.967E-02
RMM:  26    -0.239417469817E+02   -0.14494E-04   -0.67128E-07    48   0.540E-03    0.972E-02
RMM:  27    -0.239417909112E+02   -0.43929E-04   -0.60156E-06    60   0.151E-02    0.988E-02
RMM:  28    -0.239416873612E+02    0.10355E-03   -0.25265E-05    64   0.308E-02    0.944E-02
RMM:  29    -0.239414470737E+02    0.24029E-03   -0.17769E-04    64   0.808E-02    0.796E-02
RMM:  30    -0.239414298367E+02    0.17237E-04   -0.67226E-06    60   0.188E-02    0.780E-02
RMM:  31    -0.239414553110E+02   -0.25474E-04   -0.19586E-06    52   0.941E-03    0.799E-02
RMM:  32    -0.239415623728E+02   -0.10706E-03   -0.40564E-05    64   0.387E-02    0.864E-02
RMM:  33    -0.239415462935E+02    0.16079E-04   -0.64010E-07    48   0.715E-03    0.854E-02
RMM:  34    -0.239414149649E+02    0.13133E-03   -0.58672E-05    64   0.461E-02    0.753E-02
RMM:  35    -0.239412579333E+02    0.15703E-03   -0.12959E-04    64   0.690E-02    0.582E-02
RMM:  36    -0.239412311271E+02    0.26806E-04   -0.14925E-05    64   0.256E-02    0.536E-02
RMM:  37    -0.239411330294E+02    0.98098E-04   -0.11292E-04    64   0.647E-02    0.350E-02
RMM:  38    -0.239410878087E+02    0.45221E-04   -0.83837E-05    64   0.559E-02    0.196E-02
RMM:  39    -0.239410780278E+02    0.97808E-05   -0.20586E-05    64   0.286E-02    0.129E-02
RMM:  40    -0.239410734858E+02    0.45420E-05   -0.20630E-05    64   0.282E-02    0.466E-03
RMM:  41    -0.239410743165E+02   -0.83074E-06   -0.18413E-06    52   0.101E-02
    5 T=    75. E= -.23894748E+02 F= -.23941074E+02 E0= -.23945300E+02  EK= 0.39024E-01 SP= 0.46E-02 SK= 0.27E-02
 bond charge predicted
 prediction of wavefunctions
       N       E                     dE             d eps       ncg     rms          rms(c)
DAV:   1    -0.239874222329E+02   -0.46349E-01   -0.18273E+00    64   0.134E+01    0.509E-01
RMM:   2    -0.239820793835E+02    0.53428E-02   -0.27573E-02    64   0.138E+00    0.538E-01
RMM:   3    -0.241886130210E+02   -0.20653E+00   -0.66438E-01    64   0.494E+00    0.202E+00
RMM:   4    -0.255761040503E+02   -0.13875E+01   -0.85856E+00    64   0.175E+01    0.595E+00
RMM:   5    -0.242267581995E+02    0.13493E+01   -0.12181E+00    64   0.676E+00    0.249E+00
RMM:   6    -0.239991406058E+02    0.22762E+00   -0.53712E-01    64   0.453E+00    0.761E-01
RMM:   7    -0.239983744837E+02    0.76612E-03   -0.19273E-02    64   0.102E+00    0.693E-01
RMM:   8    -0.240637537405E+02   -0.65379E-01   -0.51757E-01    64   0.445E+00    0.120E+00
RMM:   9    -0.239851264460E+02    0.78627E-01   -0.14401E-01    64   0.234E+00    0.292E-01
RMM:  10    -0.239931370050E+02   -0.80106E-02   -0.26818E-02    64   0.101E+00    0.682E-01
RMM:  11    -0.239877042757E+02    0.54327E-02   -0.99297E-04    64   0.219E-01    0.361E-01
RMM:  12    -0.239855922742E+02    0.21120E-02   -0.86517E-03    64   0.566E-01    0.250E-01
RMM:  13    -0.239856685402E+02   -0.76266E-04   -0.41727E-04    64   0.147E-01    0.246E-01
RMM:  14    -0.239856250307E+02    0.43509E-04   -0.30719E-05    64   0.407E-02    0.245E-01
RMM:  15    -0.239855637958E+02    0.61235E-04   -0.16281E-05    64   0.289E-02    0.247E-01
RMM:  16    -0.239858975665E+02   -0.33377E-03   -0.54007E-04    64   0.150E-01    0.255E-01
RMM:  17    -0.240054406201E+02   -0.19543E-01   -0.31512E-02    64   0.108E+00    0.988E-01
RMM:  18    -0.240052896317E+02    0.15099E-03   -0.20970E-03    64   0.328E-01    0.104E+00
RMM:  19    -0.239917205547E+02    0.13569E-01   -0.31220E-03    64   0.329E-01    0.676E-01
RMM:  20    -0.239853209136E+02    0.63996E-02   -0.91953E-03    64   0.568E-01    0.169E-01
RMM:  21    -0.239861365960E+02   -0.81568E-03   -0.57591E-04    64   0.178E-01    0.190E-01
RMM:  22    -0.239855075750E+02    0.62902E-03   -0.39013E-03    64   0.370E-01    0.129E-01
RMM:  23    -0.239853006772E+02    0.20690E-03   -0.39762E-04    64   0.140E-01    0.907E-02
RMM:  24    -0.239854098100E+02   -0.10913E-03   -0.12535E-03    64   0.212E-01    0.702E-02
RMM:  25    -0.239852847736E+02    0.12504E-03   -0.10191E-03    64   0.203E-01    0.644E-02
RMM:  26    -0.239853095250E+02   -0.24751E-04   -0.11596E-04    64   0.700E-02    0.692E-02
RMM:  27    -0.239852825754E+02    0.26950E-04   -0.12702E-05    64   0.275E-02    0.603E-02
RMM:  28    -0.239853817108E+02   -0.99135E-04   -0.92353E-04    64   0.179E-01    0.446E-02
RMM:  29    -0.239853479582E+02    0.33753E-04   -0.17679E-05    64   0.333E-02    0.420E-02
RMM:  30    -0.239852881500E+02    0.59808E-04   -0.12247E-04    64   0.630E-02    0.346E-02
RMM:  31    -0.239852771657E+02    0.10984E-04   -0.18833E-05    64   0.276E-02    0.302E-02
RMM:  32    -0.239852984408E+02   -0.21275E-04   -0.33409E-05    64   0.340E-02    0.340E-02
RMM:  33    -0.239852871960E+02    0.11245E-04   -0.61292E-06    60   0.154E-02    0.305E-02
RMM:  34    -0.239852875910E+02   -0.39504E-06   -0.94812E-08    48   0.270E-03
    6 T=   136. E= -.23903315E+02 F= -.23985288E+02 E0= -.23994083E+02  EK= 0.70143E-01 SP= 0.66E-02 SK= 0.52E-02
 bond charge predicted
 prediction of wavefunctions
       N       E                     dE             d eps       ncg     rms          rms(c)
DAV:   1    -0.239897403235E+02   -0.44531E-02   -0.89628E-01    64   0.885E+00    0.685E-01
RMM:   2    -0.241474164047E+02   -0.15768E+00   -0.30359E-01    64   0.341E+00    0.192E+00
RMM:   3    -0.239828884520E+02    0.16453E+00   -0.27388E-01    64   0.315E+00    0.640E-01
RMM:   4    -0.239793903522E+02    0.34981E-02   -0.17059E-01    64   0.250E+00    0.425E-01
RMM:   5    -0.239766372720E+02    0.27531E-02   -0.42103E-03    64   0.527E-01    0.385E-01
RMM:   6    -0.239730092438E+02    0.36280E-02   -0.22750E-02    64   0.888E-01    0.301E-01
RMM:   7    -0.239763023816E+02   -0.32931E-02   -0.77995E-03    64   0.540E-01    0.396E-01
RMM:   8    -0.239747362107E+02    0.15662E-02   -0.54159E-04    64   0.162E-01    0.353E-01
RMM:   9    -0.239756446381E+02   -0.90843E-03   -0.43930E-04    64   0.125E-01    0.368E-01
RMM:  10    -0.239770970861E+02   -0.14524E-02   -0.11522E-03    64   0.207E-01    0.392E-01
RMM:  11    -0.239773166406E+02   -0.21955E-03   -0.13508E-04    64   0.808E-02    0.399E-01
RMM:  12    -0.239778736960E+02   -0.55706E-03   -0.10813E-04    64   0.648E-02    0.410E-01
RMM:  13    -0.239779549524E+02   -0.81256E-04   -0.12170E-05    64   0.242E-02    0.412E-01
RMM:  14    -0.239793153061E+02   -0.13604E-02   -0.39352E-04    64   0.123E-01    0.439E-01
RMM:  15    -0.239793064734E+02    0.88327E-05   -0.31529E-05    64   0.387E-02    0.437E-01
RMM:  16    -0.239790225614E+02    0.28391E-03   -0.92518E-06    64   0.205E-02    0.430E-01
RMM:  17    -0.239783618587E+02    0.66070E-03   -0.50682E-05    64   0.455E-02    0.414E-01
RMM:  18    -0.239766087161E+02    0.17531E-02   -0.42322E-04    64   0.125E-01    0.370E-01
RMM:  19    -0.239748114019E+02    0.17973E-02   -0.63344E-04    64   0.158E-01    0.313E-01
RMM:  20    -0.239733894408E+02    0.14220E-02   -0.62713E-04    64   0.159E-01    0.255E-01
RMM:  21    -0.239719430623E+02    0.14464E-02   -0.10902E-03    64   0.210E-01    0.175E-01
RMM:  22    -0.239709893748E+02    0.95369E-03   -0.14914E-03    64   0.244E-01    0.849E-02
RMM:  23    -0.239707786456E+02    0.21073E-03   -0.63312E-04    64   0.162E-01    0.324E-02
RMM:  24    -0.239707642806E+02    0.14365E-04   -0.19716E-04    64   0.936E-02    0.435E-03
RMM:  25    -0.239707761473E+02   -0.11867E-04   -0.33714E-05    64   0.410E-02    0.922E-03
RMM:  26    -0.239707789010E+02   -0.27537E-05   -0.25999E-06    56   0.126E-02    0.639E-03
RMM:  27    -0.239707790636E+02   -0.16266E-06   -0.28847E-06    56   0.111E-02
    7 T=    90. E= -.23905754E+02 F= -.23970779E+02 E0= -.23974759E+02  EK= 0.46431E-01 SP= 0.97E-02 SK= 0.89E-02
 bond charge predicted
 prediction of wavefunctions
       N       E                     dE             d eps       ncg     rms          rms(c)
DAV:   1    -0.239688641298E+02    0.19148E-02   -0.88314E-01    64   0.934E+00    0.572E-01
RMM:   2    -0.241590252091E+02   -0.19016E+00   -0.53014E-01    64   0.445E+00    0.193E+00
RMM:   3    -0.242699096081E+02   -0.11088E+00   -0.99041E-02    64   0.204E+00    0.249E+00
RMM:   4    -0.239811986354E+02    0.28871E+00   -0.52691E-01    64   0.431E+00    0.720E-01
RMM:   5    -0.239685961465E+02    0.12602E-01   -0.16293E-01    64   0.250E+00    0.349E-01
RMM:   6    -0.239716751786E+02   -0.30790E-02   -0.13738E-02    64   0.813E-01    0.399E-01
RMM:   7    -0.239690373575E+02    0.26378E-02   -0.26993E-03    64   0.362E-01    0.302E-01
RMM:   8    -0.239651182867E+02    0.39191E-02   -0.82216E-03    64   0.549E-01    0.830E-02
RMM:   9    -0.239650624683E+02    0.55818E-04   -0.35584E-04    64   0.129E-01    0.622E-02
RMM:  10    -0.239650000920E+02    0.62376E-04   -0.22111E-04    64   0.946E-02    0.379E-02
RMM:  11    -0.239649861635E+02    0.13928E-04   -0.73059E-05    64   0.552E-02    0.206E-02
RMM:  12    -0.239649882178E+02   -0.20543E-05   -0.76186E-05    64   0.562E-02    0.898E-03
RMM:  13    -0.239649954722E+02   -0.72544E-05   -0.84185E-06    64   0.205E-02    0.217E-03
RMM:  14    -0.239649975082E+02   -0.20360E-05   -0.11041E-06    48   0.768E-03    0.109E-03
RMM:  15    -0.239649987653E+02   -0.12572E-05   -0.23240E-07    48   0.397E-03    0.403E-04
RMM:  16    -0.239649993225E+02   -0.55711E-06   -0.11420E-07    48   0.256E-03
    8 T=    51. E= -.23915230E+02 F= -.23964999E+02 E0= -.23968883E+02  EK= 0.26245E-01 SP= 0.13E-01 SK= 0.10E-01
 bond charge predicted
 prediction of wavefunctions
       N       E                     dE             d eps       ncg     rms          rms(c)
DAV:   1    -0.239656305326E+02   -0.63177E-03   -0.81243E-01    64   0.848E+00    0.429E-01
RMM:   2    -0.239937681165E+02   -0.28138E-01   -0.96290E-02    64   0.213E+00    0.101E+00
RMM:   3    -0.239606808844E+02    0.33087E-01   -0.76095E-02    64   0.186E+00    0.188E-01
RMM:   4    -0.239617735111E+02   -0.10926E-02   -0.45799E-03    64   0.460E-01    0.135E-01
RMM:   5    -0.239628578498E+02   -0.10843E-02   -0.29005E-03    64   0.335E-01    0.155E-01
RMM:   6    -0.239629426845E+02   -0.84835E-04   -0.10793E-03    64   0.206E-01    0.642E-02
RMM:   7    -0.239631941409E+02   -0.25146E-03   -0.74325E-04    64   0.180E-01    0.275E-02
RMM:   8    -0.239633402298E+02   -0.14609E-03   -0.13701E-04    64   0.724E-02    0.117E-02
RMM:   9    -0.239634197553E+02   -0.79526E-04   -0.29598E-05    64   0.313E-02    0.290E-03
RMM:  10    -0.239634634288E+02   -0.43673E-04   -0.38678E-06    60   0.107E-02    0.200E-03
RMM:  11    -0.239634800356E+02   -0.16607E-04   -0.11888E-06    48   0.603E-03    0.895E-04
RMM:  12    -0.239634884279E+02   -0.83923E-05   -0.37932E-07    48   0.381E-03    0.658E-04
RMM:  13    -0.239634902925E+02   -0.18646E-05   -0.14599E-07    44   0.216E-03    0.143E-04
RMM:  14    -0.239634916573E+02   -0.13647E-05   -0.53668E-08    40   0.168E-03    0.187E-04
RMM:  15    -0.239634920082E+02   -0.35096E-06   -0.27189E-08    36   0.131E-03
    9 T=    57. E= -.23906781E+02 F= -.23963492E+02 E0= -.23967379E+02  EK= 0.29290E-01 SP= 0.17E-01 SK= 0.10E-01
 bond charge predicted
 prediction of wavefunctions
       N       E                     dE             d eps       ncg     rms          rms(c)
DAV:   1    -0.240018701596E+02   -0.38379E-01   -0.11445E+00    64   0.105E+01    0.440E-01
RMM:   2    -0.239975603701E+02    0.43098E-02   -0.25600E-02    64   0.125E+00    0.294E-01
RMM:   3    -0.239986527809E+02   -0.10924E-02   -0.13384E-02    64   0.692E-01    0.140E-01
RMM:   4    -0.239992076519E+02   -0.55487E-03   -0.21513E-03    64   0.291E-01    0.404E-02
RMM:   5    -0.239995553469E+02   -0.34770E-03   -0.39831E-04    64   0.125E-01    0.281E-02
RMM:   6    -0.239996855860E+02   -0.13024E-03   -0.95777E-05    64   0.603E-02    0.105E-02
RMM:   7    -0.239997987204E+02   -0.11313E-03   -0.20948E-05    64   0.299E-02    0.526E-03
RMM:   8    -0.239998542802E+02   -0.55560E-04   -0.17720E-05    64   0.252E-02    0.793E-03
RMM:   9    -0.239998742784E+02   -0.19998E-04   -0.87950E-06    60   0.170E-02    0.176E-03
RMM:  10    -0.239998948342E+02   -0.20556E-04   -0.14487E-06    48   0.833E-03    0.106E-03
RMM:  11    -0.239999008864E+02   -0.60522E-05   -0.73953E-07    48   0.567E-03    0.645E-04
RMM:  12    -0.239999039901E+02   -0.31038E-05   -0.21759E-07    48   0.327E-03    0.394E-04
RMM:  13    -0.239999058143E+02   -0.18242E-05   -0.13753E-07    44   0.227E-03    0.408E-04
RMM:  14    -0.239999061656E+02   -0.35126E-06    0.00000E+00    32   0.143E-03
   10 T=   127. E= -.23899357E+02 F= -.23999906E+02 E0= -.24003918E+02  EK= 0.65879E-01 SP= 0.21E-01 SK= 0.14E-01
 bond charge predicted
 prediction of wavefunctions
 wavefunctions rotated
