<?xml version="1.0" encoding="ISO-8859-1"?>
<modeling>
 <generator>
  <i name="program" type="string">vasp </i>
  <i name="version" type="string">5.4.4.18Apr17-6-g9f103f2a35  </i>
  <i name="subversion" type="string">(build Jul 12 2018 13:43:46) complex            parallel </i>
  <i name="platform" type="string">LinuxGNU </i>
  <i name="date" type="string">2019 06 22 </i>
  <i name="time" type="string">02:17:35 </i>
 </generator>
 <incar>
  <i type="int" name="ISTART">     0</i>
  <i type="string" name="PREC">a</i>
  <i type="string" name="ALGO">fast</i>
  <i type="int" name="MAXMIX">    50</i>
  <i type="int" name="ICHARG">     2</i>
  <i type="int" name="IBRION">     0</i>
  <i name="EDIFF">      0.00000100</i>
  <i type="int" name="NSW">    10</i>
  <i type="int" name="ISIF">     2</i>
  <i type="int" name="ISYM">     0</i>
  <i type="int" name="NBLOCK">     1</i>
  <i type="int" name="KBLOCK">   100</i>
  <i name="ENCUT">    400.00000000</i>
  <i name="POTIM">      2.00000000</i>
  <i name="TEBEG">     50.00000000</i>
  <i name="TEEND">     50.00000000</i>
  <i name="SMASS">      0.00000000</i>
  <i type="logical" name="LREAL"> T  </i>
  <i type="int" name="ISMEAR">     1</i>
  <i name="SIGMA">      0.20000000</i>
  <i name="KSPACING">      0.50000000</i>
  <i type="logical" name="KGAMMA"> F  </i>
  <i name="PSTRESS">      0.00000000</i>
  <i type="logical" name="LWAVE"> F  </i>
  <i type="logical" name="LCHARG"> F  </i>
  <v type="int" name="KPOINT_BSE">    -1     0     0     0</v>
 </incar>
 <structure name="primitive_cell" >
  <crystal>
   <varray name="basis" >
    <v>       9.92918846       0.00000000       0.00000000 </v>
    <v>      -0.28704994      10.14925995       0.00000000 </v>
    <v>       0.07454173      -0.24938506       9.97132934 </v>
   </varray>
   <i name="volume">   1004.84989325 </i>
   <varray name="rec_basis" >
    <v>       0.10071317       0.00284845      -0.00068165 </v>
    <v>      -0.00000000       0.09852935       0.00246424 </v>
    <v>       0.00000000      -0.00000000       0.10028753 </v>
   </varray>
  </crystal>
  <varray name="positions" >
   <v>      -0.46177431       0.40675987       0.36048956 </v>
   <v>      -0.49630923       0.46683219       0.44577476 </v>
   <v>      -0.47139048       0.41667610      -0.46116457 </v>
   <v>      -0.44812015      -0.43488492       0.44268268 </v>
   <v>       0.39424367       0.47999014       0.43822853 </v>
  </varray>
 </structure>
 <varray name="primitive_index" >
  <v type="int" >        1 </v>
  <v type="int" >        5 </v>
  <v type="int" >        4 </v>
  <v type="int" >        3 </v>
  <v type="int" >        2 </v>
 </varray>
 <kpoints>
  <generation param="Monkhorst-Pack">
   <v type="int" name="divisions">       2        2        2 </v>
   <v name="usershift">      0.00000000       0.00000000       0.00000000 </v>
   <v name="genvec1">      0.50000000       0.00000000       0.00000000 </v>
   <v name="genvec2">      0.00000000       0.50000000      -0.00000000 </v>
   <v name="genvec3">      0.00000000       0.00000000       0.50000000 </v>
   <v name="shift">      0.50000000       0.50000000       0.50000000 </v>
  </generation>
  <varray name="kpointlist" >
   <v>       0.25000000       0.25000000       0.25000000 </v>
   <v>      -0.25000000       0.25000000       0.25000000 </v>
   <v>       0.25000000      -0.25000000       0.25000000 </v>
   <v>      -0.25000000      -0.25000000       0.25000000 </v>
  </varray>
  <varray name="weights" >
   <v>       0.25000000 </v>
   <v>       0.25000000 </v>
   <v>       0.25000000 </v>
   <v>       0.25000000 </v>
  </varray>
 </kpoints>
 <parameters>
  <separator name="general" >
   <i type="string" name="SYSTEM">unknown system</i>
   <i type="logical" name="LCOMPAT"> F  </i>
  </separator>
  <separator name="electronic" >
   <i type="string" name="PREC">a</i>
   <i name="ENMAX">    400.00000000</i>
   <i name="ENAUG">    644.87300000</i>
   <i name="EDIFF">      0.00000100</i>
   <i type="int" name="IALGO">    68</i>
   <i type="int" name="IWAVPR">    12</i>
   <i type="int" name="NBANDS">     8</i>
   <i name="NELECT">      8.00000000</i>
   <i type="int" name="TURBO">     0</i>
   <i type="int" name="IRESTART">     0</i>
   <i type="int" name="NREBOOT">     0</i>
   <i type="int" name="NMIN">     0</i>
   <i name="EREF">      0.00000000</i>
   <separator name="electronic smearing" >
    <i type="int" name="ISMEAR">     1</i>
    <i name="SIGMA">      0.20000000</i>
    <i name="KSPACING">      0.50000000</i>
    <i type="logical" name="KGAMMA"> F  </i>
   </separator>
   <separator name="electronic projectors" >
    <i type="logical" name="LREAL"> T  </i>
    <v name="ROPT">      0.00000000      0.00000000</v>
    <i type="int" name="LMAXPAW">  -100</i>
    <i type="int" name="LMAXMIX">     2</i>
    <i type="logical" name="NLSPLINE"> F  </i>
   </separator>
   <separator name="electronic startup" >
    <i type="int" name="ISTART">     0</i>
    <i type="int" name="ICHARG">     2</i>
    <i type="int" name="INIWAV">     1</i>
   </separator>
   <separator name="electronic spin" >
    <i type="int" name="ISPIN">     1</i>
    <i type="logical" name="LNONCOLLINEAR"> F  </i>
    <v name="MAGMOM">      1.00000000      1.00000000      1.00000000      1.00000000      1.00000000</v>
    <i name="NUPDOWN">     -1.00000000</i>
    <i type="logical" name="LSORBIT"> F  </i>
    <v name="SAXIS">      0.00000000      0.00000000      1.00000000</v>
    <i type="logical" name="LSPIRAL"> F  </i>
    <v name="QSPIRAL">      0.00000000      0.00000000      0.00000000</v>
    <i type="logical" name="LZEROZ"> F  </i>
   </separator>
   <separator name="electronic exchange-correlation" >
    <i type="logical" name="LASPH"> F  </i>
    <i type="logical" name="LMETAGGA"> F  </i>
   </separator>
   <separator name="electronic convergence" >
    <i type="int" name="NELM">    60</i>
    <i type="int" name="NELMDL">    -5</i>
    <i type="int" name="NELMIN">     2</i>
    <i name="ENINI">    400.00000000</i>
    <separator name="electronic convergence detail" >
     <i type="logical" name="LDIAG"> T  </i>
     <i type="logical" name="LSUBROT"> F  </i>
     <i name="WEIMIN">      0.00100000</i>
     <i name="EBREAK">      0.00000003</i>
     <i name="DEPER">      0.30000000</i>
     <i type="int" name="NRMM">     4</i>
     <i name="TIME">      0.40000000</i>
    </separator>
   </separator>
   <separator name="electronic mixer" >
    <i name="AMIX">      0.40000000</i>
    <i name="BMIX">      1.00000000</i>
    <i name="AMIN">      0.10000000</i>
    <i name="AMIX_MAG">      1.60000000</i>
    <i name="BMIX_MAG">      1.00000000</i>
    <separator name="electronic mixer details" >
     <i type="int" name="IMIX">     4</i>
     <i type="logical" name="MIXFIRST"> F  </i>
     <i type="int" name="MAXMIX">    50</i>
     <i name="WC">    100.00000000</i>
     <i type="int" name="INIMIX">     1</i>
     <i type="int" name="MIXPRE">     1</i>
     <i type="int" name="MREMOVE">     5</i>
    </separator>
   </separator>
   <separator name="electronic dipolcorrection" >
    <i type="logical" name="LDIPOL"> F  </i>
    <i type="logical" name="LMONO"> F  </i>
    <i type="int" name="IDIPOL">     0</i>
    <i name="EPSILON">      1.00000000</i>
    <v name="DIPOL">   -100.00000000   -100.00000000   -100.00000000</v>
    <i name="EFIELD">      0.00000000</i>
   </separator>
  </separator>
  <separator name="grids" >
   <i type="int" name="NGX">    70</i>
   <i type="int" name="NGY">    70</i>
   <i type="int" name="NGZ">    70</i>
   <i type="int" name="NGXF">   140</i>
   <i type="int" name="NGYF">   140</i>
   <i type="int" name="NGZF">   140</i>
   <i type="logical" name="ADDGRID"> F  </i>
  </separator>
  <separator name="ionic" >
   <i type="int" name="NSW">    10</i>
   <i type="int" name="IBRION">     0</i>
   <i type="int" name="MDALGO">     0</i>
   <i type="int" name="ISIF">     2</i>
   <i name="PSTRESS">      0.00000000</i>
   <i name="EDIFFG">      0.00001000</i>
   <i type="int" name="NFREE">     0</i>
   <i name="POTIM">      2.00000000</i>
   <i name="SMASS">      0.00164063</i>
   <i name="SCALEE">      1.00000000</i>
  </separator>
  <separator name="ionic md" >
   <i name="TEBEG">     50.00000000</i>
   <i name="TEEND">     50.00000000</i>
   <i type="int" name="NBLOCK">     1</i>
   <i type="int" name="KBLOCK">     1</i>
   <i type="int" name="NPACO">   256</i>
   <i name="APACO">     16.00000000</i>
  </separator>
  <separator name="symmetry" >
   <i type="int" name="ISYM">     0</i>
   <i name="SYMPREC">      0.00001000</i>
  </separator>
  <separator name="dos" >
   <i type="int" name="LORBIT">     0</i>
   <v name="RWIGS">     -1.00000000     -1.00000000</v>
   <i type="int" name="NEDOS">   301</i>
   <i name="EMIN">     10.00000000</i>
   <i name="EMAX">    -10.00000000</i>
   <i name="EFERMI">      0.00000000</i>
  </separator>
  <separator name="writing" >
   <i type="int" name="NWRITE">     2</i>
   <i type="logical" name="LWAVE"> F  </i>
   <i type="logical" name="LDOWNSAMPLE"> F  </i>
   <i type="logical" name="LCHARG"> F  </i>
   <i type="logical" name="LPARD"> F  </i>
   <i type="logical" name="LVTOT"> F  </i>
   <i type="logical" name="LVHAR"> F  </i>
   <i type="logical" name="LELF"> F  </i>
   <i type="logical" name="LOPTICS"> F  </i>
   <v name="STM">      0.00000000      0.00000000      0.00000000      0.00000000      0.00000000      0.00000000      0.00000000</v>
  </separator>
  <separator name="performance" >
   <i type="int" name="NPAR">     1</i>
   <i type="int" name="NSIM">     4</i>
   <i type="int" name="NBLK">    -1</i>
   <i type="logical" name="LPLANE"> T  </i>
   <i type="logical" name="LSCALAPACK"> T  </i>
   <i type="logical" name="LSCAAWARE"> F  </i>
   <i type="logical" name="LSCALU"> F  </i>
   <i type="logical" name="LASYNC"> F  </i>
   <i type="logical" name="LORBITALREAL"> F  </i>
  </separator>
  <separator name="miscellaneous" >
   <i type="int" name="IDIOT">     3</i>
   <i type="int" name="ISPECIAL">     0</i>
   <i type="logical" name="LMUSIC"> F  </i>
   <v name="POMASS">      1.00000000     12.01100000</v>
   <v name="DARWINR">      0.00000000      0.00000000</v>
   <v name="DARWINV">      1.00000000      1.00000000</v>
   <i type="logical" name="LCORR"> T  </i>
  </separator>
  <i type="logical" name="GGA_COMPAT"> T  </i>
  <i type="logical" name="LBERRY"> F  </i>
  <i type="int" name="ICORELEVEL">     0</i>
  <i type="logical" name="LDAU"> F  </i>
  <i type="int" name="I_CONSTRAINED_M">     0</i>
  <separator name="electronic exchange-correlation" >
   <i type="string" name="GGA">--</i>
   <i type="int" name="VOSKOWN">     0</i>
   <i type="logical" name="LHFCALC"> F  </i>
   <i type="string" name="PRECFOCK"></i>
   <i type="logical" name="LSYMGRAD"> F  </i>
   <i type="logical" name="LHFONE"> F  </i>
   <i type="logical" name="LRHFCALC"> F  </i>
   <i type="logical" name="LTHOMAS"> F  </i>
   <i type="logical" name="LMODELHF"> F  </i>
   <i name="ENCUT4O">     -1.00000000</i>
   <i type="int" name="EXXOEP">     0</i>
   <i type="int" name="FOURORBIT">     0</i>
   <i name="AEXX">      0.00000000</i>
   <i name="HFALPHA">      0.00000000</i>
   <i name="MCALPHA">      0.00000000</i>
   <i name="ALDAX">      1.00000000</i>
   <i name="AGGAX">      1.00000000</i>
   <i name="ALDAC">      1.00000000</i>
   <i name="AGGAC">      1.00000000</i>
   <i type="int" name="NKREDX">     1</i>
   <i type="int" name="NKREDY">     1</i>
   <i type="int" name="NKREDZ">     1</i>
   <i type="logical" name="SHIFTRED"> F  </i>
   <i type="logical" name="ODDONLY"> F  </i>
   <i type="logical" name="EVENONLY"> F  </i>
   <i type="int" name="LMAXFOCK">     0</i>
   <i type="int" name="NMAXFOCKAE">     0</i>
   <i type="logical" name="LFOCKAEDFT"> F  </i>
   <i name="HFSCREEN">      0.00000000</i>
   <i name="HFSCREENC">      0.00000000</i>
   <i type="int" name="NBANDSGWLOW">     0</i>
  </separator>
  <separator name="vdW DFT" >
   <i type="logical" name="LUSE_VDW"> F  </i>
   <i name="Zab_VDW">     -0.84910000</i>
   <i name="PARAM1">      0.12340000</i>
   <i name="PARAM2">      1.00000000</i>
   <i name="PARAM3">      0.00000000</i>
  </separator>
  <separator name="model GW" >
   <i type="int" name="MODEL_GW">     0</i>
   <i name="MODEL_EPS0">    120.58198719</i>
   <i name="MODEL_ALPHA">      1.00000000</i>
  </separator>
  <separator name="linear response parameters" >
   <i type="logical" name="LEPSILON"> F  </i>
   <i type="logical" name="LRPA"> F  </i>
   <i type="logical" name="LNABLA"> F  </i>
   <i type="logical" name="LVEL"> F  </i>
   <i type="int" name="KINTER">     0</i>
   <i name="CSHIFT">      0.10000000</i>
   <i name="OMEGAMAX">     -1.00000000</i>
   <i name="DEG_THRESHOLD">      0.00200000</i>
   <i name="RTIME">     -0.10000000</i>
   <i name="WPLASMAI">      0.00000000</i>
   <v name="DFIELD">      0.00000000      0.00000000      0.00000000</v>
   <v name="WPLASMA">      0.00000000      0.00000000      0.00000000      0.00000000      0.00000000      0.00000000      0.00000000      0.00000000      0.00000000</v>
  </separator>
  <separator name="orbital magnetization" >
   <i type="logical" name="NUCIND"> F  </i>
   <v name="MAGPOS">      0.00000000      0.00000000      0.00000000</v>
   <i type="logical" name="LNICSALL"> T  </i>
   <i type="logical" name="ORBITALMAG"> F  </i>
   <i type="logical" name="LMAGBLOCH"> F  </i>
   <i type="logical" name="LCHIMAG"> F  </i>
   <i type="logical" name="LGAUGE"> T  </i>
   <i type="int" name="MAGATOM">     0</i>
   <v name="MAGDIPOL">      0.00000000      0.00000000      0.00000000</v>
   <v name="AVECCONST">      0.00000000      0.00000000      0.00000000</v>
  </separator>
  <separator name="response functions" >
   <i type="logical" name="LADDER"> F  </i>
   <i type="logical" name="LRPAFORCE"> F  </i>
   <i type="logical" name="LFXC"> F  </i>
   <i type="logical" name="LHARTREE"> T  </i>
   <i type="int" name="IBSE">     0</i>
   <v type="int" name="KPOINT">    -1     0     0     0</v>
   <i type="logical" name="LTCTE"> F  </i>
   <i type="logical" name="LTETE"> F  </i>
   <i type="logical" name="LTRIPLET"> F  </i>
   <i type="logical" name="LFXCEPS"> F  </i>
   <i type="logical" name="LFXHEG"> F  </i>
   <i type="int" name="NATURALO">     2</i>
   <i type="logical" name="L2ORDER"> F  </i>
   <i type="logical" name="LMP2LT"> F  </i>
   <i type="logical" name="LUSEW"> F  </i>
   <i name="ENCUTGW">     -2.00000000</i>
   <i name="ENCUTGWSOFT">     -2.00000000</i>
   <i name="ENCUTLF">     -1.00000000</i>
   <i type="int" name="LMAXMP2">    -1</i>
   <i name="SCISSOR">      0.00000000</i>
   <i type="int" name="NOMEGA">     0</i>
   <i type="int" name="NOMEGAR">     0</i>
   <i type="int" name="NBANDSGW">    -1</i>
   <i type="int" name="NBANDSO">    -1</i>
   <i type="int" name="NBANDSV">    -1</i>
   <i type="int" name="NELM">     1</i>
   <i type="int" name="NELMHF">     1</i>
   <i type="int" name="DIM">     3</i>
   <i type="int" name="ANTIRES">     0</i>
   <i name="OMEGAMAX">    -30.00000000</i>
   <i name="OMEGAMIN">    -30.00000000</i>
   <i name="OMEGATL">   -200.00000000</i>
   <i type="int" name="OMEGAGRID">   140</i>
   <i name="CSHIFT">     -0.10000000</i>
   <i type="logical" name="SELFENERGY"> F  </i>
   <i type="logical" name="LSPECTRAL"> F  </i>
   <i type="logical" name="LSPECTRALGW"> F  </i>
   <i type="logical" name="LSINGLES"> F  </i>
   <i type="logical" name="LFERMIGW"> F  </i>
   <i type="logical" name="ODDONLYGW"> F  </i>
   <i type="logical" name="EVENONLYGW"> F  </i>
   <i type="int" name="NKREDLFX">     1</i>
   <i type="int" name="NKREDLFY">     1</i>
   <i type="int" name="NKREDLFZ">     1</i>
   <i type="int" name="MAXMEM">  2800</i>
   <i type="int" name="TELESCOPE">     0</i>
   <i type="int" name="TAUPAR">     1</i>
   <i type="int" name="OMEGAPAR">    -1</i>
   <i name="LAMBDA">      1.00000000</i>
  </separator>
  <separator name="External order field" >
   <i name="OFIELD_KAPPA">      0.00000000</i>
   <v name="OFIELD_K">      0.00000000      0.00000000      0.00000000</v>
   <i name="OFIELD_Q6_NEAR">      0.00000000</i>
   <i name="OFIELD_Q6_FAR">      0.00000000</i>
   <i name="OFIELD_A">      0.00000000</i>
  </separator>
 </parameters>
 <atominfo>
  <atoms>       5 </atoms>
  <types>       2 </types>
  <array name="atoms" >
   <dimension dim="1">ion</dimension>
   <field type="string">element</field>
   <field type="int">atomtype</field>
   <set>
    <rc><c>H </c><c>   1</c></rc>
    <rc><c>H </c><c>   1</c></rc>
    <rc><c>H </c><c>   1</c></rc>
    <rc><c>H </c><c>   1</c></rc>
    <rc><c>C </c><c>   2</c></rc>
   </set>
  </array>
  <array name="atomtypes" >
   <dimension dim="1">type</dimension>
   <field type="int">atomspertype</field>
   <field type="string">element</field>
   <field>mass</field>
   <field>valence</field>
   <field type="string">pseudopotential</field>
   <set>
    <rc><c>   4</c><c>H </c><c>      1.00000000</c><c>      1.00000000</c><c>  PAW_PBE H 15Jun2001                   </c></rc>
    <rc><c>   1</c><c>C </c><c>     12.01100000</c><c>      4.00000000</c><c>  PAW_PBE C 08Apr2002                   </c></rc>
   </set>
  </array>
 </atominfo>
 <structure name="initialpos" >
  <crystal>
   <varray name="basis" >
    <v>       9.92918846       0.00000000       0.00000000 </v>
    <v>      -0.28704994      10.14925995       0.00000000 </v>
    <v>       0.07454173      -0.24938506       9.97132934 </v>
   </varray>
   <i name="volume">   1004.84989325 </i>
   <varray name="rec_basis" >
    <v>       0.10071317       0.00284845      -0.00068165 </v>
    <v>      -0.00000000       0.09852935       0.00246424 </v>
    <v>       0.00000000      -0.00000000       0.10028753 </v>
   </varray>
  </crystal>
  <varray name="positions" >
   <v>       0.53822569       0.40675987       0.36048956 </v>
   <v>       0.39424367       0.47999014       0.43822853 </v>
   <v>       0.55187985       0.56511508       0.44268268 </v>
   <v>       0.52860952       0.41667610       0.53883543 </v>
   <v>       0.50369077       0.46683219       0.44577476 </v>
  </varray>
  <varray name="velocities" >
   <v>       0.00127762      -0.00127036       0.00017932 </v>
   <v>      -0.00159329      -0.00015208       0.00121751 </v>
   <v>       0.00023659      -0.00106024       0.00053502 </v>
   <v>      -0.00112920       0.00183260       0.00220966 </v>
   <v>       0.00010060       0.00005412      -0.00034481 </v>
  </varray>
 </structure>
 <calculation>
  <scstep>
   <time name="dav">    3.06    3.07</time>
   <time name="total">    4.94    4.95</time>
   <energy>
    <i name="alphaZ">      0.24108157 </i>
    <i name="ewald">    128.58541595 </i>
    <i name="hartreedc">   -244.01078090 </i>
    <i name="XCdc">     22.00171898 </i>
    <i name="pawpsdc">    117.05815612 </i>
    <i name="pawaedc">   -117.66307307 </i>
    <i name="eentropy">      0.00289895 </i>
    <i name="bandstr">    -87.77661238 </i>
    <i name="atom">    197.04175453 </i>
    <i name="e_fr_energy">     15.48055977 </i>
    <i name="e_wo_entrp">     15.47766081 </i>
    <i name="e_0_energy">     15.47959345 </i>
   </energy>
  </scstep>
  <scstep>
   <time name="dav">    2.41    2.41</time>
   <time name="total">    2.41    2.41</time>
   <energy>
    <i name="e_fr_energy">    -23.10750196 </i>
    <i name="e_wo_entrp">    -23.11040093 </i>
    <i name="e_0_energy">    -23.10846829 </i>
   </energy>
  </scstep>
  <scstep>
   <time name="dav">    2.20    2.20</time>
   <time name="total">    2.20    2.20</time>
   <energy>
    <i name="e_fr_energy">    -27.33807871 </i>
    <i name="e_wo_entrp">    -27.36631916 </i>
    <i name="e_0_energy">    -27.34749219 </i>
   </energy>
  </scstep>
  <scstep>
   <time name="dav">    3.91    3.92</time>
   <time name="total">    3.91    3.92</time>
   <energy>
    <i name="e_fr_energy">    -27.50799355 </i>
    <i name="e_wo_entrp">    -27.53676083 </i>
    <i name="e_0_energy">    -27.51758264 </i>
   </energy>
  </scstep>
  <scstep>
   <time name="dav">    3.22    3.23</time>
   <time name="total">    3.48    3.49</time>
   <energy>
    <i name="e_fr_energy">    -27.50804168 </i>
    <i name="e_wo_entrp">    -27.53680928 </i>
    <i name="e_0_energy">    -27.51763088 </i>
   </energy>
  </scstep>
  <scstep>
   <time name="diag">    0.49    0.49</time>
   <time name="diis">    1.55    1.56</time>
   <time name="orth">    0.01    0.01</time>
   <time name="total">    4.18    4.19</time>
   <energy>
    <i name="e_fr_energy">    -24.63016049 </i>
    <i name="e_wo_entrp">    -24.65803168 </i>
    <i name="e_0_energy">    -24.63945089 </i>
   </energy>
  </scstep>
  <scstep>
   <time name="diag">    0.48    0.48</time>
   <time name="diis">    1.53    1.54</time>
   <time name="orth">    0.01    0.01</time>
   <time name="total">    4.19    4.20</time>
   <energy>
    <i name="e_fr_energy">    -24.14289516 </i>
    <i name="e_wo_entrp">    -24.17265213 </i>
    <i name="e_0_energy">    -24.15281415 </i>
   </energy>
  </scstep>
  <scstep>
   <time name="diag">    0.44    0.44</time>
   <time name="diis">    1.59    1.60</time>
   <time name="orth">    0.01    0.01</time>
   <time name="total">    4.23    4.24</time>
   <energy>
    <i name="e_fr_energy">    -24.01714093 </i>
    <i name="e_wo_entrp">    -24.04691534 </i>
    <i name="e_0_energy">    -24.02706573 </i>
   </energy>
  </scstep>
  <scstep>
   <time name="diag">    0.46    0.46</time>
   <time name="diis">    1.61    1.62</time>
   <time name="orth">    0.01    0.01</time>
   <time name="total">    4.24    4.25</time>
   <energy>
    <i name="e_fr_energy">    -23.98889726 </i>
    <i name="e_wo_entrp">    -24.01769543 </i>
    <i name="e_0_energy">    -23.99849665 </i>
   </energy>
  </scstep>
  <scstep>
   <time name="diag">    0.46    0.47</time>
   <time name="diis">    1.63    1.63</time>
   <time name="orth">    0.01    0.01</time>
   <time name="total">    4.23    4.24</time>
   <energy>
    <i name="e_fr_energy">    -23.98739090 </i>
    <i name="e_wo_entrp">    -24.01674948 </i>
    <i name="e_0_energy">    -23.99717709 </i>
   </energy>
  </scstep>
  <scstep>
   <time name="diag">    0.47    0.47</time>
   <time name="diis">    1.62    1.63</time>
   <time name="orth">    0.01    0.01</time>
   <time name="total">    4.15    4.16</time>
   <energy>
    <i name="e_fr_energy">    -23.98095793 </i>
    <i name="e_wo_entrp">    -24.01008401 </i>
    <i name="e_0_energy">    -23.99066663 </i>
   </energy>
  </scstep>
  <scstep>
   <time name="diag">    0.47    0.47</time>
   <time name="diis">    1.66    1.66</time>
   <time name="orth">    0.01    0.01</time>
   <time name="total">    4.16    4.17</time>
   <energy>
    <i name="e_fr_energy">    -23.98584732 </i>
    <i name="e_wo_entrp">    -24.01593410 </i>
    <i name="e_0_energy">    -23.99587625 </i>
   </energy>
  </scstep>
  <scstep>
   <time name="diag">    0.47    0.47</time>
   <time name="diis">    1.68    1.68</time>
   <time name="orth">    0.01    0.01</time>
   <time name="total">    4.08    4.09</time>
   <energy>
    <i name="e_fr_energy">    -23.99079243 </i>
    <i name="e_wo_entrp">    -24.01996130 </i>
    <i name="e_0_energy">    -24.00051539 </i>
   </energy>
  </scstep>
  <scstep>
   <time name="diag">    0.48    0.48</time>
   <time name="diis">    1.65    1.65</time>
   <time name="orth">    0.01    0.01</time>
   <time name="total">    4.03    4.04</time>
   <energy>
    <i name="e_fr_energy">    -23.99212448 </i>
    <i name="e_wo_entrp">    -24.02119279 </i>
    <i name="e_0_energy">    -24.00181392 </i>
   </energy>
  </scstep>
  <scstep>
   <time name="diag">    0.49    0.49</time>
   <time name="diis">    1.62    1.63</time>
   <time name="orth">    0.01    0.01</time>
   <time name="total">    4.02    4.03</time>
   <energy>
    <i name="e_fr_energy">    -23.99455276 </i>
    <i name="e_wo_entrp">    -24.02381618 </i>
    <i name="e_0_energy">    -24.00430723 </i>
   </energy>
  </scstep>
  <scstep>
   <time name="diag">    0.49    0.49</time>
   <time name="diis">    1.60    1.61</time>
   <time name="orth">    0.01    0.01</time>
   <time name="total">    4.03    4.04</time>
   <energy>
    <i name="e_fr_energy">    -23.99471879 </i>
    <i name="e_wo_entrp">    -24.02387344 </i>
    <i name="e_0_energy">    -24.00443700 </i>
   </energy>
  </scstep>
  <scstep>
   <time name="diag">    0.48    0.48</time>
   <time name="diis">    1.62    1.62</time>
   <time name="orth">    0.01    0.01</time>
   <time name="total">    4.02    4.03</time>
   <energy>
    <i name="e_fr_energy">    -23.99495557 </i>
    <i name="e_wo_entrp">    -24.02414869 </i>
    <i name="e_0_energy">    -24.00468661 </i>
   </energy>
  </scstep>
  <scstep>
   <time name="diag">    0.48    0.48</time>
   <time name="diis">    1.63    1.63</time>
   <time name="orth">    0.01    0.01</time>
   <time name="total">    4.04    4.05</time>
   <energy>
    <i name="e_fr_energy">    -23.99500501 </i>
    <i name="e_wo_entrp">    -24.02416717 </i>
    <i name="e_0_energy">    -24.00472573 </i>
   </energy>
  </scstep>
  <scstep>
   <time name="diag">    0.46    0.46</time>
   <time name="diis">    1.57    1.58</time>
   <time name="orth">    0.01    0.01</time>
   <time name="total">    4.06    4.07</time>
   <energy>
    <i name="e_fr_energy">    -23.99503350 </i>
    <i name="e_wo_entrp">    -24.02419758 </i>
    <i name="e_0_energy">    -24.00475486 </i>
   </energy>
  </scstep>
  <scstep>
   <time name="diag">    0.45    0.45</time>
   <time name="diis">    1.26    1.26</time>
   <time name="orth">    0.01    0.01</time>
   <time name="total">    3.75    3.76</time>
   <energy>
    <i name="e_fr_energy">    -23.99503641 </i>
    <i name="e_wo_entrp">    -24.02419709 </i>
    <i name="e_0_energy">    -24.00475664 </i>
   </energy>
  </scstep>
  <scstep>
   <time name="diag">    0.46    0.46</time>
   <time name="diis">    1.24    1.24</time>
   <time name="orth">    0.01    0.01</time>
   <time name="total">    3.73    3.74</time>
   <energy>
    <i name="e_fr_energy">    -23.99503900 </i>
    <i name="e_wo_entrp">    -24.02419929 </i>
    <i name="e_0_energy">    -24.00475910 </i>
   </energy>
  </scstep>
  <scstep>
   <time name="diag">    0.44    0.44</time>
   <time name="diis">    1.17    1.18</time>
   <time name="orth">    0.01    0.01</time>
   <time name="total">    3.40    3.41</time>
   <energy>
    <i name="alphaZ">      0.24108157 </i>
    <i name="ewald">    128.58541595 </i>
    <i name="hartreedc">   -284.42205180 </i>
    <i name="XCdc">     24.72685562 </i>
    <i name="pawpsdc">    493.32582397 </i>
    <i name="pawaedc">   -494.11274672 </i>
    <i name="eentropy">      0.02915998 </i>
    <i name="bandstr">    -89.41033290 </i>
    <i name="atom">    197.04175453 </i>
    <i name="e_fr_energy">    -23.99503979 </i>
    <i name="e_wo_entrp">    -24.02419976 </i>
    <i name="e_0_energy">    -24.00475978 </i>
   </energy>
  </scstep>
  <structure>
   <crystal>
    <varray name="basis" >
     <v>       9.92918846       0.00000000       0.00000000 </v>
     <v>      -0.28704994      10.14925995       0.00000000 </v>
     <v>       0.07454173      -0.24938506       9.97132934 </v>
    </varray>
    <i name="volume">   1004.84989325 </i>
    <varray name="rec_basis" >
     <v>       0.10071317       0.00284845      -0.00068165 </v>
     <v>      -0.00000000       0.09852935       0.00246424 </v>
     <v>       0.00000000      -0.00000000       0.10028753 </v>
    </varray>
   </crystal>
   <varray name="positions" >
    <v>       0.53822569       0.40675987       0.36048956 </v>
    <v>       0.39424367       0.47999014       0.43822853 </v>
    <v>       0.55187985       0.56511508       0.44268268 </v>
    <v>       0.52860952       0.41667610       0.53883543 </v>
    <v>       0.50369077       0.46683219       0.44577476 </v>
   </varray>
  </structure>
  <varray name="forces" >
   <v>       0.33051378      -0.25088222      -0.48899293 </v>
   <v>       0.58867552       0.36139412       0.78817437 </v>
   <v>       0.32867668       0.39495714      -0.07863246 </v>
   <v>      -0.13921015       0.29146288      -0.09287827 </v>
   <v>      -0.79074334       0.41330480      -0.19165803 </v>
  </varray>
  <varray name="stress" >
   <v>      -0.52998036       0.20234987      -0.24600403 </v>
   <v>       0.20234987       1.41508700       0.24549391 </v>
   <v>      -0.24600404       0.24549390       0.03433012 </v>
  </varray>
  <energy>
   <i name="e_fr_energy">    -23.99503979 </i>
   <i name="e_wo_entrp">    -24.00475978 </i>
   <i name="e_0_energy">      0.02915998 </i>
   <i name="kinetic">      0.03848340 </i>
   <i name="lattice kinetic">      0.00000000 </i>
   <i name="nosepot">      0.00000000 </i>
   <i name="nosekinetic">      0.00001909 </i>
   <i name="total">    -23.95653730 </i>
  </energy>
  <dos>
   <i name="efermi">     -9.04242379 </i>
   <total>
    <array>
     <dimension dim="1">gridpoints</dimension>
     <dimension dim="2">spin</dimension>
     <field>energy</field>
     <field>total</field>
     <field>integrated</field>
     <set>
      <set comment="spin 1">
       <r>   -18.8664     0.0000     0.0000 </r>
       <r>   -18.7945     0.0000     0.0000 </r>
       <r>   -18.7226     0.0000     0.0000 </r>
       <r>   -18.6507     0.0000     0.0000 </r>
       <r>   -18.5787     0.0000     0.0000 </r>
       <r>   -18.5068    -0.0000    -0.0000 </r>
       <r>   -18.4349    -0.0000    -0.0000 </r>
       <r>   -18.3630    -0.0000    -0.0000 </r>
       <r>   -18.2911    -0.0000    -0.0000 </r>
       <r>   -18.2192    -0.0000    -0.0000 </r>
       <r>   -18.1472    -0.0000    -0.0000 </r>
       <r>   -18.0753    -0.0000    -0.0000 </r>
       <r>   -18.0034    -0.0000    -0.0000 </r>
       <r>   -17.9315    -0.0000    -0.0000 </r>
       <r>   -17.8596    -0.0000    -0.0000 </r>
       <r>   -17.7877    -0.0000    -0.0000 </r>
       <r>   -17.7157    -0.0000    -0.0000 </r>
       <r>   -17.6438    -0.0000    -0.0000 </r>
       <r>   -17.5719    -0.0001    -0.0000 </r>
       <r>   -17.5000    -0.0009    -0.0001 </r>
       <r>   -17.4281    -0.0063    -0.0005 </r>
       <r>   -17.3562    -0.0331    -0.0029 </r>
       <r>   -17.2842    -0.1245    -0.0119 </r>
       <r>   -17.2123    -0.3155    -0.0345 </r>
       <r>   -17.1404    -0.4320    -0.0656 </r>
       <r>   -17.0685     0.1840    -0.0524 </r>
       <r>   -16.9966     2.3529     0.1168 </r>
       <r>   -16.9247     5.7345     0.5292 </r>
       <r>   -16.8527     8.1464     1.1151 </r>
       <r>   -16.7808     7.5179     1.6558 </r>
       <r>   -16.7089     4.4176     1.9735 </r>
       <r>   -16.6370     1.3260     2.0688 </r>
       <r>   -16.5651    -0.1964     2.0547 </r>
       <r>   -16.4932    -0.4265     2.0240 </r>
       <r>   -16.4212    -0.2340     2.0072 </r>
       <r>   -16.3493    -0.0785     2.0016 </r>
       <r>   -16.2774    -0.0183     2.0003 </r>
       <r>   -16.2055    -0.0031     2.0000 </r>
       <r>   -16.1336    -0.0004     2.0000 </r>
       <r>   -16.0617    -0.0000     2.0000 </r>
       <r>   -15.9897    -0.0000     2.0000 </r>
       <r>   -15.9178    -0.0000     2.0000 </r>
       <r>   -15.8459    -0.0000     2.0000 </r>
       <r>   -15.7740    -0.0000     2.0000 </r>
       <r>   -15.7021    -0.0000     2.0000 </r>
       <r>   -15.6301    -0.0000     2.0000 </r>
       <r>   -15.5582     0.0000     2.0000 </r>
       <r>   -15.4863     0.0000     2.0000 </r>
       <r>   -15.4144     0.0000     2.0000 </r>
       <r>   -15.3425     0.0000     2.0000 </r>
       <r>   -15.2706     0.0000     2.0000 </r>
       <r>   -15.1986     0.0000     2.0000 </r>
       <r>   -15.1267     0.0000     2.0000 </r>
       <r>   -15.0548     0.0000     2.0000 </r>
       <r>   -14.9829     0.0000     2.0000 </r>
       <r>   -14.9110     0.0000     2.0000 </r>
       <r>   -14.8391     0.0000     2.0000 </r>
       <r>   -14.7671     0.0000     2.0000 </r>
       <r>   -14.6952     0.0000     2.0000 </r>
       <r>   -14.6233     0.0000     2.0000 </r>
       <r>   -14.5514     0.0000     2.0000 </r>
       <r>   -14.4795     0.0000     2.0000 </r>
       <r>   -14.4076     0.0000     2.0000 </r>
       <r>   -14.3356     0.0000     2.0000 </r>
       <r>   -14.2637     0.0000     2.0000 </r>
       <r>   -14.1918     0.0000     2.0000 </r>
       <r>   -14.1199     0.0000     2.0000 </r>
       <r>   -14.0480     0.0000     2.0000 </r>
       <r>   -13.9761     0.0000     2.0000 </r>
       <r>   -13.9041     0.0000     2.0000 </r>
       <r>   -13.8322     0.0000     2.0000 </r>
       <r>   -13.7603     0.0000     2.0000 </r>
       <r>   -13.6884     0.0000     2.0000 </r>
       <r>   -13.6165     0.0000     2.0000 </r>
       <r>   -13.5446     0.0000     2.0000 </r>
       <r>   -13.4726     0.0000     2.0000 </r>
       <r>   -13.4007     0.0000     2.0000 </r>
       <r>   -13.3288     0.0000     2.0000 </r>
       <r>   -13.2569     0.0000     2.0000 </r>
       <r>   -13.1850     0.0000     2.0000 </r>
       <r>   -13.1131     0.0000     2.0000 </r>
       <r>   -13.0411     0.0000     2.0000 </r>
       <r>   -12.9692     0.0000     2.0000 </r>
       <r>   -12.8973     0.0000     2.0000 </r>
       <r>   -12.8254     0.0000     2.0000 </r>
       <r>   -12.7535     0.0000     2.0000 </r>
       <r>   -12.6816     0.0000     2.0000 </r>
       <r>   -12.6096     0.0000     2.0000 </r>
       <r>   -12.5377     0.0000     2.0000 </r>
       <r>   -12.4658     0.0000     2.0000 </r>
       <r>   -12.3939     0.0000     2.0000 </r>
       <r>   -12.3220     0.0000     2.0000 </r>
       <r>   -12.2500     0.0000     2.0000 </r>
       <r>   -12.1781     0.0000     2.0000 </r>
       <r>   -12.1062     0.0000     2.0000 </r>
       <r>   -12.0343     0.0000     2.0000 </r>
       <r>   -11.9624     0.0000     2.0000 </r>
       <r>   -11.8905     0.0000     2.0000 </r>
       <r>   -11.8185     0.0000     2.0000 </r>
       <r>   -11.7466     0.0000     2.0000 </r>
       <r>   -11.6747     0.0000     2.0000 </r>
       <r>   -11.6028     0.0000     2.0000 </r>
       <r>   -11.5309     0.0000     2.0000 </r>
       <r>   -11.4590     0.0000     2.0000 </r>
       <r>   -11.3870     0.0000     2.0000 </r>
       <r>   -11.3151     0.0000     2.0000 </r>
       <r>   -11.2432     0.0000     2.0000 </r>
       <r>   -11.1713     0.0000     2.0000 </r>
       <r>   -11.0994     0.0000     2.0000 </r>
       <r>   -11.0275    -0.0000     2.0000 </r>
       <r>   -10.9555    -0.0000     2.0000 </r>
       <r>   -10.8836    -0.0000     2.0000 </r>
       <r>   -10.8117    -0.0000     2.0000 </r>
       <r>   -10.7398    -0.0000     2.0000 </r>
       <r>   -10.6679    -0.0000     2.0000 </r>
       <r>   -10.5960    -0.0000     2.0000 </r>
       <r>   -10.5240    -0.0000     2.0000 </r>
       <r>   -10.4521    -0.0000     2.0000 </r>
       <r>   -10.3802    -0.0000     2.0000 </r>
       <r>   -10.3083    -0.0000     2.0000 </r>
       <r>   -10.2364    -0.0000     2.0000 </r>
       <r>   -10.1645    -0.0000     2.0000 </r>
       <r>   -10.0925    -0.0003     2.0000 </r>
       <r>   -10.0206    -0.0025     1.9998 </r>
       <r>    -9.9487    -0.0151     1.9987 </r>
       <r>    -9.8768    -0.0678     1.9938 </r>
       <r>    -9.8049    -0.2149     1.9784 </r>
       <r>    -9.7330    -0.4415     1.9466 </r>
       <r>    -9.6610    -0.4078     1.9173 </r>
       <r>    -9.5891     0.6362     1.9631 </r>
       <r>    -9.5172     3.1827     2.1919 </r>
       <r>    -9.4453     6.6904     2.6731 </r>
       <r>    -9.3734    10.3340     3.4163 </r>
       <r>    -9.3015    14.0646     4.4278 </r>
       <r>    -9.2295    17.1177     5.6588 </r>
       <r>    -9.1576    16.8240     6.8688 </r>
       <r>    -9.0857    11.8870     7.7236 </r>
       <r>    -9.0138     5.1747     8.0958 </r>
       <r>    -8.9419     0.6078     8.1395 </r>
       <r>    -8.8699    -0.8569     8.0779 </r>
       <r>    -8.7980    -0.6930     8.0280 </r>
       <r>    -8.7261    -0.2900     8.0072 </r>
       <r>    -8.6542    -0.0809     8.0014 </r>
       <r>    -8.5823    -0.0161     8.0002 </r>
       <r>    -8.5104    -0.0024     8.0000 </r>
       <r>    -8.4384    -0.0003     8.0000 </r>
       <r>    -8.3665    -0.0000     8.0000 </r>
       <r>    -8.2946    -0.0000     8.0000 </r>
       <r>    -8.2227    -0.0000     8.0000 </r>
       <r>    -8.1508    -0.0000     8.0000 </r>
       <r>    -8.0789    -0.0000     8.0000 </r>
       <r>    -8.0069    -0.0000     8.0000 </r>
       <r>    -7.9350    -0.0000     8.0000 </r>
       <r>    -7.8631     0.0000     8.0000 </r>
       <r>    -7.7912     0.0000     8.0000 </r>
       <r>    -7.7193     0.0000     8.0000 </r>
       <r>    -7.6474     0.0000     8.0000 </r>
       <r>    -7.5754     0.0000     8.0000 </r>
       <r>    -7.5035     0.0000     8.0000 </r>
       <r>    -7.4316     0.0000     8.0000 </r>
       <r>    -7.3597     0.0000     8.0000 </r>
       <r>    -7.2878     0.0000     8.0000 </r>
       <r>    -7.2159     0.0000     8.0000 </r>
       <r>    -7.1439     0.0000     8.0000 </r>
       <r>    -7.0720     0.0000     8.0000 </r>
       <r>    -7.0001     0.0000     8.0000 </r>
       <r>    -6.9282     0.0000     8.0000 </r>
       <r>    -6.8563     0.0000     8.0000 </r>
       <r>    -6.7844     0.0000     8.0000 </r>
       <r>    -6.7124     0.0000     8.0000 </r>
       <r>    -6.6405     0.0000     8.0000 </r>
       <r>    -6.5686     0.0000     8.0000 </r>
       <r>    -6.4967     0.0000     8.0000 </r>
       <r>    -6.4248     0.0000     8.0000 </r>
       <r>    -6.3529     0.0000     8.0000 </r>
       <r>    -6.2809     0.0000     8.0000 </r>
       <r>    -6.2090     0.0000     8.0000 </r>
       <r>    -6.1371     0.0000     8.0000 </r>
       <r>    -6.0652     0.0000     8.0000 </r>
       <r>    -5.9933     0.0000     8.0000 </r>
       <r>    -5.9214     0.0000     8.0000 </r>
       <r>    -5.8494     0.0000     8.0000 </r>
       <r>    -5.7775     0.0000     8.0000 </r>
       <r>    -5.7056     0.0000     8.0000 </r>
       <r>    -5.6337     0.0000     8.0000 </r>
       <r>    -5.5618     0.0000     8.0000 </r>
       <r>    -5.4898     0.0000     8.0000 </r>
       <r>    -5.4179     0.0000     8.0000 </r>
       <r>    -5.3460     0.0000     8.0000 </r>
       <r>    -5.2741     0.0000     8.0000 </r>
       <r>    -5.2022     0.0000     8.0000 </r>
       <r>    -5.1303     0.0000     8.0000 </r>
       <r>    -5.0583     0.0000     8.0000 </r>
       <r>    -4.9864     0.0000     8.0000 </r>
       <r>    -4.9145     0.0000     8.0000 </r>
       <r>    -4.8426     0.0000     8.0000 </r>
       <r>    -4.7707     0.0000     8.0000 </r>
       <r>    -4.6988     0.0000     8.0000 </r>
       <r>    -4.6268     0.0000     8.0000 </r>
       <r>    -4.5549     0.0000     8.0000 </r>
       <r>    -4.4830     0.0000     8.0000 </r>
       <r>    -4.4111     0.0000     8.0000 </r>
       <r>    -4.3392     0.0000     8.0000 </r>
       <r>    -4.2673     0.0000     8.0000 </r>
       <r>    -4.1953     0.0000     8.0000 </r>
       <r>    -4.1234     0.0000     8.0000 </r>
       <r>    -4.0515     0.0000     8.0000 </r>
       <r>    -3.9796     0.0000     8.0000 </r>
       <r>    -3.9077     0.0000     8.0000 </r>
       <r>    -3.8358     0.0000     8.0000 </r>
       <r>    -3.7638     0.0000     8.0000 </r>
       <r>    -3.6919     0.0000     8.0000 </r>
       <r>    -3.6200     0.0000     8.0000 </r>
       <r>    -3.5481     0.0000     8.0000 </r>
       <r>    -3.4762     0.0000     8.0000 </r>
       <r>    -3.4043     0.0000     8.0000 </r>
       <r>    -3.3323     0.0000     8.0000 </r>
       <r>    -3.2604     0.0000     8.0000 </r>
       <r>    -3.1885     0.0000     8.0000 </r>
       <r>    -3.1166     0.0000     8.0000 </r>
       <r>    -3.0447     0.0000     8.0000 </r>
       <r>    -2.9728     0.0000     8.0000 </r>
       <r>    -2.9008     0.0000     8.0000 </r>
       <r>    -2.8289     0.0000     8.0000 </r>
       <r>    -2.7570     0.0000     8.0000 </r>
       <r>    -2.6851     0.0000     8.0000 </r>
       <r>    -2.6132     0.0000     8.0000 </r>
       <r>    -2.5412     0.0000     8.0000 </r>
       <r>    -2.4693     0.0000     8.0000 </r>
       <r>    -2.3974     0.0000     8.0000 </r>
       <r>    -2.3255     0.0000     8.0000 </r>
       <r>    -2.2536     0.0000     8.0000 </r>
       <r>    -2.1817     0.0000     8.0000 </r>
       <r>    -2.1097     0.0000     8.0000 </r>
       <r>    -2.0378     0.0000     8.0000 </r>
       <r>    -1.9659    -0.0000     8.0000 </r>
       <r>    -1.8940    -0.0000     8.0000 </r>
       <r>    -1.8221    -0.0000     8.0000 </r>
       <r>    -1.7502    -0.0000     8.0000 </r>
       <r>    -1.6782    -0.0000     8.0000 </r>
       <r>    -1.6063    -0.0000     8.0000 </r>
       <r>    -1.5344    -0.0000     8.0000 </r>
       <r>    -1.4625    -0.0000     8.0000 </r>
       <r>    -1.3906    -0.0000     8.0000 </r>
       <r>    -1.3187    -0.0000     8.0000 </r>
       <r>    -1.2467    -0.0000     8.0000 </r>
       <r>    -1.1748    -0.0000     8.0000 </r>
       <r>    -1.1029    -0.0000     8.0000 </r>
       <r>    -1.0310    -0.0001     8.0000 </r>
       <r>    -0.9591    -0.0007     7.9999 </r>
       <r>    -0.8872    -0.0051     7.9996 </r>
       <r>    -0.8152    -0.0278     7.9976 </r>
       <r>    -0.7433    -0.1088     7.9898 </r>
       <r>    -0.6714    -0.2900     7.9689 </r>
       <r>    -0.5995    -0.4380     7.9374 </r>
       <r>    -0.5276     0.0452     7.9407 </r>
       <r>    -0.4557     2.0137     8.0855 </r>
       <r>    -0.3837     5.3350     8.4692 </r>
       <r>    -0.3118     7.9958     9.0442 </r>
       <r>    -0.2399     7.7540     9.6018 </r>
       <r>    -0.1680     4.8287     9.9491 </r>
       <r>    -0.0961     1.6192    10.0655 </r>
       <r>    -0.0242    -0.1042    10.0580 </r>
       <r>     0.0478    -0.4595    10.0250 </r>
       <r>     0.1197    -0.3627     9.9989 </r>
       <r>     0.1916    -0.4161     9.9690 </r>
       <r>     0.2635    -0.7039     9.9184 </r>
       <r>     0.3354    -0.7215     9.8665 </r>
       <r>     0.4073     0.7839     9.9229 </r>
       <r>     0.4793     5.2072    10.2973 </r>
       <r>     0.5512    12.3657    11.1867 </r>
       <r>     0.6231    19.2287    12.5695 </r>
       <r>     0.6950    21.3918    14.1080 </r>
       <r>     0.7669    17.0260    15.3324 </r>
       <r>     0.8389     9.0814    15.9855 </r>
       <r>     0.9108     2.4459    16.1614 </r>
       <r>     0.9827    -0.5651    16.1208 </r>
       <r>     1.0546    -0.9450    16.0528 </r>
       <r>     1.1265    -0.5111    16.0161 </r>
       <r>     1.1984    -0.1737    16.0036 </r>
       <r>     1.2704    -0.0415    16.0006 </r>
       <r>     1.3423    -0.0072    16.0001 </r>
       <r>     1.4142    -0.0009    16.0000 </r>
       <r>     1.4861    -0.0001    16.0000 </r>
       <r>     1.5580    -0.0000    16.0000 </r>
       <r>     1.6299    -0.0000    16.0000 </r>
       <r>     1.7019    -0.0000    16.0000 </r>
       <r>     1.7738    -0.0000    16.0000 </r>
       <r>     1.8457    -0.0000    16.0000 </r>
       <r>     1.9176    -0.0000    16.0000 </r>
       <r>     1.9895    -0.0000    16.0000 </r>
       <r>     2.0614     0.0000    16.0000 </r>
       <r>     2.1334     0.0000    16.0000 </r>
       <r>     2.2053     0.0000    16.0000 </r>
       <r>     2.2772     0.0000    16.0000 </r>
       <r>     2.3491     0.0000    16.0000 </r>
       <r>     2.4210     0.0000    16.0000 </r>
       <r>     2.4929     0.0000    16.0000 </r>
       <r>     2.5649     0.0000    16.0000 </r>
       <r>     2.6368     0.0000    16.0000 </r>
       <r>     2.7087     0.0000    16.0000 </r>
      </set>
     </set>
    </array>
   </total>
  </dos>
  <time name="totalsc">   93.63   93.86</time>
 </calculation>
 <calculation>
  <scstep>
   <time name="dav">    2.17    2.17</time>
   <time name="total">    4.28    4.29</time>
   <energy>
    <i name="alphaZ">      0.24108157 </i>
    <i name="ewald">    126.61116766 </i>
    <i name="hartreedc">   -283.25408189 </i>
    <i name="XCdc">     24.66793692 </i>
    <i name="pawpsdc">    493.32319642 </i>
    <i name="pawaedc">   -494.11013406 </i>
    <i name="eentropy">      0.02528458 </i>
    <i name="bandstr">    -88.56790121 </i>
    <i name="atom">    197.04175453 </i>
    <i name="e_fr_energy">    -24.02169548 </i>
    <i name="e_wo_entrp">    -24.04698006 </i>
    <i name="e_0_energy">    -24.03012367 </i>
   </energy>
  </scstep>
  <scstep>
   <time name="diag">    0.47    0.47</time>
   <time name="diis">    1.66    1.67</time>
   <time name="orth">    0.01    0.01</time>
   <time name="total">    4.08    4.09</time>
   <energy>
    <i name="e_fr_energy">    -24.01698105 </i>
    <i name="e_wo_entrp">    -24.04515830 </i>
    <i name="e_0_energy">    -24.02637347 </i>
   </energy>
  </scstep>
  <scstep>
   <time name="diag">    0.47    0.47</time>
   <time name="diis">    1.66    1.67</time>
   <time name="orth">    0.01    0.01</time>
   <time name="total">    4.08    4.09</time>
   <energy>
    <i name="e_fr_energy">    -24.01380255 </i>
    <i name="e_wo_entrp">    -24.04171884 </i>
    <i name="e_0_energy">    -24.02310798 </i>
   </energy>
  </scstep>
  <scstep>
   <time name="diag">    0.47    0.47</time>
   <time name="diis">    1.64    1.64</time>
   <time name="orth">    0.01    0.01</time>
   <time name="total">    4.12    4.13</time>
   <energy>
    <i name="e_fr_energy">    -24.01732875 </i>
    <i name="e_wo_entrp">    -24.04639668 </i>
    <i name="e_0_energy">    -24.02701806 </i>
   </energy>
  </scstep>
  <scstep>
   <time name="diag">    0.47    0.47</time>
   <time name="diis">    1.65    1.65</time>
   <time name="orth">    0.01    0.01</time>
   <time name="total">    4.14    4.15</time>
   <energy>
    <i name="e_fr_energy">    -24.01772820 </i>
    <i name="e_wo_entrp">    -24.04684287 </i>
    <i name="e_0_energy">    -24.02743309 </i>
   </energy>
  </scstep>
  <scstep>
   <time name="diag">    0.46    0.46</time>
   <time name="diis">    1.67    1.68</time>
   <time name="orth">    0.01    0.01</time>
   <time name="total">    4.12    4.13</time>
   <energy>
    <i name="e_fr_energy">    -24.01706513 </i>
    <i name="e_wo_entrp">    -24.04640799 </i>
    <i name="e_0_energy">    -24.02684608 </i>
   </energy>
  </scstep>
  <scstep>
   <time name="diag">    0.47    0.47</time>
   <time name="diis">    1.72    1.72</time>
   <time name="orth">    0.01    0.01</time>
   <time name="total">    4.17    4.18</time>
   <energy>
    <i name="e_fr_energy">    -24.01706358 </i>
    <i name="e_wo_entrp">    -24.04653636 </i>
    <i name="e_0_energy">    -24.02688784 </i>
   </energy>
  </scstep>
  <scstep>
   <time name="diag">    0.48    0.48</time>
   <time name="diis">    1.67    1.67</time>
   <time name="orth">    0.01    0.01</time>
   <time name="total">    4.08    4.09</time>
   <energy>
    <i name="e_fr_energy">    -24.01720032 </i>
    <i name="e_wo_entrp">    -24.04706654 </i>
    <i name="e_0_energy">    -24.02715573 </i>
   </energy>
  </scstep>
  <scstep>
   <time name="diag">    0.49    0.49</time>
   <time name="diis">    1.64    1.64</time>
   <time name="orth">    0.01    0.01</time>
   <time name="total">    4.11    4.12</time>
   <energy>
    <i name="e_fr_energy">    -24.01729581 </i>
    <i name="e_wo_entrp">    -24.04718594 </i>
    <i name="e_0_energy">    -24.02725918 </i>
   </energy>
  </scstep>
  <scstep>
   <time name="diag">    0.46    0.47</time>
   <time name="diis">    1.62    1.62</time>
   <time name="orth">    0.01    0.01</time>
   <time name="total">    4.06    4.07</time>
   <energy>
    <i name="e_fr_energy">    -24.01734090 </i>
    <i name="e_wo_entrp">    -24.04719701 </i>
    <i name="e_0_energy">    -24.02729294 </i>
   </energy>
  </scstep>
  <scstep>
   <time name="diag">    0.47    0.47</time>
   <time name="diis">    1.62    1.62</time>
   <time name="orth">    0.01    0.01</time>
   <time name="total">    4.06    4.07</time>
   <energy>
    <i name="e_fr_energy">    -24.01737130 </i>
    <i name="e_wo_entrp">    -24.04723743 </i>
    <i name="e_0_energy">    -24.02732668 </i>
   </energy>
  </scstep>
  <scstep>
   <time name="diag">    0.48    0.48</time>
   <time name="diis">    1.60    1.60</time>
   <time name="orth">    0.01    0.01</time>
   <time name="total">    4.10    4.11</time>
   <energy>
    <i name="e_fr_energy">    -24.01739465 </i>
    <i name="e_wo_entrp">    -24.04727769 </i>
    <i name="e_0_energy">    -24.02735566 </i>
   </energy>
  </scstep>
  <scstep>
   <time name="diag">    0.47    0.47</time>
   <time name="diis">    1.24    1.24</time>
   <time name="orth">    0.01    0.01</time>
   <time name="total">    3.77    3.78</time>
   <energy>
    <i name="e_fr_energy">    -24.01740213 </i>
    <i name="e_wo_entrp">    -24.04729065 </i>
    <i name="e_0_energy">    -24.02736497 </i>
   </energy>
  </scstep>
  <scstep>
   <time name="diag">    0.46    0.46</time>
   <time name="diis">    1.50    1.50</time>
   <time name="orth">    0.01    0.01</time>
   <time name="total">    4.06    4.07</time>
   <energy>
    <i name="e_fr_energy">    -24.01740483 </i>
    <i name="e_wo_entrp">    -24.04729133 </i>
    <i name="e_0_energy">    -24.02736700 </i>
   </energy>
  </scstep>
  <scstep>
   <time name="diag">    0.46    0.46</time>
   <time name="diis">    1.21    1.21</time>
   <time name="orth">    0.01    0.01</time>
   <time name="total">    3.77    3.78</time>
   <energy>
    <i name="e_fr_energy">    -24.01740675 </i>
    <i name="e_wo_entrp">    -24.04728840 </i>
    <i name="e_0_energy">    -24.02736730 </i>
   </energy>
  </scstep>
  <scstep>
   <time name="diag">    0.46    0.46</time>
   <time name="diis">    1.20    1.20</time>
   <time name="orth">    0.01    0.01</time>
   <time name="total">    3.48    3.49</time>
   <energy>
    <i name="alphaZ">      0.24108157 </i>
    <i name="ewald">    126.61116766 </i>
    <i name="hartreedc">   -282.68684082 </i>
    <i name="XCdc">     24.63572041 </i>
    <i name="pawpsdc">    471.49935278 </i>
    <i name="pawaedc">   -472.28009932 </i>
    <i name="eentropy">      0.02987998 </i>
    <i name="bandstr">    -89.10942425 </i>
    <i name="atom">    197.04175453 </i>
    <i name="e_fr_energy">    -24.01740746 </i>
    <i name="e_wo_entrp">    -24.04728745 </i>
    <i name="e_0_energy">    -24.02736746 </i>
   </energy>
  </scstep>
  <structure>
   <crystal>
    <varray name="basis" >
     <v>       9.92918846       0.00000000       0.00000000 </v>
     <v>      -0.28704994      10.14925995       0.00000000 </v>
     <v>       0.07454173      -0.24938506       9.97132934 </v>
    </varray>
    <i name="volume">   1004.84989325 </i>
    <varray name="rec_basis" >
     <v>       0.10071317       0.00284845      -0.00068165 </v>
     <v>      -0.00000000       0.09852935       0.00246424 </v>
     <v>       0.00000000      -0.00000000       0.10028753 </v>
    </varray>
   </crystal>
   <varray name="positions" >
    <v>       0.54068205       0.40420770       0.35879399 </v>
    <v>       0.39487338       0.48099893       0.44250385 </v>
    <v>       0.55335130       0.56526357       0.44292764 </v>
    <v>       0.52689240       0.41931440       0.54069493 </v>
    <v>       0.50345428       0.46672867       0.44538477 </v>
   </varray>
  </structure>
  <varray name="forces" >
   <v>      -0.05698305       0.26989973       0.35202179 </v>
   <v>      -0.26266741      -0.45220518       0.16494206 </v>
   <v>      -0.14796325      -0.14368355      -0.51737178 </v>
   <v>       0.02096788      -0.07055009       0.02529523 </v>
   <v>      -0.16748703       0.71039090      -0.30152648 </v>
  </varray>
  <varray name="stress" >
   <v>      -0.39629174       0.24253774      -0.07271344 </v>
   <v>       0.24253774       0.33387112      -0.87222262 </v>
   <v>      -0.07271344      -0.87222262      -1.00407129 </v>
  </varray>
  <energy>
   <i name="e_fr_energy">    -24.01740746 </i>
   <i name="e_wo_entrp">    -24.02736746 </i>
   <i name="e_0_energy">      0.02987998 </i>
   <i name="kinetic">      0.06334395 </i>
   <i name="lattice kinetic">      0.00000000 </i>
   <i name="nosepot">      0.00031120 </i>
   <i name="nosekinetic">      0.00047526 </i>
   <i name="total">    -23.95327706 </i>
  </energy>
  <dos>
   <i name="efermi">     -8.98800378 </i>
   <total>
    <array>
     <dimension dim="1">gridpoints</dimension>
     <dimension dim="2">spin</dimension>
     <field>energy</field>
     <field>total</field>
     <field>integrated</field>
     <set>
      <set comment="spin 1">
       <r>   -18.8082     0.0000     0.0000 </r>
       <r>   -18.7364     0.0000     0.0000 </r>
       <r>   -18.6647     0.0000     0.0000 </r>
       <r>   -18.5930     0.0000     0.0000 </r>
       <r>   -18.5212     0.0000     0.0000 </r>
       <r>   -18.4495    -0.0000    -0.0000 </r>
       <r>   -18.3778    -0.0000    -0.0000 </r>
       <r>   -18.3061    -0.0000    -0.0000 </r>
       <r>   -18.2343    -0.0000    -0.0000 </r>
       <r>   -18.1626    -0.0000    -0.0000 </r>
       <r>   -18.0909    -0.0000    -0.0000 </r>
       <r>   -18.0192    -0.0000    -0.0000 </r>
       <r>   -17.9474    -0.0000    -0.0000 </r>
       <r>   -17.8757    -0.0000    -0.0000 </r>
       <r>   -17.8040    -0.0000    -0.0000 </r>
       <r>   -17.7323    -0.0000    -0.0000 </r>
       <r>   -17.6605    -0.0000    -0.0000 </r>
       <r>   -17.5888    -0.0000    -0.0000 </r>
       <r>   -17.5171    -0.0001    -0.0000 </r>
       <r>   -17.4454    -0.0008    -0.0001 </r>
       <r>   -17.3736    -0.0057    -0.0005 </r>
       <r>   -17.3019    -0.0304    -0.0027 </r>
       <r>   -17.2302    -0.1165    -0.0110 </r>
       <r>   -17.1585    -0.3025    -0.0327 </r>
       <r>   -17.0867    -0.4369    -0.0640 </r>
       <r>   -17.0150     0.1026    -0.0567 </r>
       <r>   -16.9433     2.1527     0.0977 </r>
       <r>   -16.8716     5.4961     0.4919 </r>
       <r>   -16.7998     8.0608     1.0701 </r>
       <r>   -16.7281     7.6780     1.6208 </r>
       <r>   -16.6564     4.6932     1.9574 </r>
       <r>   -16.5846     1.5250     2.0668 </r>
       <r>   -16.5129    -0.1311     2.0574 </r>
       <r>   -16.4412    -0.4342     2.0263 </r>
       <r>   -16.3695    -0.2526     2.0082 </r>
       <r>   -16.2977    -0.0882     2.0018 </r>
       <r>   -16.2260    -0.0213     2.0003 </r>
       <r>   -16.1543    -0.0037     2.0000 </r>
       <r>   -16.0826    -0.0005     2.0000 </r>
       <r>   -16.0108    -0.0000     2.0000 </r>
       <r>   -15.9391    -0.0000     2.0000 </r>
       <r>   -15.8674    -0.0000     2.0000 </r>
       <r>   -15.7957    -0.0000     2.0000 </r>
       <r>   -15.7239    -0.0000     2.0000 </r>
       <r>   -15.6522    -0.0000     2.0000 </r>
       <r>   -15.5805    -0.0000     2.0000 </r>
       <r>   -15.5088     0.0000     2.0000 </r>
       <r>   -15.4370     0.0000     2.0000 </r>
       <r>   -15.3653     0.0000     2.0000 </r>
       <r>   -15.2936     0.0000     2.0000 </r>
       <r>   -15.2219     0.0000     2.0000 </r>
       <r>   -15.1501     0.0000     2.0000 </r>
       <r>   -15.0784     0.0000     2.0000 </r>
       <r>   -15.0067     0.0000     2.0000 </r>
       <r>   -14.9349     0.0000     2.0000 </r>
       <r>   -14.8632     0.0000     2.0000 </r>
       <r>   -14.7915     0.0000     2.0000 </r>
       <r>   -14.7198     0.0000     2.0000 </r>
       <r>   -14.6480     0.0000     2.0000 </r>
       <r>   -14.5763     0.0000     2.0000 </r>
       <r>   -14.5046     0.0000     2.0000 </r>
       <r>   -14.4329     0.0000     2.0000 </r>
       <r>   -14.3611     0.0000     2.0000 </r>
       <r>   -14.2894     0.0000     2.0000 </r>
       <r>   -14.2177     0.0000     2.0000 </r>
       <r>   -14.1460     0.0000     2.0000 </r>
       <r>   -14.0742     0.0000     2.0000 </r>
       <r>   -14.0025     0.0000     2.0000 </r>
       <r>   -13.9308     0.0000     2.0000 </r>
       <r>   -13.8591     0.0000     2.0000 </r>
       <r>   -13.7873     0.0000     2.0000 </r>
       <r>   -13.7156     0.0000     2.0000 </r>
       <r>   -13.6439     0.0000     2.0000 </r>
       <r>   -13.5722     0.0000     2.0000 </r>
       <r>   -13.5004     0.0000     2.0000 </r>
       <r>   -13.4287     0.0000     2.0000 </r>
       <r>   -13.3570     0.0000     2.0000 </r>
       <r>   -13.2853     0.0000     2.0000 </r>
       <r>   -13.2135     0.0000     2.0000 </r>
       <r>   -13.1418     0.0000     2.0000 </r>
       <r>   -13.0701     0.0000     2.0000 </r>
       <r>   -12.9983     0.0000     2.0000 </r>
       <r>   -12.9266     0.0000     2.0000 </r>
       <r>   -12.8549     0.0000     2.0000 </r>
       <r>   -12.7832     0.0000     2.0000 </r>
       <r>   -12.7114     0.0000     2.0000 </r>
       <r>   -12.6397     0.0000     2.0000 </r>
       <r>   -12.5680     0.0000     2.0000 </r>
       <r>   -12.4963     0.0000     2.0000 </r>
       <r>   -12.4245     0.0000     2.0000 </r>
       <r>   -12.3528     0.0000     2.0000 </r>
       <r>   -12.2811     0.0000     2.0000 </r>
       <r>   -12.2094     0.0000     2.0000 </r>
       <r>   -12.1376     0.0000     2.0000 </r>
       <r>   -12.0659     0.0000     2.0000 </r>
       <r>   -11.9942     0.0000     2.0000 </r>
       <r>   -11.9225     0.0000     2.0000 </r>
       <r>   -11.8507     0.0000     2.0000 </r>
       <r>   -11.7790     0.0000     2.0000 </r>
       <r>   -11.7073     0.0000     2.0000 </r>
       <r>   -11.6356     0.0000     2.0000 </r>
       <r>   -11.5638     0.0000     2.0000 </r>
       <r>   -11.4921     0.0000     2.0000 </r>
       <r>   -11.4204     0.0000     2.0000 </r>
       <r>   -11.3486     0.0000     2.0000 </r>
       <r>   -11.2769     0.0000     2.0000 </r>
       <r>   -11.2052     0.0000     2.0000 </r>
       <r>   -11.1335     0.0000     2.0000 </r>
       <r>   -11.0617    -0.0000     2.0000 </r>
       <r>   -10.9900    -0.0000     2.0000 </r>
       <r>   -10.9183    -0.0000     2.0000 </r>
       <r>   -10.8466    -0.0000     2.0000 </r>
       <r>   -10.7748    -0.0000     2.0000 </r>
       <r>   -10.7031    -0.0000     2.0000 </r>
       <r>   -10.6314    -0.0000     2.0000 </r>
       <r>   -10.5597    -0.0000     2.0000 </r>
       <r>   -10.4879    -0.0000     2.0000 </r>
       <r>   -10.4162    -0.0000     2.0000 </r>
       <r>   -10.3445    -0.0000     2.0000 </r>
       <r>   -10.2728    -0.0000     2.0000 </r>
       <r>   -10.2010    -0.0000     2.0000 </r>
       <r>   -10.1293    -0.0000     2.0000 </r>
       <r>   -10.0576    -0.0004     2.0000 </r>
       <r>    -9.9859    -0.0032     1.9997 </r>
       <r>    -9.9141    -0.0190     1.9984 </r>
       <r>    -9.8424    -0.0814     1.9925 </r>
       <r>    -9.7707    -0.2452     1.9749 </r>
       <r>    -9.6990    -0.4707     1.9412 </r>
       <r>    -9.6272    -0.3543     1.9158 </r>
       <r>    -9.5555     0.9023     1.9805 </r>
       <r>    -9.4838     3.7271     2.2478 </r>
       <r>    -9.4120     7.3794     2.7771 </r>
       <r>    -9.3403    10.7551     3.5485 </r>
       <r>    -9.2686    13.6579     4.5282 </r>
       <r>    -9.1969    15.8028     5.6616 </r>
       <r>    -9.1251    15.4920     6.7728 </r>
       <r>    -9.0534    11.5759     7.6031 </r>
       <r>    -8.9817     5.8321     8.0214 </r>
       <r>    -8.9100     1.3702     8.1197 </r>
       <r>    -8.8382    -0.5109     8.0830 </r>
       <r>    -8.7665    -0.6670     8.0352 </r>
       <r>    -8.6948    -0.3440     8.0105 </r>
       <r>    -8.6231    -0.1144     8.0023 </r>
       <r>    -8.5513    -0.0270     8.0004 </r>
       <r>    -8.4796    -0.0047     8.0000 </r>
       <r>    -8.4079    -0.0006     8.0000 </r>
       <r>    -8.3362    -0.0001     8.0000 </r>
       <r>    -8.2644    -0.0000     8.0000 </r>
       <r>    -8.1927    -0.0000     8.0000 </r>
       <r>    -8.1210    -0.0000     8.0000 </r>
       <r>    -8.0493    -0.0000     8.0000 </r>
       <r>    -7.9775    -0.0000     8.0000 </r>
       <r>    -7.9058    -0.0000     8.0000 </r>
       <r>    -7.8341     0.0000     8.0000 </r>
       <r>    -7.7623     0.0000     8.0000 </r>
       <r>    -7.6906     0.0000     8.0000 </r>
       <r>    -7.6189     0.0000     8.0000 </r>
       <r>    -7.5472     0.0000     8.0000 </r>
       <r>    -7.4754     0.0000     8.0000 </r>
       <r>    -7.4037     0.0000     8.0000 </r>
       <r>    -7.3320     0.0000     8.0000 </r>
       <r>    -7.2603     0.0000     8.0000 </r>
       <r>    -7.1885     0.0000     8.0000 </r>
       <r>    -7.1168     0.0000     8.0000 </r>
       <r>    -7.0451     0.0000     8.0000 </r>
       <r>    -6.9734     0.0000     8.0000 </r>
       <r>    -6.9016     0.0000     8.0000 </r>
       <r>    -6.8299     0.0000     8.0000 </r>
       <r>    -6.7582     0.0000     8.0000 </r>
       <r>    -6.6865     0.0000     8.0000 </r>
       <r>    -6.6147     0.0000     8.0000 </r>
       <r>    -6.5430     0.0000     8.0000 </r>
       <r>    -6.4713     0.0000     8.0000 </r>
       <r>    -6.3996     0.0000     8.0000 </r>
       <r>    -6.3278     0.0000     8.0000 </r>
       <r>    -6.2561     0.0000     8.0000 </r>
       <r>    -6.1844     0.0000     8.0000 </r>
       <r>    -6.1126     0.0000     8.0000 </r>
       <r>    -6.0409     0.0000     8.0000 </r>
       <r>    -5.9692     0.0000     8.0000 </r>
       <r>    -5.8975     0.0000     8.0000 </r>
       <r>    -5.8257     0.0000     8.0000 </r>
       <r>    -5.7540     0.0000     8.0000 </r>
       <r>    -5.6823     0.0000     8.0000 </r>
       <r>    -5.6106     0.0000     8.0000 </r>
       <r>    -5.5388     0.0000     8.0000 </r>
       <r>    -5.4671     0.0000     8.0000 </r>
       <r>    -5.3954     0.0000     8.0000 </r>
       <r>    -5.3237     0.0000     8.0000 </r>
       <r>    -5.2519     0.0000     8.0000 </r>
       <r>    -5.1802     0.0000     8.0000 </r>
       <r>    -5.1085     0.0000     8.0000 </r>
       <r>    -5.0368     0.0000     8.0000 </r>
       <r>    -4.9650     0.0000     8.0000 </r>
       <r>    -4.8933     0.0000     8.0000 </r>
       <r>    -4.8216     0.0000     8.0000 </r>
       <r>    -4.7499     0.0000     8.0000 </r>
       <r>    -4.6781     0.0000     8.0000 </r>
       <r>    -4.6064     0.0000     8.0000 </r>
       <r>    -4.5347     0.0000     8.0000 </r>
       <r>    -4.4630     0.0000     8.0000 </r>
       <r>    -4.3912     0.0000     8.0000 </r>
       <r>    -4.3195     0.0000     8.0000 </r>
       <r>    -4.2478     0.0000     8.0000 </r>
       <r>    -4.1760     0.0000     8.0000 </r>
       <r>    -4.1043     0.0000     8.0000 </r>
       <r>    -4.0326     0.0000     8.0000 </r>
       <r>    -3.9609     0.0000     8.0000 </r>
       <r>    -3.8891     0.0000     8.0000 </r>
       <r>    -3.8174     0.0000     8.0000 </r>
       <r>    -3.7457     0.0000     8.0000 </r>
       <r>    -3.6740     0.0000     8.0000 </r>
       <r>    -3.6022     0.0000     8.0000 </r>
       <r>    -3.5305     0.0000     8.0000 </r>
       <r>    -3.4588     0.0000     8.0000 </r>
       <r>    -3.3871     0.0000     8.0000 </r>
       <r>    -3.3153     0.0000     8.0000 </r>
       <r>    -3.2436     0.0000     8.0000 </r>
       <r>    -3.1719     0.0000     8.0000 </r>
       <r>    -3.1002     0.0000     8.0000 </r>
       <r>    -3.0284     0.0000     8.0000 </r>
       <r>    -2.9567     0.0000     8.0000 </r>
       <r>    -2.8850     0.0000     8.0000 </r>
       <r>    -2.8133     0.0000     8.0000 </r>
       <r>    -2.7415     0.0000     8.0000 </r>
       <r>    -2.6698     0.0000     8.0000 </r>
       <r>    -2.5981     0.0000     8.0000 </r>
       <r>    -2.5263     0.0000     8.0000 </r>
       <r>    -2.4546     0.0000     8.0000 </r>
       <r>    -2.3829     0.0000     8.0000 </r>
       <r>    -2.3112     0.0000     8.0000 </r>
       <r>    -2.2394     0.0000     8.0000 </r>
       <r>    -2.1677     0.0000     8.0000 </r>
       <r>    -2.0960     0.0000     8.0000 </r>
       <r>    -2.0243     0.0000     8.0000 </r>
       <r>    -1.9525    -0.0000     8.0000 </r>
       <r>    -1.8808    -0.0000     8.0000 </r>
       <r>    -1.8091    -0.0000     8.0000 </r>
       <r>    -1.7374    -0.0000     8.0000 </r>
       <r>    -1.6656    -0.0000     8.0000 </r>
       <r>    -1.5939    -0.0000     8.0000 </r>
       <r>    -1.5222    -0.0000     8.0000 </r>
       <r>    -1.4505    -0.0000     8.0000 </r>
       <r>    -1.3787    -0.0000     8.0000 </r>
       <r>    -1.3070    -0.0000     8.0000 </r>
       <r>    -1.2353    -0.0000     8.0000 </r>
       <r>    -1.1636    -0.0000     8.0000 </r>
       <r>    -1.0918    -0.0000     8.0000 </r>
       <r>    -1.0201    -0.0001     8.0000 </r>
       <r>    -0.9484    -0.0013     7.9999 </r>
       <r>    -0.8767    -0.0089     7.9993 </r>
       <r>    -0.8049    -0.0436     7.9961 </r>
       <r>    -0.7332    -0.1528     7.9852 </r>
       <r>    -0.6615    -0.3538     7.9598 </r>
       <r>    -0.5897    -0.4016     7.9310 </r>
       <r>    -0.5180     0.4405     7.9626 </r>
       <r>    -0.4463     2.8942     8.1702 </r>
       <r>    -0.3746     6.2898     8.6213 </r>
       <r>    -0.3028     8.2740     9.2148 </r>
       <r>    -0.2311     7.1155     9.7251 </r>
       <r>    -0.1594     3.8494    10.0012 </r>
       <r>    -0.0877     0.9670    10.0706 </r>
       <r>    -0.0159    -0.2995    10.0491 </r>
       <r>     0.0558    -0.4370    10.0178 </r>
       <r>     0.1275    -0.3309     9.9940 </r>
       <r>     0.1992    -0.4389     9.9626 </r>
       <r>     0.2710    -0.7411     9.9094 </r>
       <r>     0.3427    -0.6275     9.8644 </r>
       <r>     0.4144     1.2280     9.9525 </r>
       <r>     0.4861     6.0945    10.3896 </r>
       <r>     0.5579    13.4150    11.3518 </r>
       <r>     0.6296    19.8361    12.7746 </r>
       <r>     0.7013    21.1204    14.2895 </r>
       <r>     0.7730    16.0759    15.4425 </r>
       <r>     0.8448     8.1091    16.0242 </r>
       <r>     0.9165     1.9120    16.1613 </r>
       <r>     0.9882    -0.6886    16.1119 </r>
       <r>     1.0600    -0.9032    16.0471 </r>
       <r>     1.1317    -0.4625    16.0140 </r>
       <r>     1.2034    -0.1522    16.0030 </r>
       <r>     1.2751    -0.0355    16.0005 </r>
       <r>     1.3469    -0.0061    16.0001 </r>
       <r>     1.4186    -0.0008    16.0000 </r>
       <r>     1.4903    -0.0001    16.0000 </r>
       <r>     1.5620    -0.0000    16.0000 </r>
       <r>     1.6338    -0.0000    16.0000 </r>
       <r>     1.7055    -0.0000    16.0000 </r>
       <r>     1.7772    -0.0000    16.0000 </r>
       <r>     1.8489    -0.0000    16.0000 </r>
       <r>     1.9207    -0.0000    16.0000 </r>
       <r>     1.9924    -0.0000    16.0000 </r>
       <r>     2.0641     0.0000    16.0000 </r>
       <r>     2.1358     0.0000    16.0000 </r>
       <r>     2.2076     0.0000    16.0000 </r>
       <r>     2.2793     0.0000    16.0000 </r>
       <r>     2.3510     0.0000    16.0000 </r>
       <r>     2.4227     0.0000    16.0000 </r>
       <r>     2.4945     0.0000    16.0000 </r>
       <r>     2.5662     0.0000    16.0000 </r>
       <r>     2.6379     0.0000    16.0000 </r>
       <r>     2.7096     0.0000    16.0000 </r>
      </set>
     </set>
    </array>
   </total>
  </dos>
  <time name="totalsc">   72.89   73.08</time>
 </calculation>
 <calculation>
  <scstep>
   <time name="dav">    2.15    2.16</time>
   <time name="total">    4.23    4.24</time>
   <energy>
    <i name="alphaZ">      0.24108157 </i>
    <i name="ewald">    125.29130622 </i>
    <i name="hartreedc">   -281.43555247 </i>
    <i name="XCdc">     24.57134749 </i>
    <i name="pawpsdc">    453.39646782 </i>
    <i name="pawaedc">   -454.17200903 </i>
    <i name="eentropy">      0.02249574 </i>
    <i name="bandstr">    -88.92183228 </i>
    <i name="atom">    197.04175453 </i>
    <i name="e_fr_energy">    -23.96494041 </i>
    <i name="e_wo_entrp">    -23.98743615 </i>
    <i name="e_0_energy">    -23.97243899 </i>
   </energy>
  </scstep>
  <scstep>
   <time name="diag">    0.47    0.47</time>
   <time name="diis">    1.58    1.58</time>
   <time name="orth">    0.01    0.01</time>
   <time name="total">    4.01    4.02</time>
   <energy>
    <i name="e_fr_energy">    -23.96045346 </i>
    <i name="e_wo_entrp">    -23.98343372 </i>
    <i name="e_0_energy">    -23.96811355 </i>
   </energy>
  </scstep>
  <scstep>
   <time name="diag">    0.48    0.48</time>
   <time name="diis">    1.55    1.56</time>
   <time name="orth">    0.01    0.01</time>
   <time name="total">    4.03    4.04</time>
   <energy>
    <i name="e_fr_energy">    -23.96006228 </i>
    <i name="e_wo_entrp">    -23.98175117 </i>
    <i name="e_0_energy">    -23.96729191 </i>
   </energy>
  </scstep>
  <scstep>
   <time name="diag">    0.48    0.48</time>
   <time name="diis">    1.53    1.54</time>
   <time name="orth">    0.01    0.01</time>
   <time name="total">    4.01    4.01</time>
   <energy>
    <i name="e_fr_energy">    -23.95959117 </i>
    <i name="e_wo_entrp">    -23.98051298 </i>
    <i name="e_0_energy">    -23.96656511 </i>
   </energy>
  </scstep>
  <scstep>
   <time name="diag">    0.47    0.47</time>
   <time name="diis">    1.54    1.54</time>
   <time name="orth">    0.01    0.01</time>
   <time name="total">    4.03    4.04</time>
   <energy>
    <i name="e_fr_energy">    -23.96000197 </i>
    <i name="e_wo_entrp">    -23.98049892 </i>
    <i name="e_0_energy">    -23.96683429 </i>
   </energy>
  </scstep>
  <scstep>
   <time name="diag">    0.47    0.47</time>
   <time name="diis">    1.57    1.58</time>
   <time name="orth">    0.01    0.01</time>
   <time name="total">    4.12    4.13</time>
   <energy>
    <i name="e_fr_energy">    -23.95998846 </i>
    <i name="e_wo_entrp">    -23.98016766 </i>
    <i name="e_0_energy">    -23.96671486 </i>
   </energy>
  </scstep>
  <scstep>
   <time name="diag">    0.48    0.48</time>
   <time name="diis">    1.58    1.58</time>
   <time name="orth">    0.01    0.01</time>
   <time name="total">    4.13    4.14</time>
   <energy>
    <i name="e_fr_energy">    -23.96001041 </i>
    <i name="e_wo_entrp">    -23.98005392 </i>
    <i name="e_0_energy">    -23.96669158 </i>
   </energy>
  </scstep>
  <scstep>
   <time name="diag">    0.48    0.48</time>
   <time name="diis">    1.60    1.61</time>
   <time name="orth">    0.01    0.01</time>
   <time name="total">    4.15    4.16</time>
   <energy>
    <i name="e_fr_energy">    -23.96005346 </i>
    <i name="e_wo_entrp">    -23.97998906 </i>
    <i name="e_0_energy">    -23.96669866 </i>
   </energy>
  </scstep>
  <scstep>
   <time name="diag">    0.49    0.49</time>
   <time name="diis">    1.51    1.51</time>
   <time name="orth">    0.01    0.01</time>
   <time name="total">    4.12    4.13</time>
   <energy>
    <i name="e_fr_energy">    -23.96008118 </i>
    <i name="e_wo_entrp">    -23.97998732 </i>
    <i name="e_0_energy">    -23.96671656 </i>
   </energy>
  </scstep>
  <scstep>
   <time name="diag">    0.49    0.49</time>
   <time name="diis">    1.55    1.55</time>
   <time name="orth">    0.01    0.01</time>
   <time name="total">    4.23    4.24</time>
   <energy>
    <i name="e_fr_energy">    -23.96008885 </i>
    <i name="e_wo_entrp">    -23.97998362 </i>
    <i name="e_0_energy">    -23.96672044 </i>
   </energy>
  </scstep>
  <scstep>
   <time name="diag">    0.47    0.47</time>
   <time name="diis">    1.24    1.24</time>
   <time name="orth">    0.01    0.01</time>
   <time name="total">    3.85    3.86</time>
   <energy>
    <i name="e_fr_energy">    -23.96009505 </i>
    <i name="e_wo_entrp">    -23.97997197 </i>
    <i name="e_0_energy">    -23.96672069 </i>
   </energy>
  </scstep>
  <scstep>
   <time name="diag">    0.48    0.48</time>
   <time name="diis">    1.22    1.23</time>
   <time name="orth">    0.01    0.01</time>
   <time name="total">    3.82    3.83</time>
   <energy>
    <i name="e_fr_energy">    -23.96009694 </i>
    <i name="e_wo_entrp">    -23.97997359 </i>
    <i name="e_0_energy">    -23.96672249 </i>
   </energy>
  </scstep>
  <scstep>
   <time name="diag">    0.48    0.48</time>
   <time name="diis">    1.22    1.22</time>
   <time name="orth">    0.01    0.01</time>
   <time name="total">    3.86    3.86</time>
   <energy>
    <i name="e_fr_energy">    -23.96009821 </i>
    <i name="e_wo_entrp">    -23.97997034 </i>
    <i name="e_0_energy">    -23.96672225 </i>
   </energy>
  </scstep>
  <scstep>
   <time name="diag">    0.47    0.47</time>
   <time name="diis">    1.23    1.24</time>
   <time name="orth">    0.01    0.01</time>
   <time name="total">    3.52    3.53</time>
   <energy>
    <i name="alphaZ">      0.24108157 </i>
    <i name="ewald">    125.29130622 </i>
    <i name="hartreedc">   -281.47627932 </i>
    <i name="XCdc">     24.56968637 </i>
    <i name="pawpsdc">    459.04496775 </i>
    <i name="pawaedc">   -459.82075408 </i>
    <i name="eentropy">      0.01986951 </i>
    <i name="bandstr">    -88.87173137 </i>
    <i name="atom">    197.04175453 </i>
    <i name="e_fr_energy">    -23.96009882 </i>
    <i name="e_wo_entrp">    -23.97996833 </i>
    <i name="e_0_energy">    -23.96672199 </i>
   </energy>
  </scstep>
  <structure>
   <crystal>
    <varray name="basis" >
     <v>       9.92918846       0.00000000       0.00000000 </v>
     <v>      -0.28704994      10.14925995       0.00000000 </v>
     <v>       0.07454173      -0.24938506       9.97132934 </v>
    </varray>
    <i name="volume">   1004.84989325 </i>
    <varray name="rec_basis" >
     <v>       0.10071317       0.00284845      -0.00068165 </v>
     <v>      -0.00000000       0.09852935       0.00246424 </v>
     <v>       0.00000000      -0.00000000       0.10028753 </v>
    </varray>
   </crystal>
   <varray name="positions" >
    <v>       0.54304750       0.40267323       0.35854246 </v>
    <v>       0.39457207       0.48022913       0.44741529 </v>
    <v>       0.55437315       0.56474635       0.44124779 </v>
    <v>       0.52541888       0.42157702       0.54269019 </v>
    <v>       0.50332003       0.46677520       0.44497054 </v>
   </varray>
  </structure>
  <varray name="forces" >
   <v>      -1.16316035       0.51260382       1.03752479 </v>
   <v>       0.30799493       0.31685152      -0.94844650 </v>
   <v>       0.12608315       0.12269894       0.52349602 </v>
   <v>       0.06966493       0.09492052      -0.59370416 </v>
   <v>      -0.22386827       0.67770573      -0.34346487 </v>
  </varray>
  <varray name="stress" >
   <v>      -1.27653329       0.49826874       1.18334535 </v>
   <v>       0.49826874       0.07171196      -0.67022859 </v>
   <v>       1.18334535      -0.67022859      -2.76209382 </v>
  </varray>
  <energy>
   <i name="e_fr_energy">    -23.96009882 </i>
   <i name="e_wo_entrp">    -23.96672199 </i>
   <i name="e_0_energy">      0.01986951 </i>
   <i name="kinetic">      0.03291544 </i>
   <i name="lattice kinetic">      0.00000000 </i>
   <i name="nosepot">      0.00154346 </i>
   <i name="nosekinetic">      0.00136935 </i>
   <i name="total">    -23.92427057 </i>
  </energy>
  <dos>
   <i name="efermi">     -8.81740251 </i>
   <total>
    <array>
     <dimension dim="1">gridpoints</dimension>
     <dimension dim="2">spin</dimension>
     <field>energy</field>
     <field>total</field>
     <field>integrated</field>
     <set>
      <set comment="spin 1">
       <r>   -18.7752     0.0000     0.0000 </r>
       <r>   -18.7036     0.0000     0.0000 </r>
       <r>   -18.6320     0.0000     0.0000 </r>
       <r>   -18.5604     0.0000     0.0000 </r>
       <r>   -18.4888     0.0000     0.0000 </r>
       <r>   -18.4172    -0.0000    -0.0000 </r>
       <r>   -18.3456    -0.0000    -0.0000 </r>
       <r>   -18.2740    -0.0000    -0.0000 </r>
       <r>   -18.2024    -0.0000    -0.0000 </r>
       <r>   -18.1308    -0.0000    -0.0000 </r>
       <r>   -18.0592    -0.0000    -0.0000 </r>
       <r>   -17.9876    -0.0000    -0.0000 </r>
       <r>   -17.9160    -0.0000    -0.0000 </r>
       <r>   -17.8444    -0.0000    -0.0000 </r>
       <r>   -17.7728    -0.0000    -0.0000 </r>
       <r>   -17.7012    -0.0000    -0.0000 </r>
       <r>   -17.6296    -0.0000    -0.0000 </r>
       <r>   -17.5580    -0.0000    -0.0000 </r>
       <r>   -17.4864    -0.0001    -0.0000 </r>
       <r>   -17.4148    -0.0007    -0.0001 </r>
       <r>   -17.3432    -0.0054    -0.0004 </r>
       <r>   -17.2716    -0.0289    -0.0025 </r>
       <r>   -17.2000    -0.1116    -0.0105 </r>
       <r>   -17.1283    -0.2941    -0.0316 </r>
       <r>   -17.0567    -0.4386    -0.0630 </r>
       <r>   -16.9851     0.0543    -0.0591 </r>
       <r>   -16.9135     2.0283     0.0861 </r>
       <r>   -16.8419     5.3418     0.4686 </r>
       <r>   -16.7703     7.9970     1.0413 </r>
       <r>   -16.6987     7.7718     1.5978 </r>
       <r>   -16.6271     4.8690     1.9464 </r>
       <r>   -16.5555     1.6580     2.0651 </r>
       <r>   -16.4839    -0.0843     2.0591 </r>
       <r>   -16.4123    -0.4374     2.0278 </r>
       <r>   -16.3407    -0.2647     2.0088 </r>
       <r>   -16.2691    -0.0948     2.0020 </r>
       <r>   -16.1975    -0.0234     2.0003 </r>
       <r>   -16.1259    -0.0042     2.0000 </r>
       <r>   -16.0543    -0.0006     2.0000 </r>
       <r>   -15.9827    -0.0001     2.0000 </r>
       <r>   -15.9111    -0.0000     2.0000 </r>
       <r>   -15.8395    -0.0000     2.0000 </r>
       <r>   -15.7679    -0.0000     2.0000 </r>
       <r>   -15.6963    -0.0000     2.0000 </r>
       <r>   -15.6247    -0.0000     2.0000 </r>
       <r>   -15.5531    -0.0000     2.0000 </r>
       <r>   -15.4815     0.0000     2.0000 </r>
       <r>   -15.4099     0.0000     2.0000 </r>
       <r>   -15.3382     0.0000     2.0000 </r>
       <r>   -15.2666     0.0000     2.0000 </r>
       <r>   -15.1950     0.0000     2.0000 </r>
       <r>   -15.1234     0.0000     2.0000 </r>
       <r>   -15.0518     0.0000     2.0000 </r>
       <r>   -14.9802     0.0000     2.0000 </r>
       <r>   -14.9086     0.0000     2.0000 </r>
       <r>   -14.8370     0.0000     2.0000 </r>
       <r>   -14.7654     0.0000     2.0000 </r>
       <r>   -14.6938     0.0000     2.0000 </r>
       <r>   -14.6222     0.0000     2.0000 </r>
       <r>   -14.5506     0.0000     2.0000 </r>
       <r>   -14.4790     0.0000     2.0000 </r>
       <r>   -14.4074     0.0000     2.0000 </r>
       <r>   -14.3358     0.0000     2.0000 </r>
       <r>   -14.2642     0.0000     2.0000 </r>
       <r>   -14.1926     0.0000     2.0000 </r>
       <r>   -14.1210     0.0000     2.0000 </r>
       <r>   -14.0494     0.0000     2.0000 </r>
       <r>   -13.9778     0.0000     2.0000 </r>
       <r>   -13.9062     0.0000     2.0000 </r>
       <r>   -13.8346     0.0000     2.0000 </r>
       <r>   -13.7630     0.0000     2.0000 </r>
       <r>   -13.6914     0.0000     2.0000 </r>
       <r>   -13.6198     0.0000     2.0000 </r>
       <r>   -13.5481     0.0000     2.0000 </r>
       <r>   -13.4765     0.0000     2.0000 </r>
       <r>   -13.4049     0.0000     2.0000 </r>
       <r>   -13.3333     0.0000     2.0000 </r>
       <r>   -13.2617     0.0000     2.0000 </r>
       <r>   -13.1901     0.0000     2.0000 </r>
       <r>   -13.1185     0.0000     2.0000 </r>
       <r>   -13.0469     0.0000     2.0000 </r>
       <r>   -12.9753     0.0000     2.0000 </r>
       <r>   -12.9037     0.0000     2.0000 </r>
[...]
       <r>     0.2659    -0.6946     9.9207 </r>
       <r>     0.3381    -0.7401     9.8673 </r>
       <r>     0.4102     0.6898     9.9171 </r>
       <r>     0.4824     5.0281    10.2799 </r>
       <r>     0.5545    12.1678    11.1579 </r>
       <r>     0.6267    19.1140    12.5370 </r>
       <r>     0.6988    21.4080    14.0817 </r>
       <r>     0.7710    17.1267    15.3175 </r>
       <r>     0.8431     9.1819    15.9800 </r>
       <r>     0.9153     2.5010    16.1605 </r>
       <r>     0.9875    -0.5476    16.1210 </r>
       <r>     1.0596    -0.9424    16.0530 </r>
       <r>     1.1318    -0.5110    16.0161 </r>
       <r>     1.2039    -0.1735    16.0036 </r>
       <r>     1.2761    -0.0413    16.0006 </r>
       <r>     1.3482    -0.0072    16.0001 </r>
       <r>     1.4204    -0.0009    16.0000 </r>
       <r>     1.4925    -0.0001    16.0000 </r>
       <r>     1.5647    -0.0000    16.0000 </r>
       <r>     1.6368    -0.0000    16.0000 </r>
       <r>     1.7090    -0.0000    16.0000 </r>
       <r>     1.7812    -0.0000    16.0000 </r>
       <r>     1.8533    -0.0000    16.0000 </r>
       <r>     1.9255    -0.0000    16.0000 </r>
       <r>     1.9976    -0.0000    16.0000 </r>
       <r>     2.0698     0.0000    16.0000 </r>
       <r>     2.1419     0.0000    16.0000 </r>
       <r>     2.2141     0.0000    16.0000 </r>
       <r>     2.2862     0.0000    16.0000 </r>
       <r>     2.3584     0.0000    16.0000 </r>
       <r>     2.4305     0.0000    16.0000 </r>
       <r>     2.5027     0.0000    16.0000 </r>
       <r>     2.5749     0.0000    16.0000 </r>
       <r>     2.6470     0.0000    16.0000 </r>
       <r>     2.7192     0.0000    16.0000 </r>
      </set>
     </set>
    </array>
   </total>
  </dos>
  <time name="totalsc">   56.66   56.81</time>
  <eigenvalues>
   <array>
    <dimension dim="1">band</dimension>
    <dimension dim="2">kpoint</dimension>
    <dimension dim="3">spin</dimension>
    <field>eigene</field>
    <field>occ</field>
    <set>
     <set comment="spin 1">
      <set comment="kpoint 1">
       <r>  -16.6931    1.0000 </r>
       <r>   -9.4252    1.0001 </r>
       <r>   -9.0713    1.0346 </r>
       <r>   -8.9838    0.9654 </r>
       <r>   -0.3271    0.0000 </r>
       <r>    0.5363    0.0000 </r>
       <r>    0.6494    0.0000 </r>
       <r>    0.6881    0.0000 </r>
      </set>
      <set comment="kpoint 2">
       <r>  -16.6931    1.0000 </r>
       <r>   -9.4250    1.0001 </r>
       <r>   -9.0712    1.0346 </r>
       <r>   -8.9838    0.9653 </r>
       <r>   -0.3311    0.0000 </r>
       <r>    0.5426    0.0000 </r>
       <r>    0.6577    0.0000 </r>
       <r>    0.6953    0.0000 </r>
      </set>
      <set comment="kpoint 3">
       <r>  -16.6930    1.0000 </r>
       <r>   -9.4251    1.0001 </r>
       <r>   -9.0713    1.0346 </r>
       <r>   -8.9838    0.9652 </r>
       <r>   -0.3376    0.0000 </r>
       <r>    0.5567    0.0000 </r>
       <r>    0.6779    0.0000 </r>
       <r>    0.7095    0.0000 </r>
      </set>
      <set comment="kpoint 4">
       <r>  -16.6930    1.0000 </r>
       <r>   -9.4251    1.0001 </r>
       <r>   -9.0713    1.0346 </r>
       <r>   -8.9838    0.9652 </r>
       <r>   -0.3308    0.0000 </r>
       <r>    0.5527    0.0000 </r>
       <r>    0.6526    0.0000 </r>
       <r>    0.6893    0.0000 </r>
      </set>
     </set>
    </set>
   </array>
  </eigenvalues>
  <separator name="orbital magnetization" >
   <v name="MAGDIPOLOUT">      0.00000000      0.00000000      0.00000000</v>
  </separator>
  <dos>
   <i name="efermi">     -8.84063353 </i>
   <total>
    <array>
     <dimension dim="1">gridpoints</dimension>
     <dimension dim="2">spin</dimension>
     <field>energy</field>
     <field>total</field>
     <field>integrated</field>
     <set>
      <set comment="spin 1">
       <r>   -18.6931     0.0000     0.0000 </r>
       <r>   -18.6217     0.0000     0.0000 </r>
       <r>   -18.5504     0.0000     0.0000 </r>
       <r>   -18.4791     0.0000     0.0000 </r>
       <r>   -18.4077     0.0000     0.0000 </r>
       <r>   -18.3364    -0.0000    -0.0000 </r>
       <r>   -18.2650    -0.0000    -0.0000 </r>
       <r>   -18.1937    -0.0000    -0.0000 </r>
       <r>   -18.1223    -0.0000    -0.0000 </r>
       <r>   -18.0510    -0.0000    -0.0000 </r>
       <r>   -17.9797    -0.0000    -0.0000 </r>
       <r>   -17.9083    -0.0000    -0.0000 </r>
       <r>   -17.8370    -0.0000    -0.0000 </r>
       <r>   -17.7656    -0.0000    -0.0000 </r>
       <r>   -17.6943    -0.0000    -0.0000 </r>
       <r>   -17.6230    -0.0000    -0.0000 </r>
       <r>   -17.5516    -0.0000    -0.0000 </r>
       <r>   -17.4803    -0.0000    -0.0000 </r>
       <r>   -17.4089    -0.0001    -0.0000 </r>
       <r>   -17.3376    -0.0006    -0.0001 </r>
       <r>   -17.2662    -0.0047    -0.0004 </r>
       <r>   -17.1949    -0.0257    -0.0022 </r>
       <r>   -17.1236    -0.1016    -0.0095 </r>
       <r>   -17.0522    -0.2763    -0.0292 </r>
       <r>   -16.9809    -0.4392    -0.0605 </r>
       <r>   -16.9095    -0.0405    -0.0634 </r>
       <r>   -16.8382     1.7709     0.0629 </r>
       <r>   -16.7668     5.0062     0.4201 </r>
       <r>   -16.6955     7.8370     0.9792 </r>
       <r>   -16.6242     7.9502     1.5464 </r>
       <r>   -16.5528     5.2445     1.9205 </r>
       <r>   -16.4815     1.9587     2.0603 </r>
       <r>   -16.4101     0.0306     2.0625 </r>
       <r>   -16.3388    -0.4392     2.0311 </r>
       <r>   -16.2675    -0.2912     2.0103 </r>
       <r>   -16.1961    -0.1103     2.0025 </r>
       <r>   -16.1248    -0.0286     2.0004 </r>
       <r>   -16.0534    -0.0054     2.0001 </r>
       <r>   -15.9821    -0.0007     2.0000 </r>
       <r>   -15.9107    -0.0001     2.0000 </r>
       <r>   -15.8394    -0.0000     2.0000 </r>
       <r>   -15.7681    -0.0000     2.0000 </r>
       <r>   -15.6967    -0.0000     2.0000 </r>
       <r>   -15.6254    -0.0000     2.0000 </r>
       <r>   -15.5540    -0.0000     2.0000 </r>
       <r>   -15.4827    -0.0000     2.0000 </r>
       <r>   -15.4113    -0.0000     2.0000 </r>
       <r>   -15.3400     0.0000     2.0000 </r>
       <r>   -15.2687     0.0000     2.0000 </r>
       <r>   -15.1973     0.0000     2.0000 </r>
       <r>   -15.1260     0.0000     2.0000 </r>
       <r>   -15.0546     0.0000     2.0000 </r>
       <r>   -14.9833     0.0000     2.0000 </r>
       <r>   -14.9120     0.0000     2.0000 </r>
       <r>   -14.8406     0.0000     2.0000 </r>
       <r>   -14.7693     0.0000     2.0000 </r>
       <r>   -14.6979     0.0000     2.0000 </r>
       <r>   -14.6266     0.0000     2.0000 </r>
       <r>   -14.5552     0.0000     2.0000 </r>
       <r>   -14.4839     0.0000     2.0000 </r>
       <r>   -14.4126     0.0000     2.0000 </r>
       <r>   -14.3412     0.0000     2.0000 </r>
       <r>   -14.2699     0.0000     2.0000 </r>
       <r>   -14.1985     0.0000     2.0000 </r>
       <r>   -14.1272     0.0000     2.0000 </r>
       <r>   -14.0558     0.0000     2.0000 </r>
       <r>   -13.9845     0.0000     2.0000 </r>
       <r>   -13.9132     0.0000     2.0000 </r>
       <r>   -13.8418     0.0000     2.0000 </r>
       <r>   -13.7705     0.0000     2.0000 </r>
       <r>   -13.6991     0.0000     2.0000 </r>
       <r>   -13.6278     0.0000     2.0000 </r>
       <r>   -13.5565     0.0000     2.0000 </r>
       <r>   -13.4851     0.0000     2.0000 </r>
       <r>   -13.4138     0.0000     2.0000 </r>
       <r>   -13.3424     0.0000     2.0000 </r>
       <r>   -13.2711     0.0000     2.0000 </r>
       <r>   -13.1997     0.0000     2.0000 </r>
       <r>   -13.1284     0.0000     2.0000 </r>
       <r>   -13.0571     0.0000     2.0000 </r>
       <r>   -12.9857     0.0000     2.0000 </r>
       <r>   -12.9144     0.0000     2.0000 </r>
       <r>   -12.8430     0.0000     2.0000 </r>
       <r>   -12.7717     0.0000     2.0000 </r>
       <r>   -12.7003     0.0000     2.0000 </r>
       <r>   -12.6290     0.0000     2.0000 </r>
       <r>   -12.5577     0.0000     2.0000 </r>
       <r>   -12.4863     0.0000     2.0000 </r>
       <r>   -12.4150     0.0000     2.0000 </r>
       <r>   -12.3436     0.0000     2.0000 </r>
       <r>   -12.2723     0.0000     2.0000 </r>
       <r>   -12.2010     0.0000     2.0000 </r>
       <r>   -12.1296     0.0000     2.0000 </r>
       <r>   -12.0583     0.0000     2.0000 </r>
       <r>   -11.9869     0.0000     2.0000 </r>
       <r>   -11.9156     0.0000     2.0000 </r>
       <r>   -11.8442     0.0000     2.0000 </r>
       <r>   -11.7729     0.0000     2.0000 </r>
       <r>   -11.7016     0.0000     2.0000 </r>
       <r>   -11.6302     0.0000     2.0000 </r>
       <r>   -11.5589     0.0000     2.0000 </r>
       <r>   -11.4875     0.0000     2.0000 </r>
       <r>   -11.4162     0.0000     2.0000 </r>
       <r>   -11.3448     0.0000     2.0000 </r>
       <r>   -11.2735     0.0000     2.0000 </r>
       <r>   -11.2022     0.0000     2.0000 </r>
       <r>   -11.1308     0.0000     2.0000 </r>
       <r>   -11.0595    -0.0000     2.0000 </r>
       <r>   -10.9881    -0.0000     2.0000 </r>
       <r>   -10.9168    -0.0000     2.0000 </r>
       <r>   -10.8455    -0.0000     2.0000 </r>
       <r>   -10.7741    -0.0000     2.0000 </r>
       <r>   -10.7028    -0.0000     2.0000 </r>
       <r>   -10.6314    -0.0000     2.0000 </r>
       <r>   -10.5601    -0.0000     2.0000 </r>
       <r>   -10.4887    -0.0000     2.0000 </r>
       <r>   -10.4174    -0.0000     2.0000 </r>
       <r>   -10.3461    -0.0000     2.0000 </r>
       <r>   -10.2747    -0.0000     2.0000 </r>
       <r>   -10.2034    -0.0000     2.0000 </r>
       <r>   -10.1320    -0.0001     2.0000 </r>
       <r>   -10.0607    -0.0008     1.9999 </r>
       <r>    -9.9894    -0.0059     1.9995 </r>
       <r>    -9.9180    -0.0311     1.9973 </r>
       <r>    -9.8467    -0.1178     1.9889 </r>
       <r>    -9.7753    -0.3035     1.9672 </r>
       <r>    -9.7040    -0.4382     1.9360 </r>
       <r>    -9.6326     0.0875     1.9422 </r>
       <r>    -9.5613     2.0809     2.0907 </r>
       <r>    -9.4900     5.2914     2.4682 </r>
       <r>    -9.4186     7.6258     3.0122 </r>
       <r>    -9.3473     7.0357     3.5141 </r>
       <r>    -9.2759     4.5149     3.8362 </r>
       <r>    -9.2046     3.7594     4.1045 </r>
       <r>    -9.1332     7.0929     4.6105 </r>
       <r>    -9.0619    12.4429     5.4982 </r>
       <r>    -8.9906    15.1172     6.5767 </r>
       <r>    -8.9192    12.6126     7.4765 </r>
       <r>    -8.8479     6.9488     7.9722 </r>
       <r>    -8.7765     1.9967     8.1147 </r>
       <r>    -8.7052    -0.3367     8.0906 </r>
       <r>    -8.6339    -0.6928     8.0412 </r>
       <r>    -8.5625    -0.3946     8.0131 </r>
       <r>    -8.4912    -0.1405     8.0030 </r>
       <r>    -8.4198    -0.0352     8.0005 </r>
       <r>    -8.3485    -0.0065     8.0001 </r>
       <r>    -8.2771    -0.0009     8.0000 </r>
       <r>    -8.2058    -0.0001     8.0000 </r>
       <r>    -8.1345    -0.0000     8.0000 </r>
       <r>    -8.0631    -0.0000     8.0000 </r>
       <r>    -7.9918    -0.0000     8.0000 </r>
       <r>    -7.9204    -0.0000     8.0000 </r>
       <r>    -7.8491    -0.0000     8.0000 </r>
       <r>    -7.7777    -0.0000     8.0000 </r>
       <r>    -7.7064    -0.0000     8.0000 </r>
       <r>    -7.6351     0.0000     8.0000 </r>
       <r>    -7.5637     0.0000     8.0000 </r>
       <r>    -7.4924     0.0000     8.0000 </r>
       <r>    -7.4210     0.0000     8.0000 </r>
       <r>    -7.3497     0.0000     8.0000 </r>
       <r>    -7.2784     0.0000     8.0000 </r>
       <r>    -7.2070     0.0000     8.0000 </r>
       <r>    -7.1357     0.0000     8.0000 </r>
       <r>    -7.0643     0.0000     8.0000 </r>
       <r>    -6.9930     0.0000     8.0000 </r>
       <r>    -6.9216     0.0000     8.0000 </r>
       <r>    -6.8503     0.0000     8.0000 </r>
       <r>    -6.7790     0.0000     8.0000 </r>
       <r>    -6.7076     0.0000     8.0000 </r>
       <r>    -6.6363     0.0000     8.0000 </r>
       <r>    -6.5649     0.0000     8.0000 </r>
       <r>    -6.4936     0.0000     8.0000 </r>
       <r>    -6.4222     0.0000     8.0000 </r>
       <r>    -6.3509     0.0000     8.0000 </r>
       <r>    -6.2796     0.0000     8.0000 </r>
       <r>    -6.2082     0.0000     8.0000 </r>
       <r>    -6.1369     0.0000     8.0000 </r>
       <r>    -6.0655     0.0000     8.0000 </r>
       <r>    -5.9942     0.0000     8.0000 </r>
       <r>    -5.9229     0.0000     8.0000 </r>
       <r>    -5.8515     0.0000     8.0000 </r>
       <r>    -5.7802     0.0000     8.0000 </r>
       <r>    -5.7088     0.0000     8.0000 </r>
       <r>    -5.6375     0.0000     8.0000 </r>
       <r>    -5.5661     0.0000     8.0000 </r>
       <r>    -5.4948     0.0000     8.0000 </r>
       <r>    -5.4235     0.0000     8.0000 </r>
       <r>    -5.3521     0.0000     8.0000 </r>
       <r>    -5.2808     0.0000     8.0000 </r>
       <r>    -5.2094     0.0000     8.0000 </r>
       <r>    -5.1381     0.0000     8.0000 </r>
       <r>    -5.0667     0.0000     8.0000 </r>
       <r>    -4.9954     0.0000     8.0000 </r>
       <r>    -4.9241     0.0000     8.0000 </r>
       <r>    -4.8527     0.0000     8.0000 </r>
       <r>    -4.7814     0.0000     8.0000 </r>
       <r>    -4.7100     0.0000     8.0000 </r>
       <r>    -4.6387     0.0000     8.0000 </r>
       <r>    -4.5674     0.0000     8.0000 </r>
       <r>    -4.4960     0.0000     8.0000 </r>
       <r>    -4.4247     0.0000     8.0000 </r>
       <r>    -4.3533     0.0000     8.0000 </r>
       <r>    -4.2820     0.0000     8.0000 </r>
       <r>    -4.2106     0.0000     8.0000 </r>
       <r>    -4.1393     0.0000     8.0000 </r>
       <r>    -4.0680     0.0000     8.0000 </r>
       <r>    -3.9966     0.0000     8.0000 </r>
       <r>    -3.9253     0.0000     8.0000 </r>
       <r>    -3.8539     0.0000     8.0000 </r>
       <r>    -3.7826     0.0000     8.0000 </r>
       <r>    -3.7112     0.0000     8.0000 </r>
       <r>    -3.6399     0.0000     8.0000 </r>
       <r>    -3.5686     0.0000     8.0000 </r>
       <r>    -3.4972     0.0000     8.0000 </r>
       <r>    -3.4259     0.0000     8.0000 </r>
       <r>    -3.3545     0.0000     8.0000 </r>
       <r>    -3.2832     0.0000     8.0000 </r>
       <r>    -3.2119     0.0000     8.0000 </r>
       <r>    -3.1405     0.0000     8.0000 </r>
       <r>    -3.0692     0.0000     8.0000 </r>
       <r>    -2.9978     0.0000     8.0000 </r>
       <r>    -2.9265     0.0000     8.0000 </r>
       <r>    -2.8551     0.0000     8.0000 </r>
       <r>    -2.7838     0.0000     8.0000 </r>
       <r>    -2.7125     0.0000     8.0000 </r>
       <r>    -2.6411     0.0000     8.0000 </r>
       <r>    -2.5698     0.0000     8.0000 </r>
       <r>    -2.4984     0.0000     8.0000 </r>
       <r>    -2.4271     0.0000     8.0000 </r>
       <r>    -2.3557     0.0000     8.0000 </r>
       <r>    -2.2844     0.0000     8.0000 </r>
       <r>    -2.2131     0.0000     8.0000 </r>
       <r>    -2.1417     0.0000     8.0000 </r>
       <r>    -2.0704     0.0000     8.0000 </r>
       <r>    -1.9990    -0.0000     8.0000 </r>
       <r>    -1.9277    -0.0000     8.0000 </r>
       <r>    -1.8564    -0.0000     8.0000 </r>
       <r>    -1.7850    -0.0000     8.0000 </r>
       <r>    -1.7137    -0.0000     8.0000 </r>
       <r>    -1.6423    -0.0000     8.0000 </r>
       <r>    -1.5710    -0.0000     8.0000 </r>
       <r>    -1.4996    -0.0000     8.0000 </r>
       <r>    -1.4283    -0.0000     8.0000 </r>
       <r>    -1.3570    -0.0000     8.0000 </r>
       <r>    -1.2856    -0.0000     8.0000 </r>
       <r>    -1.2143    -0.0000     8.0000 </r>
       <r>    -1.1429    -0.0000     8.0000 </r>
       <r>    -1.0716    -0.0000     8.0000 </r>
       <r>    -1.0003    -0.0003     8.0000 </r>
       <r>    -0.9289    -0.0025     7.9998 </r>
       <r>    -0.8576    -0.0151     7.9987 </r>
       <r>    -0.7862    -0.0665     7.9940 </r>
       <r>    -0.7149    -0.2069     7.9792 </r>
       <r>    -0.6435    -0.4078     7.9501 </r>
       <r>    -0.5722    -0.2910     7.9294 </r>
       <r>    -0.5009     0.9690     7.9985 </r>
       <r>    -0.4295     3.8338     8.2720 </r>
       <r>    -0.3582     7.0906     8.7779 </r>
       <r>    -0.2868     8.2823     9.3687 </r>
       <r>    -0.2155     6.3545     9.8221 </r>
       <r>    -0.1441     2.9772    10.0345 </r>
       <r>    -0.0728     0.4892    10.0694 </r>
       <r>    -0.0015    -0.4021    10.0407 </r>
       <r>     0.0699    -0.4101    10.0114 </r>
       <r>     0.1412    -0.3379     9.9873 </r>
       <r>     0.2126    -0.5129     9.9507 </r>
       <r>     0.2839    -0.7808     9.8950 </r>
       <r>     0.3552    -0.3506     9.8700 </r>
       <r>     0.4266     2.1585    10.0240 </r>
       <r>     0.4979     7.6671    10.5710 </r>
       <r>     0.5693    14.9848    11.6400 </r>
       <r>     0.6406    20.4654    13.1001 </r>
       <r>     0.7120    20.3909    14.5548 </r>
       <r>     0.7833    14.5275    15.5912 </r>
       <r>     0.8546     6.7218    16.0708 </r>
       <r>     0.9260     1.2196    16.1578 </r>
       <r>     0.9973    -0.8222    16.0991 </r>
       <r>     1.0687    -0.8354    16.0395 </r>
       <r>     1.1400    -0.3966    16.0112 </r>
       <r>     1.2114    -0.1244    16.0024 </r>
       <r>     1.2827    -0.0280    16.0004 </r>
       <r>     1.3540    -0.0046    16.0000 </r>
       <r>     1.4254    -0.0006    16.0000 </r>
       <r>     1.4967    -0.0001    16.0000 </r>
       <r>     1.5681    -0.0000    16.0000 </r>
       <r>     1.6394    -0.0000    16.0000 </r>
       <r>     1.7107    -0.0000    16.0000 </r>
       <r>     1.7821    -0.0000    16.0000 </r>
       <r>     1.8534    -0.0000    16.0000 </r>
       <r>     1.9248    -0.0000    16.0000 </r>
       <r>     1.9961    -0.0000    16.0000 </r>
       <r>     2.0675     0.0000    16.0000 </r>
       <r>     2.1388     0.0000    16.0000 </r>
       <r>     2.2101     0.0000    16.0000 </r>
       <r>     2.2815     0.0000    16.0000 </r>
       <r>     2.3528     0.0000    16.0000 </r>
       <r>     2.4242     0.0000    16.0000 </r>
       <r>     2.4955     0.0000    16.0000 </r>
       <r>     2.5669     0.0000    16.0000 </r>
       <r>     2.6382     0.0000    16.0000 </r>
       <r>     2.7095     0.0000    16.0000 </r>
      </set>
     </set>
    </array>
   </total>
  </dos>
 </calculation>
 <structure name="finalpos" >
  <crystal>
   <varray name="basis" >
    <v>       9.92918846       0.00000000       0.00000000 </v>
    <v>      -0.28704994      10.14925995       0.00000000 </v>
    <v>       0.07454173      -0.24938506       9.97132934 </v>
   </varray>
   <i name="volume">   1004.84989325 </i>
   <varray name="rec_basis" >
    <v>       0.10071317       0.00284845      -0.00068165 </v>
    <v>      -0.00000000       0.09852935       0.00246424 </v>
    <v>       0.00000000      -0.00000000       0.10028753 </v>
   </varray>
  </crystal>
  <varray name="positions" >
   <v>       0.54158411       0.40363871       0.36069573 </v>
   <v>       0.39485532       0.48124960       0.43130971 </v>
   <v>       0.55497880       0.56657482       0.44309318 </v>
   <v>       0.52692885       0.41878013       0.53963908 </v>
   <v>       0.50324215       0.46669048       0.44623255 </v>
  </varray>
  <varray name="velocities" >
   <v>       0.00481865       0.00149621      -0.00357648 </v>
   <v>      -0.00182559       0.00262931      -0.00037258 </v>
   <v>       0.00041801       0.00240229      -0.00005074 </v>
   <v>       0.00040106       0.00030446      -0.00007233 </v>
   <v>      -0.00031739      -0.00056883       0.00033903 </v>
  </varray>
 </structure>
</modeling>
