unknown system                          
           1
     9.929188    0.000000    0.000000
    -0.287050   10.149260    0.000000
     0.074542   -0.249385    9.971329
   H    C 
   4   1
Direct configuration=     1
   0.53822569  0.40675987  0.36048956
   0.39424367  0.47999014  0.43822853
   0.55187985  0.56511508  0.44268268
   0.52860952  0.41667610  0.53883543
   0.50369077  0.46683219  0.44577476
Direct configuration=     2
   0.54068205  0.40420770  0.35879399
   0.39487338  0.48099893  0.44250385
   0.55335130  0.56526357  0.44292764
   0.52689240  0.41931440  0.54069493
   0.50345428  0.46672867  0.44538477
Direct configuration=     3
   0.54304750  0.40267323  0.35854246
   0.39457207  0.48022913  0.44741529
   0.55437315  0.56474635  0.44124779
   0.52541888  0.42157702  0.54269019
   0.50332003  0.46677520  0.44497054
Direct configuration=     4
   0.54111737  0.40279700  0.36233982
   0.39571895  0.48017680  0.44865559
   0.55605232  0.56434947  0.44168844
   0.52447514  0.42368061  0.54244363
   0.50332401  0.46662716  0.44453496
Direct configuration=     5
   0.53902030  0.40320894  0.36640856
   0.39675467  0.48125888  0.44624545
   0.55732910  0.56224584  0.44256371
   0.52455248  0.42308898  0.54403033
   0.50329964  0.46672717  0.44419189
Direct configuration=     6
   0.53782913  0.39908189  0.36724567
   0.39727527  0.48143168  0.44171602
   0.55851648  0.56299234  0.44288464
   0.52445034  0.42139061  0.54137219
   0.50326512  0.46713564  0.44469389
Direct configuration=     7
   0.53577099  0.39552371  0.36623341
   0.39590647  0.47831038  0.43724046
   0.55888809  0.56412305  0.44331719
   0.52517058  0.41943192  0.54041762
   0.50345953  0.46776069  0.44519425
Direct configuration=     8
   0.53374207  0.39658842  0.36712991
   0.39744004  0.47607066  0.43391389
   0.55838816  0.56537389  0.44321065
   0.52623093  0.41796604  0.54165532
   0.50345411  0.46787642  0.44530239
Direct configuration=     9
   0.53339896  0.39956932  0.36723208
   0.39821549  0.47631998  0.43200041
   0.55534317  0.56329280  0.44344027
   0.52679380  0.41781266  0.54166976
   0.50362477  0.46779351  0.44543288
Direct configuration=    10
   0.53676545  0.40214250  0.36427221
   0.39668091  0.47862029  0.43168230
   0.55456079  0.56417253  0.44314392
   0.52652779  0.41847567  0.53971142
   0.50355954  0.46725932  0.44589351
