9.729232559999999808e+00 0.000000000000000000e+00 0.000000000000000000e+00 -1.637821899999999942e-01 1.004058908000000017e+01 0.000000000000000000e+00 -1.856867700000000010e-01 1.021675799999999940e-01 9.899699419999999250e+00
9.756834819999999908e+00 0.000000000000000000e+00 0.000000000000000000e+00 1.088480899999999946e-01 9.932256649999999354e+00 0.000000000000000000e+00 8.900389999999999344e-03 1.685827799999999876e-01 1.022210523999999943e+01
9.702526419999999874e+00 0.000000000000000000e+00 0.000000000000000000e+00 2.737881799999999921e-01 1.003766440999999965e+01 0.000000000000000000e+00 3.426447999999999994e-02 2.825264000000000109e-01 9.837370019999999826e+00
1.008728458999999944e+01 0.000000000000000000e+00 0.000000000000000000e+00 -1.064116100000000037e-01 1.003660801000000014e+01 0.000000000000000000e+00 -8.086875000000000313e-02 -3.014332999999999943e-02 9.876299140000000421e+00
1.014492809000000051e+01 0.000000000000000000e+00 0.000000000000000000e+00 -1.128434499999999979e-01 1.001119822000000070e+01 0.000000000000000000e+00 1.685112800000000133e-01 -2.553694300000000084e-01 9.854956169999999460e+00
9.909768789999999328e+00 0.000000000000000000e+00 0.000000000000000000e+00 -1.836435299999999993e-01 1.002220958000000017e+01 0.000000000000000000e+00 -2.189447099999999868e-01 -2.177278900000000073e-01 9.852475950000000537e+00
9.929188460000000660e+00 0.000000000000000000e+00 0.000000000000000000e+00 -2.870499400000000034e-01 1.014925994999999936e+01 0.000000000000000000e+00 7.454173000000000049e-02 -2.493850599999999917e-01 9.971329340000000485e+00
9.845175409999999516e+00 0.000000000000000000e+00 0.000000000000000000e+00 2.760367999999999850e-02 1.021545275999999980e+01 0.000000000000000000e+00 -1.436797499999999950e-01 -1.728592800000000040e-01 1.017975792000000013e+01
1.022070729000000000e+01 0.000000000000000000e+00 0.000000000000000000e+00 2.408317000000000097e-01 1.008793709000000050e+01 0.000000000000000000e+00 8.167837999999999488e-02 5.445828999999999948e-02 1.027497121999999941e+01
1.022070729000000000e+01 0.000000000000000000e+00 0.000000000000000000e+00 2.408317000000000097e-01 1.008793709000000050e+01 0.000000000000000000e+00 8.167837999999999488e-02 5.445828999999999948e-02 1.027497121999999941e+01
1.008728458999999944e+01 0.000000000000000000e+00 0.000000000000000000e+00 -1.064116100000000037e-01 1.003660801000000014e+01 0.000000000000000000e+00 -8.086875000000000313e-02 -3.014332999999999943e-02 9.876299140000000421e+00
9.729232559999999808e+00 0.000000000000000000e+00 0.000000000000000000e+00 -1.637821899999999942e-01 1.004058908000000017e+01 0.000000000000000000e+00 -1.856867700000000010e-01 1.021675799999999940e-01 9.899699419999999250e+00
1.004510254000000025e+01 0.000000000000000000e+00 0.000000000000000000e+00 -3.038311999999999957e-02 9.706870379999999798e+00 0.000000000000000000e+00 -2.948578299999999874e-01 2.900287500000000018e-01 1.027545864999999914e+01
9.756834819999999908e+00 0.000000000000000000e+00 0.000000000000000000e+00 1.088480899999999946e-01 9.932256649999999354e+00 0.000000000000000000e+00 8.900389999999999344e-03 1.685827799999999876e-01 1.022210523999999943e+01
9.774718209999999630e+00 0.000000000000000000e+00 0.000000000000000000e+00 -2.353627000000000080e-01 1.011096303000000063e+01 0.000000000000000000e+00 -2.135812300000000108e-01 -2.087898199999999871e-01 1.029382398000000087e+01
1.007603014000000030e+01 0.000000000000000000e+00 0.000000000000000000e+00 -2.272580000000000086e-02 9.789268240000000176e+00 0.000000000000000000e+00 2.161812899999999982e-01 -2.459628299999999934e-01 1.000578813999999994e+01
1.014492809000000051e+01 0.000000000000000000e+00 0.000000000000000000e+00 -1.128434499999999979e-01 1.001119822000000070e+01 0.000000000000000000e+00 1.685112800000000133e-01 -2.553694300000000084e-01 9.854956169999999460e+00
9.760901060000000129e+00 0.000000000000000000e+00 0.000000000000000000e+00 -6.857264000000000415e-02 9.707019239999999272e+00 0.000000000000000000e+00 1.169078300000000042e-01 3.067245000000000041e-02 9.942648090000000494e+00
1.023121120000000062e+01 0.000000000000000000e+00 0.000000000000000000e+00 2.024048200000000131e-01 1.022041283999999983e+01 0.000000000000000000e+00 2.239237299999999875e-01 -3.019507999999999914e-02 1.026643293999999962e+01
1.004510254000000025e+01 0.000000000000000000e+00 0.000000000000000000e+00 -3.038311999999999957e-02 9.706870379999999798e+00 0.000000000000000000e+00 -2.948578299999999874e-01 2.900287500000000018e-01 1.027545864999999914e+01
9.758885519999999758e+00 0.000000000000000000e+00 0.000000000000000000e+00 -1.473522000000000026e-02 1.004069263000000056e+01 0.000000000000000000e+00 -2.918249999999999837e-03 -5.088220999999999716e-02 9.843987549999999587e+00
1.009056282000000060e+01 0.000000000000000000e+00 0.000000000000000000e+00 -2.942338600000000137e-01 9.811631719999999390e+00 0.000000000000000000e+00 -1.613188000000000122e-02 1.681404599999999916e-01 9.752043309999999465e+00
1.004510254000000025e+01 0.000000000000000000e+00 0.000000000000000000e+00 -3.038311999999999957e-02 9.706870379999999798e+00 0.000000000000000000e+00 -2.948578299999999874e-01 2.900287500000000018e-01 1.027545864999999914e+01
1.022070729000000000e+01 0.000000000000000000e+00 0.000000000000000000e+00 2.408317000000000097e-01 1.008793709000000050e+01 0.000000000000000000e+00 8.167837999999999488e-02 5.445828999999999948e-02 1.027497121999999941e+01
1.022070729000000000e+01 0.000000000000000000e+00 0.000000000000000000e+00 2.408317000000000097e-01 1.008793709000000050e+01 0.000000000000000000e+00 8.167837999999999488e-02 5.445828999999999948e-02 1.027497121999999941e+01
9.735728659999999479e+00 0.000000000000000000e+00 0.000000000000000000e+00 -1.655674500000000049e-01 1.000546235000000017e+01 0.000000000000000000e+00 -2.466056600000000043e-01 2.850663700000000134e-01 1.002860740999999933e+01
1.023121120000000062e+01 0.000000000000000000e+00 0.000000000000000000e+00 2.024048200000000131e-01 1.022041283999999983e+01 0.000000000000000000e+00 2.239237299999999875e-01 -3.019507999999999914e-02 1.026643293999999962e+01
9.913971000000000089e+00 0.000000000000000000e+00 0.000000000000000000e+00 -1.598777100000000062e-01 9.782919689999999946e+00 0.000000000000000000e+00 8.614104000000000205e-02 -2.072355000000000030e-02 1.009296132000000057e+01
1.009056282000000060e+01 0.000000000000000000e+00 0.000000000000000000e+00 -2.942338600000000137e-01 9.811631719999999390e+00 0.000000000000000000e+00 -1.613188000000000122e-02 1.681404599999999916e-01 9.752043309999999465e+00
9.760901060000000129e+00 0.000000000000000000e+00 0.000000000000000000e+00 -6.857264000000000415e-02 9.707019239999999272e+00 0.000000000000000000e+00 1.169078300000000042e-01 3.067245000000000041e-02 9.942648090000000494e+00
1.004510254000000025e+01 0.000000000000000000e+00 0.000000000000000000e+00 -3.038311999999999957e-02 9.706870379999999798e+00 0.000000000000000000e+00 -2.948578299999999874e-01 2.900287500000000018e-01 1.027545864999999914e+01
1.014492809000000051e+01 0.000000000000000000e+00 0.000000000000000000e+00 -1.128434499999999979e-01 1.001119822000000070e+01 0.000000000000000000e+00 1.685112800000000133e-01 -2.553694300000000084e-01 9.854956169999999460e+00
9.735728659999999479e+00 0.000000000000000000e+00 0.000000000000000000e+00 -1.655674500000000049e-01 1.000546235000000017e+01 0.000000000000000000e+00 -2.466056600000000043e-01 2.850663700000000134e-01 1.002860740999999933e+01
9.845175409999999516e+00 0.000000000000000000e+00 0.000000000000000000e+00 2.760367999999999850e-02 1.021545275999999980e+01 0.000000000000000000e+00 -1.436797499999999950e-01 -1.728592800000000040e-01 1.017975792000000013e+01
1.028348047999999970e+01 0.000000000000000000e+00 0.000000000000000000e+00 -1.177830500000000002e-01 9.843710390000000032e+00 0.000000000000000000e+00 -5.434160000000000379e-03 2.810683600000000171e-01 1.006567573000000060e+01
9.929188460000000660e+00 0.000000000000000000e+00 0.000000000000000000e+00 -2.870499400000000034e-01 1.014925994999999936e+01 0.000000000000000000e+00 7.454173000000000049e-02 -2.493850599999999917e-01 9.971329340000000485e+00
9.909768789999999328e+00 0.000000000000000000e+00 0.000000000000000000e+00 -1.836435299999999993e-01 1.002220958000000017e+01 0.000000000000000000e+00 -2.189447099999999868e-01 -2.177278900000000073e-01 9.852475950000000537e+00
9.990581009999999651e+00 0.000000000000000000e+00 0.000000000000000000e+00 6.543511999999999940e-02 9.817721210000000198e+00 0.000000000000000000e+00 2.927362900000000101e-01 -1.262203500000000089e-01 9.849271740000000719e+00
1.009056282000000060e+01 0.000000000000000000e+00 0.000000000000000000e+00 -2.942338600000000137e-01 9.811631719999999390e+00 0.000000000000000000e+00 -1.613188000000000122e-02 1.681404599999999916e-01 9.752043309999999465e+00
9.760901060000000129e+00 0.000000000000000000e+00 0.000000000000000000e+00 -6.857264000000000415e-02 9.707019239999999272e+00 0.000000000000000000e+00 1.169078300000000042e-01 3.067245000000000041e-02 9.942648090000000494e+00
1.008470626000000081e+01 0.000000000000000000e+00 0.000000000000000000e+00 -1.804808400000000035e-01 1.025060659000000030e+01 0.000000000000000000e+00 6.613931000000000671e-02 -2.754846200000000134e-01 9.997552100000000053e+00
1.001648750000000021e+01 0.000000000000000000e+00 0.000000000000000000e+00 -3.529535999999999785e-02 9.923014809999999741e+00 0.000000000000000000e+00 6.433811999999999864e-02 1.491232999999999968e-02 1.023544017000000039e+01
1.004510254000000025e+01 0.000000000000000000e+00 0.000000000000000000e+00 -3.038311999999999957e-02 9.706870379999999798e+00 0.000000000000000000e+00 -2.948578299999999874e-01 2.900287500000000018e-01 1.027545864999999914e+01
1.001648750000000021e+01 0.000000000000000000e+00 0.000000000000000000e+00 -3.529535999999999785e-02 9.923014809999999741e+00 0.000000000000000000e+00 6.433811999999999864e-02 1.491232999999999968e-02 1.023544017000000039e+01
9.756834819999999908e+00 0.000000000000000000e+00 0.000000000000000000e+00 1.088480899999999946e-01 9.932256649999999354e+00 0.000000000000000000e+00 8.900389999999999344e-03 1.685827799999999876e-01 1.022210523999999943e+01
9.774718209999999630e+00 0.000000000000000000e+00 0.000000000000000000e+00 -2.353627000000000080e-01 1.011096303000000063e+01 0.000000000000000000e+00 -2.135812300000000108e-01 -2.087898199999999871e-01 1.029382398000000087e+01
1.029744235999999979e+01 0.000000000000000000e+00 0.000000000000000000e+00 -2.706535999999999942e-01 9.734199350000000805e+00 0.000000000000000000e+00 -4.623164999999999913e-02 8.226270000000000804e-03 1.026832354999999986e+01
9.929811300000000784e+00 0.000000000000000000e+00 0.000000000000000000e+00 -1.402696900000000024e-01 9.821978950000000097e+00 0.000000000000000000e+00 1.636039099999999913e-01 2.414937199999999951e-01 1.015714655000000022e+01
1.022070729000000000e+01 0.000000000000000000e+00 0.000000000000000000e+00 2.408317000000000097e-01 1.008793709000000050e+01 0.000000000000000000e+00 8.167837999999999488e-02 5.445828999999999948e-02 1.027497121999999941e+01
9.729232559999999808e+00 0.000000000000000000e+00 0.000000000000000000e+00 -1.637821899999999942e-01 1.004058908000000017e+01 0.000000000000000000e+00 -1.856867700000000010e-01 1.021675799999999940e-01 9.899699419999999250e+00
9.760901060000000129e+00 0.000000000000000000e+00 0.000000000000000000e+00 -6.857264000000000415e-02 9.707019239999999272e+00 0.000000000000000000e+00 1.169078300000000042e-01 3.067245000000000041e-02 9.942648090000000494e+00
9.779326550000000395e+00 0.000000000000000000e+00 0.000000000000000000e+00 -8.266850000000000587e-02 9.892742690000000394e+00 0.000000000000000000e+00 1.219920599999999994e-01 -1.431870399999999877e-01 1.019450394999999965e+01
9.913971000000000089e+00 0.000000000000000000e+00 0.000000000000000000e+00 -1.598777100000000062e-01 9.782919689999999946e+00 0.000000000000000000e+00 8.614104000000000205e-02 -2.072355000000000030e-02 1.009296132000000057e+01
9.929811300000000784e+00 0.000000000000000000e+00 0.000000000000000000e+00 -1.402696900000000024e-01 9.821978950000000097e+00 0.000000000000000000e+00 1.636039099999999913e-01 2.414937199999999951e-01 1.015714655000000022e+01
9.929188460000000660e+00 0.000000000000000000e+00 0.000000000000000000e+00 -2.870499400000000034e-01 1.014925994999999936e+01 0.000000000000000000e+00 7.454173000000000049e-02 -2.493850599999999917e-01 9.971329340000000485e+00
9.845175409999999516e+00 0.000000000000000000e+00 0.000000000000000000e+00 2.760367999999999850e-02 1.021545275999999980e+01 0.000000000000000000e+00 -1.436797499999999950e-01 -1.728592800000000040e-01 1.017975792000000013e+01
1.014492809000000051e+01 0.000000000000000000e+00 0.000000000000000000e+00 -1.128434499999999979e-01 1.001119822000000070e+01 0.000000000000000000e+00 1.685112800000000133e-01 -2.553694300000000084e-01 9.854956169999999460e+00
1.028348047999999970e+01 0.000000000000000000e+00 0.000000000000000000e+00 -1.177830500000000002e-01 9.843710390000000032e+00 0.000000000000000000e+00 -5.434160000000000379e-03 2.810683600000000171e-01 1.006567573000000060e+01
9.904453090000000515e+00 0.000000000000000000e+00 0.000000000000000000e+00 -4.075688999999999701e-02 9.966527310000000028e+00 0.000000000000000000e+00 -2.225865499999999941e-01 -2.524301199999999801e-01 9.971706720000000246e+00
1.014492809000000051e+01 0.000000000000000000e+00 0.000000000000000000e+00 -1.128434499999999979e-01 1.001119822000000070e+01 0.000000000000000000e+00 1.685112800000000133e-01 -2.553694300000000084e-01 9.854956169999999460e+00
9.760901060000000129e+00 0.000000000000000000e+00 0.000000000000000000e+00 -6.857264000000000415e-02 9.707019239999999272e+00 0.000000000000000000e+00 1.169078300000000042e-01 3.067245000000000041e-02 9.942648090000000494e+00
9.990581009999999651e+00 0.000000000000000000e+00 0.000000000000000000e+00 6.543511999999999940e-02 9.817721210000000198e+00 0.000000000000000000e+00 2.927362900000000101e-01 -1.262203500000000089e-01 9.849271740000000719e+00
1.007603014000000030e+01 0.000000000000000000e+00 0.000000000000000000e+00 -2.272580000000000086e-02 9.789268240000000176e+00 0.000000000000000000e+00 2.161812899999999982e-01 -2.459628299999999934e-01 1.000578813999999994e+01
1.008470626000000081e+01 0.000000000000000000e+00 0.000000000000000000e+00 -1.804808400000000035e-01 1.025060659000000030e+01 0.000000000000000000e+00 6.613931000000000671e-02 -2.754846200000000134e-01 9.997552100000000053e+00
1.008728458999999944e+01 0.000000000000000000e+00 0.000000000000000000e+00 -1.064116100000000037e-01 1.003660801000000014e+01 0.000000000000000000e+00 -8.086875000000000313e-02 -3.014332999999999943e-02 9.876299140000000421e+00
1.008728458999999944e+01 0.000000000000000000e+00 0.000000000000000000e+00 -1.064116100000000037e-01 1.003660801000000014e+01 0.000000000000000000e+00 -8.086875000000000313e-02 -3.014332999999999943e-02 9.876299140000000421e+00
9.929811300000000784e+00 0.000000000000000000e+00 0.000000000000000000e+00 -1.402696900000000024e-01 9.821978950000000097e+00 0.000000000000000000e+00 1.636039099999999913e-01 2.414937199999999951e-01 1.015714655000000022e+01
1.009056282000000060e+01 0.000000000000000000e+00 0.000000000000000000e+00 -2.942338600000000137e-01 9.811631719999999390e+00 0.000000000000000000e+00 -1.613188000000000122e-02 1.681404599999999916e-01 9.752043309999999465e+00
1.008728458999999944e+01 0.000000000000000000e+00 0.000000000000000000e+00 -1.064116100000000037e-01 1.003660801000000014e+01 0.000000000000000000e+00 -8.086875000000000313e-02 -3.014332999999999943e-02 9.876299140000000421e+00
1.029744235999999979e+01 0.000000000000000000e+00 0.000000000000000000e+00 -2.706535999999999942e-01 9.734199350000000805e+00 0.000000000000000000e+00 -4.623164999999999913e-02 8.226270000000000804e-03 1.026832354999999986e+01
9.905758199999999292e+00 0.000000000000000000e+00 0.000000000000000000e+00 1.865600199999999931e-01 1.009148775999999970e+01 0.000000000000000000e+00 -3.276050999999999963e-02 -6.924930999999999448e-02 1.014326074999999960e+01
1.008470626000000081e+01 0.000000000000000000e+00 0.000000000000000000e+00 -1.804808400000000035e-01 1.025060659000000030e+01 0.000000000000000000e+00 6.613931000000000671e-02 -2.754846200000000134e-01 9.997552100000000053e+00
1.022942184000000054e+01 0.000000000000000000e+00 0.000000000000000000e+00 2.194931499999999980e-01 1.018907940000000067e+01 0.000000000000000000e+00 -2.170826999999999896e-01 -1.641978299999999891e-01 1.025832617999999918e+01
9.729232559999999808e+00 0.000000000000000000e+00 0.000000000000000000e+00 -1.637821899999999942e-01 1.004058908000000017e+01 0.000000000000000000e+00 -1.856867700000000010e-01 1.021675799999999940e-01 9.899699419999999250e+00
9.702526419999999874e+00 0.000000000000000000e+00 0.000000000000000000e+00 2.737881799999999921e-01 1.003766440999999965e+01 0.000000000000000000e+00 3.426447999999999994e-02 2.825264000000000109e-01 9.837370019999999826e+00
9.905758199999999292e+00 0.000000000000000000e+00 0.000000000000000000e+00 1.865600199999999931e-01 1.009148775999999970e+01 0.000000000000000000e+00 -3.276050999999999963e-02 -6.924930999999999448e-02 1.014326074999999960e+01
1.007603014000000030e+01 0.000000000000000000e+00 0.000000000000000000e+00 -2.272580000000000086e-02 9.789268240000000176e+00 0.000000000000000000e+00 2.161812899999999982e-01 -2.459628299999999934e-01 1.000578813999999994e+01
9.729232559999999808e+00 0.000000000000000000e+00 0.000000000000000000e+00 -1.637821899999999942e-01 1.004058908000000017e+01 0.000000000000000000e+00 -1.856867700000000010e-01 1.021675799999999940e-01 9.899699419999999250e+00
1.023121120000000062e+01 0.000000000000000000e+00 0.000000000000000000e+00 2.024048200000000131e-01 1.022041283999999983e+01 0.000000000000000000e+00 2.239237299999999875e-01 -3.019507999999999914e-02 1.026643293999999962e+01
1.009056282000000060e+01 0.000000000000000000e+00 0.000000000000000000e+00 -2.942338600000000137e-01 9.811631719999999390e+00 0.000000000000000000e+00 -1.613188000000000122e-02 1.681404599999999916e-01 9.752043309999999465e+00
1.028348047999999970e+01 0.000000000000000000e+00 0.000000000000000000e+00 -1.177830500000000002e-01 9.843710390000000032e+00 0.000000000000000000e+00 -5.434160000000000379e-03 2.810683600000000171e-01 1.006567573000000060e+01
9.913971000000000089e+00 0.000000000000000000e+00 0.000000000000000000e+00 -1.598777100000000062e-01 9.782919689999999946e+00 0.000000000000000000e+00 8.614104000000000205e-02 -2.072355000000000030e-02 1.009296132000000057e+01
1.008470626000000081e+01 0.000000000000000000e+00 0.000000000000000000e+00 -1.804808400000000035e-01 1.025060659000000030e+01 0.000000000000000000e+00 6.613931000000000671e-02 -2.754846200000000134e-01 9.997552100000000053e+00
9.929188460000000660e+00 0.000000000000000000e+00 0.000000000000000000e+00 -2.870499400000000034e-01 1.014925994999999936e+01 0.000000000000000000e+00 7.454173000000000049e-02 -2.493850599999999917e-01 9.971329340000000485e+00
9.779326550000000395e+00 0.000000000000000000e+00 0.000000000000000000e+00 -8.266850000000000587e-02 9.892742690000000394e+00 0.000000000000000000e+00 1.219920599999999994e-01 -1.431870399999999877e-01 1.019450394999999965e+01
9.756834819999999908e+00 0.000000000000000000e+00 0.000000000000000000e+00 1.088480899999999946e-01 9.932256649999999354e+00 0.000000000000000000e+00 8.900389999999999344e-03 1.685827799999999876e-01 1.022210523999999943e+01
1.028348047999999970e+01 0.000000000000000000e+00 0.000000000000000000e+00 -1.177830500000000002e-01 9.843710390000000032e+00 0.000000000000000000e+00 -5.434160000000000379e-03 2.810683600000000171e-01 1.006567573000000060e+01
1.004510254000000025e+01 0.000000000000000000e+00 0.000000000000000000e+00 -3.038311999999999957e-02 9.706870379999999798e+00 0.000000000000000000e+00 -2.948578299999999874e-01 2.900287500000000018e-01 1.027545864999999914e+01
9.913971000000000089e+00 0.000000000000000000e+00 0.000000000000000000e+00 -1.598777100000000062e-01 9.782919689999999946e+00 0.000000000000000000e+00 8.614104000000000205e-02 -2.072355000000000030e-02 1.009296132000000057e+01
9.702526419999999874e+00 0.000000000000000000e+00 0.000000000000000000e+00 2.737881799999999921e-01 1.003766440999999965e+01 0.000000000000000000e+00 3.426447999999999994e-02 2.825264000000000109e-01 9.837370019999999826e+00
1.022070729000000000e+01 0.000000000000000000e+00 0.000000000000000000e+00 2.408317000000000097e-01 1.008793709000000050e+01 0.000000000000000000e+00 8.167837999999999488e-02 5.445828999999999948e-02 1.027497121999999941e+01
9.905758199999999292e+00 0.000000000000000000e+00 0.000000000000000000e+00 1.865600199999999931e-01 1.009148775999999970e+01 0.000000000000000000e+00 -3.276050999999999963e-02 -6.924930999999999448e-02 1.014326074999999960e+01
9.913971000000000089e+00 0.000000000000000000e+00 0.000000000000000000e+00 -1.598777100000000062e-01 9.782919689999999946e+00 0.000000000000000000e+00 8.614104000000000205e-02 -2.072355000000000030e-02 1.009296132000000057e+01
9.779326550000000395e+00 0.000000000000000000e+00 0.000000000000000000e+00 -8.266850000000000587e-02 9.892742690000000394e+00 0.000000000000000000e+00 1.219920599999999994e-01 -1.431870399999999877e-01 1.019450394999999965e+01
9.779326550000000395e+00 0.000000000000000000e+00 0.000000000000000000e+00 -8.266850000000000587e-02 9.892742690000000394e+00 0.000000000000000000e+00 1.219920599999999994e-01 -1.431870399999999877e-01 1.019450394999999965e+01
1.008728458999999944e+01 0.000000000000000000e+00 0.000000000000000000e+00 -1.064116100000000037e-01 1.003660801000000014e+01 0.000000000000000000e+00 -8.086875000000000313e-02 -3.014332999999999943e-02 9.876299140000000421e+00
9.735728659999999479e+00 0.000000000000000000e+00 0.000000000000000000e+00 -1.655674500000000049e-01 1.000546235000000017e+01 0.000000000000000000e+00 -2.466056600000000043e-01 2.850663700000000134e-01 1.002860740999999933e+01
9.702526419999999874e+00 0.000000000000000000e+00 0.000000000000000000e+00 2.737881799999999921e-01 1.003766440999999965e+01 0.000000000000000000e+00 3.426447999999999994e-02 2.825264000000000109e-01 9.837370019999999826e+00
1.029744235999999979e+01 0.000000000000000000e+00 0.000000000000000000e+00 -2.706535999999999942e-01 9.734199350000000805e+00 0.000000000000000000e+00 -4.623164999999999913e-02 8.226270000000000804e-03 1.026832354999999986e+01
9.774718209999999630e+00 0.000000000000000000e+00 0.000000000000000000e+00 -2.353627000000000080e-01 1.011096303000000063e+01 0.000000000000000000e+00 -2.135812300000000108e-01 -2.087898199999999871e-01 1.029382398000000087e+01
9.929811300000000784e+00 0.000000000000000000e+00 0.000000000000000000e+00 -1.402696900000000024e-01 9.821978950000000097e+00 0.000000000000000000e+00 1.636039099999999913e-01 2.414937199999999951e-01 1.015714655000000022e+01
9.779326550000000395e+00 0.000000000000000000e+00 0.000000000000000000e+00 -8.266850000000000587e-02 9.892742690000000394e+00 0.000000000000000000e+00 1.219920599999999994e-01 -1.431870399999999877e-01 1.019450394999999965e+01
1.022942184000000054e+01 0.000000000000000000e+00 0.000000000000000000e+00 2.194931499999999980e-01 1.018907940000000067e+01 0.000000000000000000e+00 -2.170826999999999896e-01 -1.641978299999999891e-01 1.025832617999999918e+01
9.702526419999999874e+00 0.000000000000000000e+00 0.000000000000000000e+00 2.737881799999999921e-01 1.003766440999999965e+01 0.000000000000000000e+00 3.426447999999999994e-02 2.825264000000000109e-01 9.837370019999999826e+00
9.990581009999999651e+00 0.000000000000000000e+00 0.000000000000000000e+00 6.543511999999999940e-02 9.817721210000000198e+00 0.000000000000000000e+00 2.927362900000000101e-01 -1.262203500000000089e-01 9.849271740000000719e+00
9.729232559999999808e+00 0.000000000000000000e+00 0.000000000000000000e+00 -1.637821899999999942e-01 1.004058908000000017e+01 0.000000000000000000e+00 -1.856867700000000010e-01 1.021675799999999940e-01 9.899699419999999250e+00
9.845175409999999516e+00 0.000000000000000000e+00 0.000000000000000000e+00 2.760367999999999850e-02 1.021545275999999980e+01 0.000000000000000000e+00 -1.436797499999999950e-01 -1.728592800000000040e-01 1.017975792000000013e+01
9.779326550000000395e+00 0.000000000000000000e+00 0.000000000000000000e+00 -8.266850000000000587e-02 9.892742690000000394e+00 0.000000000000000000e+00 1.219920599999999994e-01 -1.431870399999999877e-01 1.019450394999999965e+01
9.760901060000000129e+00 0.000000000000000000e+00 0.000000000000000000e+00 -6.857264000000000415e-02 9.707019239999999272e+00 0.000000000000000000e+00 1.169078300000000042e-01 3.067245000000000041e-02 9.942648090000000494e+00
9.735728659999999479e+00 0.000000000000000000e+00 0.000000000000000000e+00 -1.655674500000000049e-01 1.000546235000000017e+01 0.000000000000000000e+00 -2.466056600000000043e-01 2.850663700000000134e-01 1.002860740999999933e+01
9.913971000000000089e+00 0.000000000000000000e+00 0.000000000000000000e+00 -1.598777100000000062e-01 9.782919689999999946e+00 0.000000000000000000e+00 8.614104000000000205e-02 -2.072355000000000030e-02 1.009296132000000057e+01
9.929188460000000660e+00 0.000000000000000000e+00 0.000000000000000000e+00 -2.870499400000000034e-01 1.014925994999999936e+01 0.000000000000000000e+00 7.454173000000000049e-02 -2.493850599999999917e-01 9.971329340000000485e+00
9.758885519999999758e+00 0.000000000000000000e+00 0.000000000000000000e+00 -1.473522000000000026e-02 1.004069263000000056e+01 0.000000000000000000e+00 -2.918249999999999837e-03 -5.088220999999999716e-02 9.843987549999999587e+00
1.000000000000000000e+01 0.000000000000000000e+00 0.000000000000000000e+00 0.000000000000000000e+00 1.000000000000000000e+01 0.000000000000000000e+00 0.000000000000000000e+00 0.000000000000000000e+00 1.000000000000000000e+01
1.007603014000000030e+01 0.000000000000000000e+00 0.000000000000000000e+00 -2.272580000000000086e-02 9.789268240000000176e+00 0.000000000000000000e+00 2.161812899999999982e-01 -2.459628299999999934e-01 1.000578813999999994e+01
1.008470626000000081e+01 0.000000000000000000e+00 0.000000000000000000e+00 -1.804808400000000035e-01 1.025060659000000030e+01 0.000000000000000000e+00 6.613931000000000671e-02 -2.754846200000000134e-01 9.997552100000000053e+00
9.990581009999999651e+00 0.000000000000000000e+00 0.000000000000000000e+00 6.543511999999999940e-02 9.817721210000000198e+00 0.000000000000000000e+00 2.927362900000000101e-01 -1.262203500000000089e-01 9.849271740000000719e+00
9.990581009999999651e+00 0.000000000000000000e+00 0.000000000000000000e+00 6.543511999999999940e-02 9.817721210000000198e+00 0.000000000000000000e+00 2.927362900000000101e-01 -1.262203500000000089e-01 9.849271740000000719e+00
9.909768789999999328e+00 0.000000000000000000e+00 0.000000000000000000e+00 -1.836435299999999993e-01 1.002220958000000017e+01 0.000000000000000000e+00 -2.189447099999999868e-01 -2.177278900000000073e-01 9.852475950000000537e+00
9.905758199999999292e+00 0.000000000000000000e+00 0.000000000000000000e+00 1.865600199999999931e-01 1.009148775999999970e+01 0.000000000000000000e+00 -3.276050999999999963e-02 -6.924930999999999448e-02 1.014326074999999960e+01
1.023121120000000062e+01 0.000000000000000000e+00 0.000000000000000000e+00 2.024048200000000131e-01 1.022041283999999983e+01 0.000000000000000000e+00 2.239237299999999875e-01 -3.019507999999999914e-02 1.026643293999999962e+01
1.022942184000000054e+01 0.000000000000000000e+00 0.000000000000000000e+00 2.194931499999999980e-01 1.018907940000000067e+01 0.000000000000000000e+00 -2.170826999999999896e-01 -1.641978299999999891e-01 1.025832617999999918e+01
9.845175409999999516e+00 0.000000000000000000e+00 0.000000000000000000e+00 2.760367999999999850e-02 1.021545275999999980e+01 0.000000000000000000e+00 -1.436797499999999950e-01 -1.728592800000000040e-01 1.017975792000000013e+01
1.009056282000000060e+01 0.000000000000000000e+00 0.000000000000000000e+00 -2.942338600000000137e-01 9.811631719999999390e+00 0.000000000000000000e+00 -1.613188000000000122e-02 1.681404599999999916e-01 9.752043309999999465e+00
1.008728458999999944e+01 0.000000000000000000e+00 0.000000000000000000e+00 -1.064116100000000037e-01 1.003660801000000014e+01 0.000000000000000000e+00 -8.086875000000000313e-02 -3.014332999999999943e-02 9.876299140000000421e+00
1.028348047999999970e+01 0.000000000000000000e+00 0.000000000000000000e+00 -1.177830500000000002e-01 9.843710390000000032e+00 0.000000000000000000e+00 -5.434160000000000379e-03 2.810683600000000171e-01 1.006567573000000060e+01
9.758885519999999758e+00 0.000000000000000000e+00 0.000000000000000000e+00 -1.473522000000000026e-02 1.004069263000000056e+01 0.000000000000000000e+00 -2.918249999999999837e-03 -5.088220999999999716e-02 9.843987549999999587e+00
9.756834819999999908e+00 0.000000000000000000e+00 0.000000000000000000e+00 1.088480899999999946e-01 9.932256649999999354e+00 0.000000000000000000e+00 8.900389999999999344e-03 1.685827799999999876e-01 1.022210523999999943e+01
1.029744235999999979e+01 0.000000000000000000e+00 0.000000000000000000e+00 -2.706535999999999942e-01 9.734199350000000805e+00 0.000000000000000000e+00 -4.623164999999999913e-02 8.226270000000000804e-03 1.026832354999999986e+01
9.929188460000000660e+00 0.000000000000000000e+00 0.000000000000000000e+00 -2.870499400000000034e-01 1.014925994999999936e+01 0.000000000000000000e+00 7.454173000000000049e-02 -2.493850599999999917e-01 9.971329340000000485e+00
9.929811300000000784e+00 0.000000000000000000e+00 0.000000000000000000e+00 -1.402696900000000024e-01 9.821978950000000097e+00 0.000000000000000000e+00 1.636039099999999913e-01 2.414937199999999951e-01 1.015714655000000022e+01
1.000000000000000000e+01 0.000000000000000000e+00 0.000000000000000000e+00 0.000000000000000000e+00 1.000000000000000000e+01 0.000000000000000000e+00 0.000000000000000000e+00 0.000000000000000000e+00 1.000000000000000000e+01