-2.400998728999999798e+01
-2.390634762999999907e+01
-2.396212666999999996e+01
-2.397426258999999860e+01
-2.397212377999999688e+01
-2.393086454000000174e+01
-2.396484891000000061e+01
-2.398110475999999736e+01
-2.400620516000000038e+01
-2.400585511999999966e+01
-2.396115598999999818e+01
-2.402138335000000069e+01
-2.400214287000000013e+01
-2.397705234000000019e+01
-2.395044872999999797e+01
-2.402722133000000326e+01
-2.394693649999999963e+01
-2.396894487000000140e+01
-2.395034675999999862e+01
-2.404734363999999758e+01
-2.399951118999999977e+01
-2.397643522999999988e+01
-2.402849745999999698e+01
-2.399330625000000339e+01
-2.400925282999999766e+01
-2.398820650000000398e+01
-2.395828073000000202e+01
-2.401151592999999806e+01
-2.401793860000000080e+01
-2.404476389999999952e+01
-2.400033227000000124e+01
-2.390963413000000060e+01
-2.397920242000000002e+01
-2.399880046999999905e+01
-2.401970202000000398e+01
-2.401740746000000115e+01
-2.397487626000000205e+01
-2.398789297000000076e+01
-2.398607804000000243e+01
-2.397782909000000018e+01
-2.401385340000000213e+01
-2.398193592000000152e+01
-2.403783197999999999e+01
-2.396082844000000023e+01
-2.399928084999999811e+01
-2.395820711999999730e+01
-2.397204014999999799e+01
-2.399013615999999871e+01
-2.396278698000000063e+01
-2.402115973000000082e+01
-2.398606253000000166e+01
-2.400991927999999831e+01
-2.403262210999999837e+01
-2.394392726999999965e+01
-2.399503978999999987e+01
-2.396553984000000170e+01
-2.398160903000000133e+01
-2.399176563999999701e+01
-2.398458519000000067e+01
-2.388517015000000043e+01
-2.393570803999999796e+01
-2.395207234000000085e+01
-2.395964713000000046e+01
-2.385641635999999721e+01
-2.393208986999999865e+01
-2.393284640000000252e+01
-2.396384390000000053e+01
-2.393612007999999847e+01
-2.395215621000000183e+01
-2.396525969999999717e+01
-2.400423932999999721e+01
-2.397478552999999835e+01
-2.397919514999999890e+01
-2.396633759999999924e+01
-2.396972454999999869e+01
-2.400226271999999739e+01
-2.398660506000000225e+01
-2.395422148000000107e+01
-2.392249671000000077e+01
-2.401255996999999809e+01
-2.400602843000000064e+01
-2.398487685999999997e+01
-2.399208965000000049e+01
-2.396009881999999891e+01
-2.399200121999999880e+01
-2.396466619999999992e+01
-2.401456085999999956e+01
-2.393130589000000086e+01
-2.402372370000000146e+01
-2.403026545999999897e+01
-2.400125028000000071e+01
-2.400281406999999945e+01
-2.401493916000000084e+01
-2.400854541999999725e+01
-2.399514080999999877e+01
-2.399740068999999920e+01
-2.398892904000000215e+01
-2.400457009999999869e+01
-2.397940309999999897e+01
-2.402031189000000211e+01
-2.400434511999999998e+01
-2.400517389000000179e+01
-2.396788115000000019e+01
-2.404156101999999962e+01
-2.396876778999999758e+01
-2.395515277999999881e+01
-2.395394561999999894e+01
-2.401667177000000208e+01
-2.396631284000000051e+01
-2.400208836000000190e+01
-2.399577066999999886e+01
-2.396499932000000399e+01
-2.389846422000000103e+01
-2.399525066999999723e+01
-2.392005126000000104e+01
-2.400343411000000060e+01
-2.401683445999999833e+01
-2.398382691000000122e+01
-2.398484656000000115e+01
-2.399782330000000030e+01
-2.394657524999999865e+01
-2.395944562000000033e+01
-2.401982058999999836e+01
-2.405033300999999923e+01
-2.394449422000000283e+01
-2.399213733999999931e+01
-2.404525960000000140e+01
-2.402053297999999870e+01
-2.397105694000000042e+01
-2.396349200999999951e+01
-2.401233326999999917e+01
-2.400689712999999870e+01
-2.398801277000000098e+01
-2.392377746000000371e+01
-2.391518839000000085e+01
-2.394049024000000259e+01
-2.387933440999999846e+01
-2.393959200999999837e+01
-2.399528949000000111e+01
-2.397600195999999784e+01
-2.400555089000000208e+01
-2.397214869999999820e+01
-2.396845641000000171e+01
-2.400656854999999723e+01
-2.396025782999999620e+01
-2.397098934000000270e+01
-2.402557824000000153e+01
-2.398519044000000022e+01
-2.394527258000000103e+01
-2.395836532000000219e+01
-2.397087003000000038e+01
-2.398515057000000184e+01
-2.397709023000000172e+01
-2.389930758000000210e+01
-2.395372900999999999e+01
-2.391728437999999812e+01
-2.391712695999999738e+01
-2.399898482999999771e+01
-2.396664355000000057e+01
-2.398557638000000125e+01
-2.399712140000000105e+01
-2.399491131999999993e+01
-2.400114514999999926e+01
-2.399586719000000201e+01
-2.389446936000000221e+01
-2.400452743999999683e+01
-2.399990616999999915e+01
-2.398059974000000238e+01
-2.399910896000000093e+01
-2.403366226999999711e+01
-2.387966119000000020e+01
-2.393618802999999673e+01
-2.400127724000000029e+01
-2.397642088999999999e+01
-2.378192055999999965e+01
-2.391662998999999701e+01
-2.395250285999999917e+01
-2.397439075999999858e+01
-2.400737724999999756e+01
-2.394491802000000291e+01
-2.397258667999999915e+01
-2.398108802999999867e+01
-2.396942676000000105e+01
-2.397102542999999741e+01
-2.388834430999999725e+01
-2.398740544999999713e+01
-2.383547785999999746e+01
-2.392300877999999997e+01
-2.398528758999999866e+01
-2.396993963999999977e+01
-2.400016572999999909e+01
-2.398004971999999668e+01
-2.397077905999999814e+01
-2.398501700999999997e+01
-2.390031609999999773e+01
-2.398306846000000192e+01
-2.400128469000000209e+01
-2.401257950000000108e+01
-2.403683236999999906e+01
-2.404997166999999791e+01
-2.401834408999999937e+01
-2.400185257000000050e+01
-2.394295401000000112e+01
-2.404042344000000142e+01
-2.394761289999999931e+01
-2.401419776000000184e+01
-2.400106049000000041e+01
-2.401210856000000149e+01
-2.398462482999999779e+01
-2.399897792000000152e+01
-2.391795057999999941e+01
-2.398630646000000155e+01
-2.391358744000000058e+01
-2.400610650000000135e+01
-2.396803425999999959e+01
-2.395684946999999809e+01
-2.405571676000000281e+01
-2.398273817999999835e+01
-2.397312004999999857e+01
-2.397204089999999610e+01
-2.390453924999999913e+01
-2.398019955000000181e+01
-2.398219088999999826e+01
-2.389349994999999893e+01
-2.396174616999999785e+01
-2.395458315999999854e+01
-2.399484056000000010e+01
-2.404607773000000037e+01
-2.400170054000000164e+01
-2.400104259999999812e+01
-2.399971608999999972e+01
-2.392501478999999875e+01
-2.392755171000000303e+01
-2.395176435999999853e+01
-2.398659699999999972e+01
-2.397037060000000253e+01
-2.395376423000000088e+01
-2.393841885000000147e+01
-2.393455950999999970e+01
-2.397712260000000128e+01
-2.399311518999999748e+01
-2.398899207999999916e+01
-2.397360793000000001e+01
-2.393245299000000159e+01
-2.402066983000000278e+01
-2.401123534999999976e+01
-2.398865523999999994e+01
-2.395645542000000106e+01
-2.401777404000000260e+01
-2.398786213999999717e+01
-2.398822689999999724e+01
-2.401777899999999732e+01
-2.397793658999999877e+01
-2.401388096999999888e+01
-2.397879190999999821e+01
-2.399105197000000089e+01
-2.396167184999999833e+01
-2.400539365999999930e+01
-2.395613528999999886e+01
-2.395503088999999974e+01
-2.393206757000000096e+01
-2.396194272999999697e+01
-2.394107432000000202e+01
-2.398982432000000031e+01
-2.401607594000000034e+01
-2.397717998000000250e+01
-2.399641980000000174e+01
-2.400261874999999989e+01
-2.398667079999999885e+01
-2.400104965999999962e+01
-2.400413044000000085e+01
-2.400497263000000103e+01
-2.385212582999999853e+01
-2.396976475000000306e+01
-2.397467998000000122e+01
-2.400271238000000196e+01
-2.401832956999999880e+01
-2.401441016000000062e+01
-2.391503093000000035e+01
-2.397683282999999932e+01
-2.400969381999999896e+01
-2.396611592999999729e+01
-2.399986144000000010e+01
-2.398058590000000123e+01
-2.398592217000000204e+01
-2.398417677999999853e+01
-2.396056440000000265e+01
-2.395157670000000039e+01
-2.400580925999999948e+01
-2.399127067999999952e+01
-2.399565581000000236e+01
-2.397032507000000123e+01
-2.395936321000000291e+01
-2.399143854000000076e+01
-2.397039458000000067e+01
-2.402513417999999845e+01
-2.398953939000000091e+01
-2.398467923000000113e+01
-2.398624462000000079e+01
-2.397652331999999831e+01
