5.905799999999999939e-01 -3.120220000000000216e-01 -8.635500000000000120e-02 3.491150000000000087e-01 6.610139999999999905e-01 -7.396700000000000497e-02 -3.490119999999999889e-01 -4.990519999999999956e-01 -2.240099999999999869e-01 5.679650000000000531e-01 4.421010000000000217e-01 -8.630799999999999583e-01 1.106619999999999965e-01 1.014181999999999917e+00 4.966090000000000226e-01
-3.178759999999999919e-01 2.003553000000000139e+00 9.786399999999999544e-01 -1.076616000000000017e+00 -2.981599999999999806e-01 5.587830000000000297e-01 6.208709999999999507e-01 -1.724779999999999924e-01 -4.556169999999999942e-01 -3.272979999999999778e-01 -8.172970000000000512e-01 1.858467000000000091e+00 4.902850000000000263e-01 1.253140000000000087e-01 -2.530250000000000110e+00
9.406200000000000672e-02 3.898449999999999971e-01 5.771789999999999976e-01 -1.142176000000000080e+00 -1.072500000000000016e-02 -9.706299999999999650e-02 4.641770000000000063e-01 4.988630000000000009e-01 3.205439999999999956e-01 -4.491799999999999959e-02 -3.078810000000000158e-01 1.176619999999999999e+00 -4.810900000000000176e-01 4.463670000000000138e-01 3.197110000000000229e-01
2.443829999999999891e-01 9.550300000000000455e-02 4.232949999999999768e-01 4.991860000000000186e-01 3.272990000000000066e-01 1.786099999999999910e-01 3.711650000000000227e-01 7.763660000000000005e-01 -2.177209999999999979e-01 1.611950000000000049e-01 -8.195019999999999527e-01 8.714739999999999709e-01 -5.702970000000000539e-01 4.570790000000000131e-01 -1.451870000000000105e-01
2.757350000000000079e-01 -7.962909999999999711e-01 -1.611170000000000102e-01 7.131020000000000136e-01 1.121140000000000053e-01 9.298700000000000021e-02 4.508110000000000173e-01 8.880780000000000340e-01 2.296219999999999928e-01 2.282999999999999873e-03 2.109999999999999896e-03 8.067399999999999571e-02 -7.003220000000000001e-01 3.371600000000000152e-01 -2.206950000000000023e-01
-1.715240000000000098e-01 -1.155840000000000062e-01 -6.034099999999999880e-02 -2.326550000000000007e-01 2.560089999999999866e-01 4.575690000000000035e-01 -1.053420999999999941e+00 -1.024644000000000110e+00 -6.005160000000000498e-01 -1.317750000000000032e-01 -3.755490000000000217e-01 3.489639999999999964e-01 6.999210000000000154e-01 1.314027999999999974e+00 -9.883999999999999730e-02
-6.773600000000000454e-02 1.814250000000000029e-01 1.193039999999999934e-01 -4.367499999999999855e-02 4.321200000000000041e-01 -9.288689999999999447e-01 -8.613899999999999335e-02 -3.555530000000000079e-01 1.361700000000000133e-01 2.749780000000000002e-01 -6.087519999999999598e-01 4.976220000000000088e-01 -2.029340000000000033e-01 2.048732000000000220e+00 4.766920000000000046e-01
-6.502170000000000449e-01 4.779550000000000187e-01 8.363159999999999483e-01 -3.929869999999999752e-01 1.935419999999999918e-01 -6.229900000000000021e-02 1.271519999999999873e-01 6.448300000000000143e-01 1.357099999999999973e-02 5.954589999999999606e-01 -1.381410000000000138e-01 1.228628000000000053e+00 6.666870000000000296e-01 -5.294550000000000090e-01 -1.420242000000000004e+00
-1.954589999999999939e-01 1.579990000000000006e-01 4.695599999999999774e-02 -8.481500000000000150e-02 1.363370000000000137e-01 2.987560000000000215e-01 9.605400000000000049e-02 -1.253529999999999922e-01 4.231759999999999966e-01 -4.686870000000000203e-01 2.153609999999999969e-01 -1.084732999999999947e+00 5.173900000000000166e-01 6.011549999999999949e-01 3.952669999999999795e-01
3.778999999999999807e-03 -3.998999999999999777e-01 -6.242199999999999971e-01 6.700610000000000177e-01 1.472259999999999958e-01 -5.304579999999999851e-01 -4.451060000000000016e-01 -5.790689999999999449e-01 -2.662939999999999752e-01 9.760199999999999432e-02 6.943470000000000475e-01 -1.849600000000000133e-01 -8.996729999999999450e-01 1.470574000000000048e+00 5.768510000000000026e-01
-6.070809999999999818e-01 3.086059999999999914e-01 1.341799999999999937e-01 -1.941630000000000023e-01 -5.313400000000000067e-02 -4.737600000000000144e-01 2.663170000000000259e-01 6.037979999999999459e-01 4.907850000000000268e-01 -1.082650000000000001e-01 7.592510000000000092e-01 6.718380000000000463e-01 3.201069999999999749e-01 -1.719229999999999925e-01 8.312060000000000004e-01
-1.636710000000000109e-01 1.189299999999999941e-01 4.849490000000000189e-01 6.512590000000000323e-01 -8.753929999999999767e-01 -3.163540000000000241e-01 4.676000000000000156e-01 6.196209999999999773e-01 -1.198779999999999984e-01 3.271870000000000056e-01 -3.740600000000000175e-02 2.647700000000000053e-01 -1.069722999999999979e+00 4.029240000000000044e-01 -1.844899999999999873e-01
-4.721460000000000101e-01 9.572070000000000300e-01 4.773000000000000333e-03 -1.834200000000000066e-02 3.297499999999999737e-02 -2.115699999999999872e-02 4.686069999999999958e-01 1.290303999999999895e+00 1.984100000000000100e-02 1.269400000000000042e-02 -2.100249999999999895e-01 9.207799999999999319e-02 -9.267630000000000035e-01 -1.127660000000000107e+00 -4.445270000000000055e-01
-1.226359999999999950e-01 4.199749999999999872e-01 -1.478329999999999922e-01 -1.866740000000000066e+00 -1.354470000000000118e-01 -4.012129999999999863e-01 4.316749999999999754e-01 -3.420920000000000072e-01 -2.058419999999999972e-01 -8.453770000000000451e-01 4.702970000000000206e-01 3.711729999999999752e-01 4.665889999999999760e-01 -1.192239999999999966e-01 2.966799999999999993e-01
3.528519999999999990e-01 3.753630000000000022e-01 -2.596709999999999852e-01 3.459590000000000165e-01 6.607389999999999652e-01 6.709239999999999648e-01 -1.444380000000000108e-01 2.897239999999999815e-01 -2.750900000000000012e-01 2.285079999999999889e-01 -8.409309999999999841e-01 1.722048000000000023e+00 5.993699999999999722e-02 1.245225000000000026e+00 -2.781394999999999840e+00
2.729420000000000179e-01 2.382970000000000088e-01 3.695629999999999749e-01 -2.951759999999999939e-01 5.368399999999999839e-01 -3.281589999999999785e-01 -3.439989999999999992e-01 -2.959530000000000216e-01 -2.163760000000000128e-01 -3.226060000000000039e-01 -2.495899999999999855e-02 -2.590799999999999770e-01 1.671799999999999953e-01 1.540961000000000025e+00 8.244559999999999667e-01
-7.986799999999999455e-02 -9.214579999999999993e-01 -3.540499999999999758e-01 -8.481229999999999603e-01 2.787510000000000265e-01 -1.610959999999999892e-01 -5.211099999999999760e-02 6.796510000000000051e-01 -6.072060000000000235e-01 -7.370280000000000165e-01 -4.761810000000000209e-01 5.471869999999999790e-01 6.952540000000000386e-01 4.960430000000000117e-01 -2.216619999999999979e-01
8.129880000000000440e-01 -1.534037000000000095e+00 -1.478502999999999901e+00 9.765059999999999851e-01 -6.617189999999999461e-01 -4.438170000000000170e-01 -7.948700000000000210e-02 1.290156999999999998e+00 3.467140000000000222e-01 7.291200000000000458e-02 1.411280000000000034e-01 -5.539420000000000455e-01 -1.221306999999999920e+00 8.549719999999999542e-01 1.678930999999999951e+00
-2.712559999999999971e-01 -3.025140000000000051e-01 2.022889999999999966e-01 1.299852000000000007e+00 -1.296950000000000047e-01 5.466100000000000125e-02 2.360500000000000098e-02 5.292949999999999600e-01 -7.530299999999999494e-02 -2.915179999999999993e-01 3.179179999999999784e-01 -1.275244000000000044e+00 -2.832927000000000195e+00 3.578459999999999974e-01 5.609739999999999727e-01
3.336609999999999854e-01 3.986410000000000231e-01 8.015200000000000102e-02 -3.053580000000000183e-01 -5.561589999999999590e-01 -2.670669999999999988e-01 2.256460000000000132e-01 -2.476499999999999882e-02 3.432830000000000048e-01 -3.335819999999999896e-01 1.102900000000000061e-02 -6.244819999999999816e-01 -5.009369999999999656e-01 1.266815999999999942e+00 -8.902000000000000191e-02
3.744270000000000098e-01 -9.186339999999999506e-01 -9.596000000000000363e-02 -9.433570000000000011e-01 3.204020000000000201e-01 1.645179999999999976e-01 2.877750000000000030e-01 3.502449999999999730e-01 1.501540000000000097e-01 -4.444719999999999782e-01 -5.293759999999999577e-01 7.598500000000000254e-01 -2.170650000000000079e-01 7.716669999999999918e-01 1.251680000000000015e-01
-1.218191000000000024e+00 8.039969999999999617e-01 1.857779000000000069e+00 9.784300000000000219e-01 1.045500000000000040e-01 -8.691000000000000114e-02 3.228500000000000120e-02 -4.135110000000000174e-01 3.235359999999999903e-01 -1.177010000000000001e-01 8.491300000000000237e-02 -8.471549999999999914e-01 5.494250000000000522e-01 -5.768780000000000019e-01 3.459940000000000238e-01
2.485650000000000082e-01 -6.280599999999999516e-01 -3.872539999999999871e-01 -3.620450000000000057e-01 -2.964100000000000068e-02 2.137739999999999918e-01 -1.583080000000000043e-01 -2.041449999999999931e-01 5.962210000000000010e-01 3.488040000000000029e-01 -2.148239999999999872e-01 2.021979999999999889e-01 7.907030000000000447e-01 2.433929000000000009e+00 -1.613196000000000074e+00
-3.418610000000000260e-01 5.093800000000000550e-01 6.044699999999999518e-01 -4.966709999999999736e-01 3.864299999999999957e-01 1.012860000000000010e-01 5.849579999999999780e-01 6.972819999999999574e-01 -1.049289999999999945e-01 -2.266239999999999921e-01 1.182560000000000000e-01 -5.014790000000000081e-01 -4.557900000000000146e-02 2.110799999999999899e-01 -1.141129999999999978e+00
2.440740000000000132e-01 -3.845689999999999942e-01 -2.149610000000000132e-01 -2.479149999999999965e-01 1.101810000000000012e-01 3.621400000000000313e-02 -4.888699999999999990e-02 -7.367770000000000152e-01 -4.172609999999999930e-01 -1.149990000000000040e-01 1.279949999999999977e-01 -4.742359999999999909e-01 -1.674160000000000093e-01 1.995867999999999975e+00 9.062699999999999922e-02
2.436860000000000137e-01 -2.111300000000000121e-01 -1.173708999999999891e+00 9.804300000000000515e-02 -8.854199999999999571e-02 -1.871770000000000100e-01 1.617020000000000124e-01 6.281480000000000397e-01 2.080140000000000045e-01 4.233009999999999828e-01 -5.525560000000000471e-01 1.992639999999999967e-01 -7.108640000000000514e-01 1.251420999999999895e+00 1.347172000000000036e+00
3.992899999999999922e-02 6.184420000000000472e-01 -3.546949999999999825e-01 -1.007759000000000071e+00 -7.592079999999999940e-01 -6.103260000000000352e-01 5.818590000000000151e-01 7.367920000000000025e-01 -1.778280000000000138e-01 -3.944460000000000188e-01 1.247100000000000014e-01 4.452209999999999779e-01 6.468129999999999713e-01 7.777429999999999621e-01 2.117110000000000103e-01
-6.157200000000000450e-01 -4.202370000000000272e-01 -5.728239999999999998e-01 4.825439999999999729e-01 -1.613920000000000077e-01 1.480509999999999882e-01 1.984999999999999959e-02 3.547460000000000058e-01 1.987089999999999967e-01 -2.323010000000000075e-01 8.342450000000000143e-01 -8.375719999999999832e-01 -4.957599999999999785e-01 9.335219999999999629e-01 9.083290000000000530e-01
8.303099999999999370e-02 -3.206990000000000118e-01 -1.922139999999999960e-01 -1.090902000000000038e+00 8.321260000000000323e-01 4.352369999999999850e-01 4.804200000000000137e-02 -6.902500000000000302e-02 2.258870000000000045e-01 -6.403990000000000515e-01 6.331100000000000616e-02 -1.102149000000000045e+00 7.709000000000000297e-01 -4.845619999999999927e-01 9.638390000000000013e-01
3.936270000000000047e-01 3.725109999999999810e-01 -2.923470000000000235e-01 3.868360000000000132e-01 -3.902599999999999819e-02 -9.403200000000000447e-02 -5.160740000000000327e-01 -6.767099999999999504e-02 -1.699289999999999967e-01 -6.741749999999999687e-01 6.006000000000000227e-02 -1.094932999999999934e+00 3.576200000000000212e-02 8.957239999999999647e-01 6.405530000000000390e-01
7.156379999999999963e-01 -4.197370000000000267e-01 -1.009724000000000066e+00 -8.120600000000000041e-02 -3.339860000000000051e-01 2.992799999999999974e-02 -4.545069999999999943e-01 -1.755195000000000061e+00 1.177620000000000056e-01 -4.172139999999999738e-01 -1.518210000000000115e-01 -1.611559999999999937e-01 7.899140000000000050e-01 3.266623000000000054e+00 -3.052289999999999726e-01
1.464330000000000076e-01 -5.613559999999999661e-01 -2.125920999999999950e+00 1.078287999999999913e+00 5.067779999999999507e-01 2.492040000000000088e-01 1.061870000000000036e-01 2.697100000000000053e-01 4.303400000000000003e-01 3.654899999999999816e-01 1.900350000000000095e-01 4.729579999999999895e-01 -2.385463000000000111e+00 1.887939999999999896e-01 5.777959999999999763e-01
6.734390000000000098e-01 1.347740000000000049e-01 4.266739999999999977e-01 8.639489999999999670e-01 -4.139610000000000234e-01 -5.025099999999999706e-02 1.273700000000000006e-02 8.006739999999999968e-01 3.302220000000000155e-01 -7.366279999999999495e-01 -5.507999999999999702e-02 -6.082480000000000109e-01 -8.886870000000000047e-01 1.338168999999999942e+00 8.839660000000000295e-01
-1.278829999999999967e-01 9.704559999999999853e-01 2.292500000000000093e-01 4.941670000000000229e-01 -7.070200000000000096e-02 4.910000000000000302e-03 -3.892090000000000272e-01 -5.241419999999999968e-01 -2.155690000000000106e-01 -7.120400000000000340e-02 6.021630000000000038e-01 -7.418559999999999599e-01 4.356740000000000057e-01 1.111755999999999966e+00 9.656460000000000043e-01
-9.218200000000000005e-02 3.779339999999999922e-01 -6.140139999999999487e-01 -2.769517000000000007e+00 -5.254199999999999843e-02 -8.805599999999999539e-02 2.113019999999999898e-01 8.274679999999999813e-01 -7.925300000000000400e-02 2.679900000000000060e-01 5.786580000000000057e-01 -2.151079999999999937e-01 1.668322000000000083e+00 5.819099999999999967e-02 -3.183799999999999825e-02
-5.698299999999999893e-02 2.698999999999999733e-01 3.520220000000000016e-01 -2.626669999999999838e-01 -4.522050000000000236e-01 1.649420000000000053e-01 -1.479630000000000112e-01 -1.436840000000000062e-01 -5.173720000000000541e-01 2.096800000000000053e-02 -7.055000000000000160e-02 2.529500000000000151e-02 -1.674869999999999970e-01 7.103909999999999947e-01 -3.015260000000000162e-01
-3.245319999999999871e-01 -6.371899999999999786e-02 1.479109999999999869e-01 -4.741100000000000175e-02 -1.347119999999999984e-01 -1.117930000000000035e-01 -2.946289999999999742e-01 -1.221784999999999899e+00 1.037736999999999910e+00 1.923300000000000010e-02 8.725319999999999743e-01 -1.308410999999999991e+00 4.814579999999999971e-01 8.699320000000000386e-01 4.895889999999999964e-01
1.077299999999999959e-02 -6.287000000000000366e-01 -5.628689999999999527e-01 -5.798980000000000246e-01 2.247510000000000063e-01 1.284260000000000124e-01 3.499780000000000113e-01 3.990009999999999946e-01 2.190290000000000015e-01 -1.360260000000000080e-01 9.768400000000000694e-02 1.772839999999999971e-01 -2.444089999999999874e-01 1.183321999999999985e+00 1.035360000000000030e-01
-6.838899999999999979e-01 -3.511199999999999877e-01 2.230729999999999935e-01 -1.691860000000000031e-01 4.878179999999999739e-01 1.017900000000000055e-02 3.018950000000000244e-01 9.949540000000000051e-01 3.057940000000000103e-01 5.541399999999999798e-02 -6.780209999999999848e-01 6.308730000000000171e-01 -1.156630999999999965e+00 3.497790000000000066e-01 1.178280000000000022e-01
1.691149999999999876e-01 1.750710000000000044e-01 -5.970940000000000136e-01 -2.100680000000000047e-01 -5.075039999999999552e-01 -1.800090000000000023e-01 1.074430999999999914e+00 1.338430999999999926e+00 -2.449399999999999841e-02 -3.268559999999999799e-01 -5.070249999999999480e-01 6.927499999999999769e-01 -6.129200000000000204e-01 -8.654900000000000093e-02 -5.827579999999999982e-01
-8.252800000000000413e-02 -1.544904999999999973e+00 -1.850702000000000069e+00 -1.092000000000000089e-03 -1.382980000000000043e-01 -4.270079999999999987e-01 -7.339700000000000391e-02 2.259639999999999982e-01 3.293499999999999761e-01 2.031570000000000042e-01 -1.061539999999999984e-01 -3.414220000000000033e-01 -2.651955000000000062e+00 2.704889999999999795e-01 8.152129999999999654e-01
2.779769999999999741e-01 -5.493489999999999762e-01 -1.221586000000000061e+00 -1.502469999999999917e-01 -4.674899999999999889e-02 -6.299709999999999477e-01 -1.822580000000000033e-01 -1.764149999999999885e-01 -2.524989999999999735e-01 4.815880000000000161e-01 6.259839999999999849e-01 2.146049999999999902e-01 -9.456179999999999586e-01 1.855833000000000066e+00 7.649280000000000523e-01
5.094670000000000032e-01 7.034259999999999957e-01 -1.287840000000000096e-01 -2.235910000000000120e-01 5.117890000000000494e-01 5.565409999999999524e-01 -4.913969999999999727e-01 -4.841500000000000248e-01 -6.452200000000000157e-01 -1.035849999999999965e-01 6.057400000000000284e-02 6.983620000000000383e-01 2.726190000000000002e-01 7.719190000000000218e-01 5.253820000000000157e-01
-5.377900000000000041e-02 7.018599999999999839e-02 3.476139999999999786e-01 -8.652980000000000116e-01 -3.369219999999999993e-01 -1.546889999999999932e-01 -1.868509999999999893e-01 -4.697029999999999816e-01 -2.084519999999999984e-01 -4.873790000000000067e-01 -7.515889999999999516e-01 1.010774000000000061e+00 8.472420000000000506e-01 2.176533000000000051e+00 -8.959329999999999794e-01
-3.507319999999999882e-01 3.113279999999999936e-01 6.333389999999999853e-01 9.256649999999999601e-01 -4.275000000000000154e-03 -7.770749999999999602e-01 -8.985300000000000231e-02 -4.729900000000000215e-01 6.460100000000000564e-02 8.894199999999999884e-01 -6.351670000000000371e-01 1.081768000000000063e+00 -5.035950000000000149e-01 9.473610000000000086e-01 -1.215359999999999996e+00
3.248000000000000193e-02 5.942579999999999529e-01 4.573169999999999735e-01 8.716279999999999584e-01 -2.576700000000000101e-01 4.446729999999999849e-01 -6.294900000000000495e-02 1.249699999999999943e-02 -2.269670000000000021e-01 -1.619319999999999926e-01 9.154879999999999685e-01 -1.854322999999999944e+00 -3.598230000000000040e-01 -1.025937000000000099e+00 1.871829999999999883e-01
4.217859999999999943e-01 -7.229839999999999600e-01 -1.078799000000000063e+00 -3.602199999999999847e-02 -3.079489999999999728e-01 1.736840000000000050e-01 -1.273533999999999944e+00 -2.196629000000000165e+00 5.205769999999999564e-01 -6.233099999999999752e-02 3.138900000000000023e-02 -2.145229999999999915e-01 1.593606999999999996e+00 2.859680000000000000e+00 7.197959999999999914e-01
-2.692030000000000256e-01 8.626399999999999346e-02 2.097870000000000013e-01 4.254830000000000001e-01 -1.960899999999999865e-01 -8.663999999999999826e-03 2.186700000000000102e-02 1.152117999999999975e+00 4.976400000000000268e-02 6.843200000000000671e-02 -2.385309999999999930e-01 2.823099999999999915e-02 -1.386794000000000082e+00 -1.568299999999999902e-02 -8.363620000000000498e-01
5.592169999999999641e-01 -6.966970000000000107e-01 -1.233784999999999910e+00 -2.282629999999999937e-01 1.887790000000000024e-01 4.333560000000000190e-01 -2.750319999999999987e-01 -4.787270000000000136e-01 -2.339160000000000128e-01 -6.417370000000000019e-01 3.323650000000000215e-01 -1.006129999999999969e+00 3.391989999999999728e-01 2.232222999999999846e+00 1.333069999999999977e+00
-8.441800000000000692e-02 -9.999500000000000055e-02 -2.439580000000000082e-01 -1.163283999999999985e+00 4.737000000000000099e-01 2.480600000000000027e-01 3.592739999999999823e-01 4.443869999999999765e-01 -6.009099999999999858e-02 -7.033230000000000315e-01 -5.807219999999999605e-01 4.873520000000000074e-01 -3.147150000000000225e-01 8.705859999999999710e-01 4.392700000000000077e-02
-3.513080000000000092e-01 1.281879999999999964e-01 1.234097999999999917e+00 -1.927740000000000009e+00 5.487900000000000000e-01 -5.970299999999999496e-01 -9.835289999999999866e-01 -7.686939999999999884e-01 -1.862129999999999896e-01 8.431199999999999806e-01 -4.329259999999999775e-01 1.548777999999999988e+00 1.087066000000000088e+00 1.244496000000000047e+00 -2.556261999999999812e+00
-1.538490000000000135e-01 -2.957699999999999912e-02 1.717130000000000045e-01 -1.274210000000000065e+00 4.633550000000000169e-01 -2.125470000000000137e-01 -6.790000000000000029e-03 -4.919049999999999812e-01 -3.366950000000000220e-01 -4.261730000000000240e-01 -1.007613000000000092e+00 8.843259999999999454e-01 6.310999999999999943e-01 1.116085999999999911e+00 -2.173800000000000038e-02
6.464720000000000466e-01 -4.349700000000000094e-02 6.854630000000000445e-01 -5.040489999999999693e-01 2.097229999999999928e-01 -9.693899999999999739e-02 1.291609999999999980e-01 -2.889600000000000155e-02 -1.142689999999999956e-01 2.808570000000000233e-01 -1.332500000000000073e-01 -1.159499999999999940e-02 -9.676040000000000196e-01 1.840850000000000097e+00 -4.029070000000000151e-01
9.284000000000000585e-03 8.151059999999999972e-01 3.725010000000000265e-01 3.926509999999999723e-01 6.222799999999999859e-02 2.510160000000000169e-01 9.500509999999999788e-01 2.162202000000000179e+00 -1.795059999999999989e-01 3.863710000000000200e-01 -4.722999999999999768e-03 1.425710999999999951e+00 -2.197794000000000025e+00 -1.281692000000000053e+00 -2.291109000000000062e+00
3.305139999999999745e-01 -2.508819999999999939e-01 -4.889930000000000110e-01 5.886759999999999771e-01 3.613939999999999930e-01 7.881740000000000412e-01 3.286769999999999969e-01 3.949570000000000025e-01 -7.863199999999999357e-02 -1.392100000000000004e-01 2.914630000000000276e-01 -9.287800000000000222e-02 -7.907429999999999737e-01 4.133049999999999780e-01 -1.916579999999999950e-01
3.623129999999999962e-01 -9.687759999999999705e-01 -7.533300000000000551e-01 7.553929999999999811e-01 -4.082500000000000018e-02 1.584059999999999913e-01 -7.267190000000000039e-01 -2.540819999999999745e-01 -6.801999999999999887e-03 -3.249319999999999986e-01 1.025138000000000105e+00 -1.117780999999999914e+00 4.457300000000000151e-02 7.742580000000000018e-01 1.369321999999999928e+00
2.507969999999999922e-01 1.077300000000000063e-01 6.463499999999999801e-02 -3.034500000000000045e-02 -1.216290000000000010e-01 2.976590000000000069e-01 4.879000000000000004e-01 4.416660000000000030e-01 8.819299999999999917e-01 5.878400000000000292e-02 -5.979399999999999993e-02 6.223250000000000171e-01 -2.808200000000000141e-01 6.298439999999999594e-01 -1.234291999999999945e+00
-3.862490000000000090e-01 1.045225999999999988e+00 -4.297139999999999849e-01 -2.315357000000000109e+00 -1.006559999999999955e-01 -2.182330000000000103e-01 3.868099999999999872e-01 1.512065999999999910e+00 -5.784399999999999958e-02 -5.816000000000000336e-02 -7.758900000000000519e-02 5.768269999999999786e-01 1.692666999999999922e+00 -3.035849999999999937e-01 -1.864619999999999889e-01
2.359809999999999963e-01 -7.073369999999999935e-01 -1.383863999999999983e+00 5.181660000000000155e-01 3.261200000000000210e-02 -4.471789999999999932e-01 3.116419999999999746e-01 1.551869999999999916e-01 5.480070000000000219e-01 2.074900000000000008e-02 4.637519999999999976e-01 1.581899999999999973e-02 -1.327442999999999929e+00 9.066400000000000015e-01 3.723139999999999783e-01
5.242600000000000038e-02 -1.065804999999999891e+00 -6.916799999999999338e-02 -1.530809999999999949e-01 -3.361080000000000179e-01 -1.722680000000000045e-01 7.491700000000000026e-01 1.037795000000000023e+00 4.150519999999999765e-01 7.030279999999999863e-01 -7.016620000000000079e-01 1.020590000000000108e+00 -1.415235000000000021e+00 6.792199999999999627e-02 -7.754119999999999902e-01
1.075429999999999997e-01 -8.022600000000000564e-02 -3.253849999999999798e-01 1.355482000000000076e+00 -1.278700000000000114e-01 5.908079999999999998e-01 4.243399999999999950e-01 1.510850999999999944e+00 -9.391099999999999448e-02 -9.816600000000000326e-02 1.214315999999999951e+00 -1.470701999999999954e+00 -1.382708999999999966e+00 -1.502944999999999975e+00 -2.538679999999999826e-01
1.534790000000000043e-01 -5.660349999999999548e-01 -1.241138000000000075e+00 2.429350000000000120e-01 -1.064513999999999960e+00 -4.348099999999999743e-01 2.450180000000000136e-01 6.140649999999999720e-01 5.739799999999999763e-02 -2.867190000000000016e-01 -5.026400000000000312e-02 -6.531399999999999706e-02 -5.047970000000000512e-01 1.810545000000000071e+00 9.388769999999999616e-01
-4.657339999999999813e-01 9.561840000000000339e-01 4.811420000000000141e-01 6.387549999999999617e-01 -2.854070000000000218e-01 2.055639999999999967e-01 -1.049806999999999935e+00 -3.283099999999999907e-01 -2.046530000000000016e-01 -9.860090000000000243e-01 7.467449999999999921e-01 -1.192150999999999961e+00 -2.677799999999999972e-02 2.138110000000000011e-01 -1.480499000000000009e+00
2.433800000000000130e-01 1.495799000000000101e+00 1.829639999999999933e+00 1.653630000000000100e-01 5.054680000000000284e-01 4.777660000000000240e-01 -2.272480000000000055e-01 -4.185209999999999764e-01 -2.736399999999999944e-02 -3.374820000000000042e-01 6.757699999999999818e-02 -3.637119999999999798e-01 -6.492419999999999858e-01 -1.494227999999999890e+00 -2.497821000000000069e+00
-2.488100000000000034e-02 -1.223100000000000055e-02 5.081550000000000233e-01 -5.761789999999999967e-01 1.804340000000000110e-01 -3.410650000000000071e-01 3.325580000000000203e-01 4.585230000000000139e-01 -8.153000000000000524e-02 3.702360000000000095e-01 -1.466260000000000063e-01 -9.538529999999999509e-01 -1.241010000000000030e-01 -6.690199999999999481e-01 6.447400000000000353e-02
-6.858999999999999646e-03 -3.131390000000000007e-01 7.797600000000000364e-02 -5.795989999999999753e-01 -1.841049999999999909e-01 7.341999999999999915e-02 -3.313180000000000014e-01 -9.466909999999999492e-01 6.610019999999999785e-01 -5.031069999999999709e-01 1.202191000000000010e+00 -1.294988999999999946e+00 1.135617000000000099e+00 7.764499999999999735e-01 1.304270999999999958e+00
-6.296770000000000422e-01 1.077806000000000042e+00 8.610830000000000428e-01 -1.023630999999999958e+00 -2.882919999999999927e-01 4.476109999999999811e-01 -1.003818000000000099e+00 -1.858208000000000082e+00 -7.319000000000000505e-02 -9.571799999999999753e-02 -1.916720000000000090e-01 2.085940000000000016e-01 1.632349999999999968e+00 1.465457999999999927e+00 -1.523854000000000042e+00
1.155186999999999964e+00 -1.274486999999999925e+00 -1.848756000000000066e+00 -2.821899999999999964e-01 3.344929999999999848e-01 1.134025999999999978e+00 7.948250000000000037e-01 6.492729999999999890e-01 8.083679999999999755e-01 -9.621999999999999997e-02 -6.681409999999999849e-01 6.611059999999999715e-01 -1.400927999999999951e+00 -2.679699999999999860e-01 1.026815999999999951e+00
1.502310000000000034e-01 6.260400000000000409e-01 2.025359999999999938e-01 4.779140000000000055e-01 -7.814000000000000112e-02 -1.417120000000000046e-01 4.375589999999999757e-01 5.873599999999999655e-02 -7.993930000000000202e-01 -2.040180000000000049e-01 3.499320000000000208e-01 -1.194493000000000027e+00 -1.120641999999999916e+00 -8.258799999999999475e-02 1.272707999999999950e+00
-2.225699999999999901e-02 9.394139999999999713e-01 1.277438000000000073e+00 1.359420000000000073e-01 2.626669999999999838e-01 -5.822889999999999455e-01 4.341320000000000179e-01 1.773314000000000057e+00 -1.515749999999999875e-01 1.896879999999999955e-01 4.572999999999999982e-02 4.440359999999999863e-01 -8.586150000000000171e-01 -2.585792000000000090e+00 -1.241897999999999946e+00
2.241889999999999994e-01 4.428400000000000114e-01 2.475819999999999965e-01 9.901699999999999391e-02 3.372060000000000057e-01 -1.104480000000000045e-01 3.067270000000000274e-01 6.080680000000000529e-01 2.552920000000000189e-01 -1.433700000000000079e-02 -4.581830000000000069e-01 -1.070170000000000010e-01 -1.180498000000000047e+00 7.606990000000000141e-01 -1.275000000000000022e-01
4.432800000000000074e-01 -2.799010000000000109e-01 -4.892190000000000150e-01 1.532010000000000038e-01 7.797589999999999799e-01 3.233779999999999988e-01 -6.507140000000000146e-01 -6.457939999999999792e-01 1.195289999999999964e-01 -1.815900000000000153e-02 -1.414569999999999994e-01 2.916969999999999841e-01 -2.658739999999999992e-01 7.829080000000000483e-01 -7.137489999999999668e-01
-4.472399999999999987e-02 1.368640000000000134e-01 4.235700000000000021e-01 -2.738519999999999843e-01 9.362409999999999899e-01 -7.995839999999999614e-01 -2.261110000000000064e-01 -1.716689999999999883e-01 9.579999999999999974e-03 -2.125440000000000107e-01 -2.488879999999999981e-01 4.422280000000000100e-01 -4.702589999999999826e-01 2.206796000000000202e+00 -1.570432000000000050e+00
-3.081900000000000195e-01 -4.574369999999999825e-01 -3.855640000000000178e-01 -1.210196999999999967e+00 1.943189999999999917e-01 -3.054839999999999778e-01 -3.514289999999999914e-01 -5.391120000000000356e-01 -3.323780000000000068e-01 -3.710780000000000189e-01 -5.407599999999999907e-02 6.927330000000000432e-01 1.267597000000000085e+00 2.185862999999999889e+00 2.803019999999999956e-01
-4.069650000000000212e-01 -2.569859999999999922e-01 -1.073204999999999965e+00 6.824500000000000011e-01 -1.755800000000000138e-01 -7.098179999999999490e-01 4.343790000000000151e-01 3.789589999999999903e-01 3.346750000000000003e-01 -3.334989999999999899e-01 1.094765999999999906e+00 -1.092097000000000095e+00 -1.250285000000000091e+00 -1.437473000000000001e+00 1.905550000000000077e+00
-4.259339999999999793e-01 -5.313500000000000167e-02 -6.360789999999999500e-01 2.524020000000000152e-01 -5.480279999999999596e-01 -4.887000000000000233e-01 -6.234300000000000258e-02 -3.565980000000000261e-01 -4.213310000000000111e-01 -1.858259999999999912e-01 4.534139999999999837e-01 -2.144790000000000030e-01 -6.057630000000000514e-01 1.986440999999999901e+00 5.832380000000000342e-01
2.339050000000000018e-01 -1.411580000000000057e-01 2.595400000000000137e-02 -4.141719999999999846e-01 5.179390000000000382e-01 -1.588739999999999875e-01 4.044400000000000217e-01 7.291459999999999608e-01 -1.077390000000000014e-01 2.918990000000000196e-01 -2.125700000000000089e-01 4.980359999999999787e-01 -1.951570000000000027e+00 -9.730130000000000168e-01 -1.480161999999999978e+00
-2.618999999999999800e-03 -6.269310000000000160e-01 -5.242550000000000265e-01 1.115137999999999963e+00 -3.011519999999999753e-01 -6.595399999999999874e-02 2.110789999999999889e-01 2.117479999999999918e-01 3.312309999999999977e-01 -3.003500000000000059e-01 1.113385000000000069e+00 -9.351629999999999665e-01 -1.496984000000000092e+00 1.453969000000000067e+00 1.142420999999999909e+00