   5   5   0   0
  0.2000000E+03  0.1000000E-08  0.1000000E-08  0.1000000E-08  0.2000000E-14
   50.000000000000000     
  CAR 
 unknown system                          
      2.69769186    -18.88291982  301     -9.11408220      1.00000000
    -18.883  0.0000E+00  0.0000E+00
    -18.811  0.0000E+00  0.0000E+00
    -18.739  0.0000E+00  0.0000E+00
    -18.667  0.0000E+00  0.0000E+00
    -18.595  0.0000E+00  0.0000E+00
    -18.523 -0.3932E-27 -0.2828E-28
    -18.451 -0.1202E-24 -0.8672E-26
    -18.379 -0.2836E-22 -0.2049E-23
    -18.307 -0.5154E-20 -0.3728E-21
    -18.236 -0.7210E-18 -0.5224E-19
    -18.164 -0.7761E-16 -0.5635E-17
    -18.092 -0.6425E-14 -0.4678E-15
    -18.020 -0.3965E-12 -0.2899E-13
    -17.948 -0.1928E-10 -0.1416E-11
    -17.876 -0.7194E-09 -0.5316E-10
    -17.804 -0.2054E-07 -0.1531E-08
    -17.732 -0.4480E-06 -0.3376E-07
    -17.660 -0.7444E-05 -0.5693E-06
    -17.588 -0.9387E-04 -0.7322E-05
    -17.516 -0.8931E-03 -0.7157E-04
    -17.444 -0.6356E-02 -0.5288E-03
    -17.372 -0.3334E-01 -0.2927E-02
    -17.300 -0.1253E+00 -0.1194E-01
    -17.228 -0.3168E+00 -0.3473E-01
    -17.156 -0.4314E+00 -0.6576E-01
    -17.085  0.1927E+00 -0.5190E-01
    -17.013  0.2374E+01  0.1189E+00
    -16.941  0.5759E+01  0.5331E+00
    -16.869  0.8154E+01  0.1120E+01
    -16.797  0.7501E+01  0.1659E+01
    -16.725  0.4390E+01  0.1975E+01
    -16.653  0.1307E+01  0.2069E+01
    -16.581 -0.2025E+00  0.2054E+01
    -16.509 -0.4256E+00  0.2024E+01
    -16.437 -0.2322E+00  0.2007E+01
    -16.365 -0.7759E-01  0.2002E+01
    -16.293 -0.1801E-01  0.2000E+01
    -16.221 -0.3038E-02  0.2000E+01
    -16.149 -0.3802E-03  0.2000E+01
    -16.077 -0.3573E-04  0.2000E+01
    -16.006 -0.2540E-05  0.2000E+01
    -15.934 -0.1373E-06  0.2000E+01
    -15.862 -0.5657E-08  0.2000E+01
    -15.790 -0.1783E-09  0.2000E+01
    -15.718 -0.4306E-11  0.2000E+01
    -15.646 -0.8025E-13  0.2000E+01
    -15.574  0.0000E+00  0.2000E+01
    -15.502  0.0000E+00  0.2000E+01
    -15.430  0.0000E+00  0.2000E+01
    -15.358  0.0000E+00  0.2000E+01
    -15.286  0.0000E+00  0.2000E+01
    -15.214  0.0000E+00  0.2000E+01
    -15.142  0.0000E+00  0.2000E+01
    -15.070  0.0000E+00  0.2000E+01
    -14.998  0.0000E+00  0.2000E+01
    -14.926  0.0000E+00  0.2000E+01
    -14.855  0.0000E+00  0.2000E+01
    -14.783  0.0000E+00  0.2000E+01
    -14.711  0.0000E+00  0.2000E+01
    -14.639  0.0000E+00  0.2000E+01
    -14.567  0.0000E+00  0.2000E+01
    -14.495  0.0000E+00  0.2000E+01
    -14.423  0.0000E+00  0.2000E+01
    -14.351  0.0000E+00  0.2000E+01
    -14.279  0.0000E+00  0.2000E+01
    -14.207  0.0000E+00  0.2000E+01
    -14.135  0.0000E+00  0.2000E+01
    -14.063  0.0000E+00  0.2000E+01
    -13.991  0.0000E+00  0.2000E+01
    -13.919  0.0000E+00  0.2000E+01
    -13.847  0.0000E+00  0.2000E+01
    -13.776  0.0000E+00  0.2000E+01
    -13.704  0.0000E+00  0.2000E+01
    -13.632  0.0000E+00  0.2000E+01
    -13.560  0.0000E+00  0.2000E+01
    -13.488  0.0000E+00  0.2000E+01
    -13.416  0.0000E+00  0.2000E+01
    -13.344  0.0000E+00  0.2000E+01
    -13.272  0.0000E+00  0.2000E+01
    -13.200  0.0000E+00  0.2000E+01
    -13.128  0.0000E+00  0.2000E+01
    -13.056  0.0000E+00  0.2000E+01
    -12.984  0.0000E+00  0.2000E+01
    -12.912  0.0000E+00  0.2000E+01
    -12.840  0.0000E+00  0.2000E+01
    -12.768  0.0000E+00  0.2000E+01
    -12.696  0.0000E+00  0.2000E+01
    -12.625  0.0000E+00  0.2000E+01
    -12.553  0.0000E+00  0.2000E+01
    -12.481  0.0000E+00  0.2000E+01
    -12.409  0.0000E+00  0.2000E+01
    -12.337  0.0000E+00  0.2000E+01
    -12.265  0.0000E+00  0.2000E+01
    -12.193  0.0000E+00  0.2000E+01
    -12.121  0.0000E+00  0.2000E+01
    -12.049  0.0000E+00  0.2000E+01
    -11.977  0.0000E+00  0.2000E+01
    -11.905  0.0000E+00  0.2000E+01
    -11.833  0.0000E+00  0.2000E+01
    -11.761  0.0000E+00  0.2000E+01
    -11.689  0.0000E+00  0.2000E+01
    -11.617  0.0000E+00  0.2000E+01
    -11.546  0.0000E+00  0.2000E+01
    -11.474  0.0000E+00  0.2000E+01
    -11.402  0.0000E+00  0.2000E+01
    -11.330  0.0000E+00  0.2000E+01
    -11.258  0.0000E+00  0.2000E+01
    -11.186  0.0000E+00  0.2000E+01
    -11.114  0.0000E+00  0.2000E+01
    -11.042  0.0000E+00  0.2000E+01
    -10.970  0.0000E+00  0.2000E+01
    -10.898 -0.8712E-26  0.2000E+01
    -10.826 -0.2433E-23  0.2000E+01
    -10.754 -0.5248E-21  0.2000E+01
    -10.682 -0.8715E-19  0.2000E+01
    -10.610 -0.1114E-16  0.2000E+01
    -10.538 -0.1095E-14  0.2000E+01
    -10.466 -0.7975E-13  0.2000E+01
    -10.395 -0.4660E-11  0.2000E+01
    -10.323 -0.2070E-09  0.2000E+01
    -10.251 -0.7043E-08  0.2000E+01
    -10.179 -0.1833E-06  0.2000E+01
    -10.107 -0.3643E-05  0.2000E+01
    -10.035 -0.5507E-04  0.2000E+01
     -9.963 -0.6308E-03  0.2000E+01
     -9.891 -0.5438E-02  0.2000E+01
     -9.819 -0.3492E-01  0.1997E+01
     -9.747 -0.1640E+00  0.1985E+01
     -9.675 -0.5437E+00  0.1946E+01
     -9.603 -0.1160E+01  0.1863E+01
     -9.531 -0.1044E+01  0.1788E+01
     -9.459  0.2233E+01  0.1948E+01
     -9.387  0.1044E+02  0.2699E+01
     -9.316  0.2050E+02  0.4174E+01
     -9.244  0.2493E+02  0.5967E+01
     -9.172  0.1978E+02  0.7390E+01
     -9.100  0.9621E+01  0.8082E+01
     -9.028  0.1786E+01  0.8211E+01
     -8.956 -0.1132E+01  0.8129E+01
     -8.884 -0.1114E+01  0.8049E+01
     -8.812 -0.5005E+00  0.8013E+01
     -8.740 -0.1465E+00  0.8003E+01
     -8.668 -0.3037E-01  0.8000E+01
     -8.596 -0.4615E-02  0.8000E+01
     -8.524 -0.5229E-03  0.8000E+01
     -8.452 -0.4463E-04  0.8000E+01
     -8.380 -0.2886E-05  0.8000E+01
     -8.308 -0.1421E-06  0.8000E+01
     -8.236 -0.5341E-08  0.8000E+01
     -8.165 -0.1536E-09  0.8000E+01
     -8.093 -0.3383E-11  0.8000E+01
     -8.021 -0.6019E-13  0.8000E+01
     -7.949  0.0000E+00  0.8000E+01
     -7.877  0.0000E+00  0.8000E+01
     -7.805  0.0000E+00  0.8000E+01
     -7.733  0.0000E+00  0.8000E+01
     -7.661  0.0000E+00  0.8000E+01
     -7.589  0.0000E+00  0.8000E+01
     -7.517  0.0000E+00  0.8000E+01
     -7.445  0.0000E+00  0.8000E+01
     -7.373  0.0000E+00  0.8000E+01
     -7.301  0.0000E+00  0.8000E+01
     -7.229  0.0000E+00  0.8000E+01
     -7.157  0.0000E+00  0.8000E+01
     -7.086  0.0000E+00  0.8000E+01
     -7.014  0.0000E+00  0.8000E+01
     -6.942  0.0000E+00  0.8000E+01
     -6.870  0.0000E+00  0.8000E+01
     -6.798  0.0000E+00  0.8000E+01
     -6.726  0.0000E+00  0.8000E+01
     -6.654  0.0000E+00  0.8000E+01
     -6.582  0.0000E+00  0.8000E+01
     -6.510  0.0000E+00  0.8000E+01
     -6.438  0.0000E+00  0.8000E+01
     -6.366  0.0000E+00  0.8000E+01
     -6.294  0.0000E+00  0.8000E+01
     -6.222  0.0000E+00  0.8000E+01
     -6.150  0.0000E+00  0.8000E+01
     -6.078  0.0000E+00  0.8000E+01
     -6.006  0.0000E+00  0.8000E+01
     -5.935  0.0000E+00  0.8000E+01
     -5.863  0.0000E+00  0.8000E+01
     -5.791  0.0000E+00  0.8000E+01
     -5.719  0.0000E+00  0.8000E+01
     -5.647  0.0000E+00  0.8000E+01
     -5.575  0.0000E+00  0.8000E+01
     -5.503  0.0000E+00  0.8000E+01
     -5.431  0.0000E+00  0.8000E+01
     -5.359  0.0000E+00  0.8000E+01
     -5.287  0.0000E+00  0.8000E+01
     -5.215  0.0000E+00  0.8000E+01
     -5.143  0.0000E+00  0.8000E+01
     -5.071  0.0000E+00  0.8000E+01
     -4.999  0.0000E+00  0.8000E+01
     -4.927  0.0000E+00  0.8000E+01
     -4.856  0.0000E+00  0.8000E+01
     -4.784  0.0000E+00  0.8000E+01
     -4.712  0.0000E+00  0.8000E+01
     -4.640  0.0000E+00  0.8000E+01
     -4.568  0.0000E+00  0.8000E+01
     -4.496  0.0000E+00  0.8000E+01
     -4.424  0.0000E+00  0.8000E+01
     -4.352  0.0000E+00  0.8000E+01
     -4.280  0.0000E+00  0.8000E+01
     -4.208  0.0000E+00  0.8000E+01
     -4.136  0.0000E+00  0.8000E+01
     -4.064  0.0000E+00  0.8000E+01
     -3.992  0.0000E+00  0.8000E+01
     -3.920  0.0000E+00  0.8000E+01
     -3.848  0.0000E+00  0.8000E+01
     -3.776  0.0000E+00  0.8000E+01
     -3.705  0.0000E+00  0.8000E+01
     -3.633  0.0000E+00  0.8000E+01
     -3.561  0.0000E+00  0.8000E+01
     -3.489  0.0000E+00  0.8000E+01
     -3.417  0.0000E+00  0.8000E+01
     -3.345  0.0000E+00  0.8000E+01
     -3.273  0.0000E+00  0.8000E+01
     -3.201  0.0000E+00  0.8000E+01
     -3.129  0.0000E+00  0.8000E+01
     -3.057  0.0000E+00  0.8000E+01
     -2.985  0.0000E+00  0.8000E+01
     -2.913  0.0000E+00  0.8000E+01
     -2.841  0.0000E+00  0.8000E+01
     -2.769  0.0000E+00  0.8000E+01
     -2.697  0.0000E+00  0.8000E+01
     -2.626  0.0000E+00  0.8000E+01
     -2.554  0.0000E+00  0.8000E+01
     -2.482  0.0000E+00  0.8000E+01
     -2.410  0.0000E+00  0.8000E+01
     -2.338  0.0000E+00  0.8000E+01
     -2.266  0.0000E+00  0.8000E+01
     -2.194  0.0000E+00  0.8000E+01
     -2.122  0.0000E+00  0.8000E+01
     -2.050  0.0000E+00  0.8000E+01
     -1.978 -0.6152E-28  0.8000E+01
     -1.906 -0.2041E-25  0.8000E+01
     -1.834 -0.5231E-23  0.8000E+01
     -1.762 -0.1032E-20  0.8000E+01
     -1.690 -0.1568E-18  0.8000E+01
     -1.618 -0.1832E-16  0.8000E+01
     -1.546 -0.1648E-14  0.8000E+01
     -1.475 -0.1108E-12  0.8000E+01
     -1.403 -0.5847E-11  0.8000E+01
     -1.331 -0.2372E-09  0.8000E+01
     -1.259 -0.7367E-08  0.8000E+01
     -1.187 -0.1749E-06  0.8000E+01
     -1.115 -0.3168E-05  0.8000E+01
     -1.043 -0.4359E-04  0.8000E+01
     -0.971 -0.4535E-03  0.8000E+01
     -0.899 -0.3540E-02  0.8000E+01
     -0.827 -0.2048E-01  0.7998E+01
     -0.755 -0.8589E-01  0.7992E+01
     -0.683 -0.2488E+00  0.7974E+01
     -0.611 -0.4330E+00  0.7943E+01
     -0.539 -0.1411E+00  0.7933E+01
     -0.467  0.1502E+01  0.8041E+01
     -0.396  0.4670E+01  0.8377E+01
     -0.324  0.7670E+01  0.8929E+01
     -0.252  0.8061E+01  0.9508E+01
     -0.180  0.5488E+01  0.9903E+01
     -0.108  0.2138E+01  0.1006E+02
     -0.036  0.9090E-01  0.1006E+02
      0.036 -0.4538E+00  0.1003E+02
      0.108 -0.3766E+00  0.1000E+02
      0.180 -0.3769E+00  0.9977E+01
      0.252 -0.6446E+00  0.9930E+01
      0.324 -0.8239E+00  0.9871E+01
      0.396  0.2106E+00  0.9886E+01
      0.468  0.4013E+01  0.1017E+02
      0.540  0.1094E+02  0.1096E+02
      0.612  0.1840E+02  0.1229E+02
      0.684  0.2178E+02  0.1385E+02
      0.755  0.1836E+02  0.1517E+02
      0.827  0.1048E+02  0.1593E+02
      0.899  0.3243E+01  0.1616E+02
      0.971 -0.3626E+00  0.1613E+02
      1.043 -0.1001E+01  0.1606E+02
      1.115 -0.5869E+00  0.1602E+02
      1.187 -0.2094E+00  0.1600E+02
      1.259 -0.5196E-01  0.1600E+02
      1.331 -0.9385E-02  0.1600E+02
      1.403 -0.1260E-02  0.1600E+02
      1.475 -0.1273E-03  0.1600E+02
      1.547 -0.9743E-05  0.1600E+02
      1.619 -0.5677E-06  0.1600E+02
      1.691 -0.2526E-07  0.1600E+02
      1.763 -0.8606E-09  0.1600E+02
      1.834 -0.2249E-10  0.1600E+02
      1.906 -0.4507E-12  0.1600E+02
      1.978 -0.6173E-14  0.1600E+02
      2.050  0.0000E+00  0.1600E+02
      2.122  0.0000E+00  0.1600E+02
      2.194  0.0000E+00  0.1600E+02
      2.266  0.0000E+00  0.1600E+02
      2.338  0.0000E+00  0.1600E+02
      2.410  0.0000E+00  0.1600E+02
      2.482  0.0000E+00  0.1600E+02
      2.554  0.0000E+00  0.1600E+02
      2.626  0.0000E+00  0.1600E+02
      2.698  0.0000E+00  0.1600E+02
      2.70260349    -18.84546090  301     -9.06266966      1.00000000
    -18.845  0.0000E+00  0.0000E+00
    -18.774  0.0000E+00  0.0000E+00
    -18.702  0.0000E+00  0.0000E+00
    -18.630  0.0000E+00  0.0000E+00
    -18.558  0.0000E+00  0.0000E+00
    -18.486 -0.3768E-27 -0.2707E-28
    -18.414 -0.1144E-24 -0.8246E-26
    -18.343 -0.2685E-22 -0.1937E-23
    -18.271 -0.4856E-20 -0.3507E-21
    -18.199 -0.6765E-18 -0.4894E-19
    -18.127 -0.7258E-16 -0.5262E-17
    -18.055 -0.5993E-14 -0.4357E-15
    -17.984 -0.3683E-12 -0.2689E-13
    -17.912 -0.1794E-10 -0.1316E-11
    -17.840 -0.6693E-09 -0.4939E-10
    -17.768 -0.1912E-07 -0.1423E-08
    -17.696 -0.4178E-06 -0.3143E-07
    -17.624 -0.6960E-05 -0.5313E-06
    -17.553 -0.8806E-04 -0.6856E-05
    -17.481 -0.8416E-03 -0.6731E-04
    -17.409 -0.6024E-02 -0.5000E-03
    -17.337 -0.3182E-01 -0.2786E-02
    -17.265 -0.1208E+00 -0.1146E-01
    -17.193 -0.3094E+00 -0.3368E-01
    -17.122 -0.4346E+00 -0.6490E-01
    -17.050  0.1453E+00 -0.5447E-01
    -16.978  0.2259E+01  0.1078E+00
    -16.906  0.5624E+01  0.5117E+00
    -16.834  0.8109E+01  0.1094E+01
    -16.762  0.7595E+01  0.1640E+01
    -16.691  0.4546E+01  0.1966E+01
    -16.619  0.1417E+01  0.2068E+01
    -16.547 -0.1671E+00  0.2056E+01
    -16.475 -0.4305E+00  0.2025E+01
    -16.403 -0.2426E+00  0.2008E+01
    -16.332 -0.8292E-01  0.2002E+01
    -16.260 -0.1964E-01  0.2000E+01
    -16.188 -0.3376E-02  0.2000E+01
    -16.116 -0.4306E-03  0.2000E+01
    -16.044 -0.4127E-04  0.2000E+01
    -15.972 -0.2993E-05  0.2000E+01
    -15.901 -0.1651E-06  0.2000E+01
    -15.829 -0.6953E-08  0.2000E+01
    -15.757 -0.2240E-09  0.2000E+01
    -15.685 -0.5534E-11  0.2000E+01
    -15.613 -0.1051E-12  0.2000E+01
    -15.541  0.0000E+00  0.2000E+01
    -15.470  0.0000E+00  0.2000E+01
    -15.398  0.0000E+00  0.2000E+01
    -15.326  0.0000E+00  0.2000E+01
    -15.254  0.0000E+00  0.2000E+01
    -15.182  0.0000E+00  0.2000E+01
    -15.110  0.0000E+00  0.2000E+01
    -15.039  0.0000E+00  0.2000E+01
    -14.967  0.0000E+00  0.2000E+01
    -14.895  0.0000E+00  0.2000E+01
    -14.823  0.0000E+00  0.2000E+01
    -14.751  0.0000E+00  0.2000E+01
    -14.680  0.0000E+00  0.2000E+01
    -14.608  0.0000E+00  0.2000E+01
    -14.536  0.0000E+00  0.2000E+01
    -14.464  0.0000E+00  0.2000E+01
    -14.392  0.0000E+00  0.2000E+01
    -14.320  0.0000E+00  0.2000E+01
    -14.249  0.0000E+00  0.2000E+01
    -14.177  0.0000E+00  0.2000E+01
    -14.105  0.0000E+00  0.2000E+01
    -14.033  0.0000E+00  0.2000E+01
    -13.961  0.0000E+00  0.2000E+01
    -13.889  0.0000E+00  0.2000E+01
    -13.818  0.0000E+00  0.2000E+01
    -13.746  0.0000E+00  0.2000E+01
    -13.674  0.0000E+00  0.2000E+01
    -13.602  0.0000E+00  0.2000E+01
    -13.530  0.0000E+00  0.2000E+01
    -13.458  0.0000E+00  0.2000E+01
    -13.387  0.0000E+00  0.2000E+01
    -13.315  0.0000E+00  0.2000E+01
    -13.243  0.0000E+00  0.2000E+01
    -13.171  0.0000E+00  0.2000E+01
    -13.099  0.0000E+00  0.2000E+01
    -13.027  0.0000E+00  0.2000E+01
    -12.956  0.0000E+00  0.2000E+01
    -12.884  0.0000E+00  0.2000E+01
    -12.812  0.0000E+00  0.2000E+01
    -12.740  0.0000E+00  0.2000E+01
    -12.668  0.0000E+00  0.2000E+01
    -12.597  0.0000E+00  0.2000E+01
    -12.525  0.0000E+00  0.2000E+01
    -12.453  0.0000E+00  0.2000E+01
    -12.381  0.0000E+00  0.2000E+01
    -12.309  0.0000E+00  0.2000E+01
    -12.237  0.0000E+00  0.2000E+01
    -12.166  0.0000E+00  0.2000E+01
    -12.094  0.0000E+00  0.2000E+01
    -12.022  0.0000E+00  0.2000E+01
    -11.950  0.0000E+00  0.2000E+01
    -11.878  0.0000E+00  0.2000E+01
    -11.806  0.0000E+00  0.2000E+01
    -11.735  0.0000E+00  0.2000E+01
    -11.663  0.0000E+00  0.2000E+01
    -11.591  0.0000E+00  0.2000E+01
    -11.519  0.0000E+00  0.2000E+01
    -11.447  0.0000E+00  0.2000E+01
    -11.375  0.0000E+00  0.2000E+01
    -11.304  0.0000E+00  0.2000E+01
    -11.232  0.0000E+00  0.2000E+01
    -11.160  0.0000E+00  0.2000E+01
    -11.088  0.0000E+00  0.2000E+01
    -11.016  0.0000E+00  0.2000E+01
    -10.945 -0.9935E-26  0.2000E+01
    -10.873 -0.2603E-23  0.2000E+01
    -10.801 -0.5270E-21  0.2000E+01
    -10.729 -0.8223E-19  0.2000E+01
    -10.657 -0.9882E-17  0.2000E+01
    -10.585 -0.9143E-15  0.2000E+01
    -10.514 -0.6356E-13  0.2000E+01
    -10.442 -0.3449E-11  0.2000E+01
    -10.370 -0.1445E-09  0.2000E+01
    -10.298 -0.4643E-08  0.2000E+01
    -10.226 -0.1143E-06  0.2000E+01
    -10.154 -0.2151E-05  0.2000E+01
    -10.083 -0.3089E-04  0.2000E+01
    -10.011 -0.3372E-03  0.2000E+01
     -9.939 -0.2787E-02  0.2000E+01
     -9.867 -0.1731E-01  0.1999E+01
     -9.795 -0.7989E-01  0.1993E+01
     -9.723 -0.2678E+00  0.1974E+01
     -9.652 -0.6166E+00  0.1929E+01
     -9.580 -0.7981E+00  0.1872E+01
     -9.508  0.2652E+00  0.1891E+01
     -9.436  0.4063E+01  0.2183E+01
     -9.364  0.1091E+02  0.2966E+01
     -9.292  0.1828E+02  0.4279E+01
     -9.221  0.2167E+02  0.5836E+01
     -9.149  0.1838E+02  0.7156E+01
     -9.077  0.1060E+02  0.7917E+01
     -9.005  0.3352E+01  0.8158E+01
     -8.933 -0.3193E+00  0.8135E+01
     -8.862 -0.1002E+01  0.8063E+01
     -8.790 -0.5975E+00  0.8020E+01
     -8.718 -0.2156E+00  0.8005E+01
     -8.646 -0.5404E-01  0.8001E+01
     -8.574 -0.9853E-02  0.8000E+01
     -8.502 -0.1336E-02  0.8000E+01
     -8.431 -0.1363E-03  0.8000E+01
     -8.359 -0.1054E-04  0.8000E+01
     -8.287 -0.6204E-06  0.8000E+01
     -8.215 -0.2792E-07  0.8000E+01
     -8.143 -0.9621E-09  0.8000E+01
     -8.071 -0.2544E-10  0.8000E+01
     -8.000 -0.5209E-12  0.8000E+01
     -7.928 -0.6183E-14  0.8000E+01
     -7.856  0.0000E+00  0.8000E+01
     -7.784  0.0000E+00  0.8000E+01
     -7.712  0.0000E+00  0.8000E+01
     -7.640  0.0000E+00  0.8000E+01
     -7.569  0.0000E+00  0.8000E+01
     -7.497  0.0000E+00  0.8000E+01
     -7.425  0.0000E+00  0.8000E+01
     -7.353  0.0000E+00  0.8000E+01
     -7.281  0.0000E+00  0.8000E+01
     -7.210  0.0000E+00  0.8000E+01
     -7.138  0.0000E+00  0.8000E+01
     -7.066  0.0000E+00  0.8000E+01
     -6.994  0.0000E+00  0.8000E+01
     -6.922  0.0000E+00  0.8000E+01
     -6.850  0.0000E+00  0.8000E+01
     -6.779  0.0000E+00  0.8000E+01
     -6.707  0.0000E+00  0.8000E+01
     -6.635  0.0000E+00  0.8000E+01
     -6.563  0.0000E+00  0.8000E+01
     -6.491  0.0000E+00  0.8000E+01
     -6.419  0.0000E+00  0.8000E+01
     -6.348  0.0000E+00  0.8000E+01
     -6.276  0.0000E+00  0.8000E+01
     -6.204  0.0000E+00  0.8000E+01
     -6.132  0.0000E+00  0.8000E+01
     -6.060  0.0000E+00  0.8000E+01
     -5.988  0.0000E+00  0.8000E+01
     -5.917  0.0000E+00  0.8000E+01
     -5.845  0.0000E+00  0.8000E+01
     -5.773  0.0000E+00  0.8000E+01
     -5.701  0.0000E+00  0.8000E+01
     -5.629  0.0000E+00  0.8000E+01
     -5.557  0.0000E+00  0.8000E+01
     -5.486  0.0000E+00  0.8000E+01
     -5.414  0.0000E+00  0.8000E+01
     -5.342  0.0000E+00  0.8000E+01
     -5.270  0.0000E+00  0.8000E+01
     -5.198  0.0000E+00  0.8000E+01
     -5.127  0.0000E+00  0.8000E+01
     -5.055  0.0000E+00  0.8000E+01
     -4.983  0.0000E+00  0.8000E+01
     -4.911  0.0000E+00  0.8000E+01
     -4.839  0.0000E+00  0.8000E+01
     -4.767  0.0000E+00  0.8000E+01
     -4.696  0.0000E+00  0.8000E+01
     -4.624  0.0000E+00  0.8000E+01
     -4.552  0.0000E+00  0.8000E+01
     -4.480  0.0000E+00  0.8000E+01
     -4.408  0.0000E+00  0.8000E+01
     -4.336  0.0000E+00  0.8000E+01
     -4.265  0.0000E+00  0.8000E+01
     -4.193  0.0000E+00  0.8000E+01
     -4.121  0.0000E+00  0.8000E+01
     -4.049  0.0000E+00  0.8000E+01
     -3.977  0.0000E+00  0.8000E+01
     -3.905  0.0000E+00  0.8000E+01
     -3.834  0.0000E+00  0.8000E+01
     -3.762  0.0000E+00  0.8000E+01
     -3.690  0.0000E+00  0.8000E+01
     -3.618  0.0000E+00  0.8000E+01
     -3.546  0.0000E+00  0.8000E+01
     -3.475  0.0000E+00  0.8000E+01
     -3.403  0.0000E+00  0.8000E+01
     -3.331  0.0000E+00  0.8000E+01
     -3.259  0.0000E+00  0.8000E+01
     -3.187  0.0000E+00  0.8000E+01
     -3.115  0.0000E+00  0.8000E+01
     -3.044  0.0000E+00  0.8000E+01
     -2.972  0.0000E+00  0.8000E+01
     -2.900  0.0000E+00  0.8000E+01
     -2.828  0.0000E+00  0.8000E+01
     -2.756  0.0000E+00  0.8000E+01
     -2.684  0.0000E+00  0.8000E+01
     -2.613  0.0000E+00  0.8000E+01
     -2.541  0.0000E+00  0.8000E+01
     -2.469  0.0000E+00  0.8000E+01
     -2.397  0.0000E+00  0.8000E+01
     -2.325  0.0000E+00  0.8000E+01
     -2.253  0.0000E+00  0.8000E+01
     -2.182  0.0000E+00  0.8000E+01
     -2.110  0.0000E+00  0.8000E+01
     -2.038  0.0000E+00  0.8000E+01
     -1.966 -0.3089E-27  0.8000E+01
     -1.894 -0.9464E-25  0.8000E+01
     -1.822 -0.2241E-22  0.8000E+01
     -1.751 -0.4088E-20  0.8000E+01
     -1.679 -0.5746E-18  0.8000E+01
     -1.607 -0.6219E-16  0.8000E+01
     -1.535 -0.5181E-14  0.8000E+01
     -1.463 -0.3212E-12  0.8000E+01
     -1.392 -0.1580E-10  0.8000E+01
     -1.320 -0.5945E-09  0.8000E+01
     -1.248 -0.1714E-07  0.8000E+01
     -1.176 -0.3779E-06  0.8000E+01
     -1.104 -0.6354E-05  0.8000E+01
     -1.032 -0.8116E-04  0.8000E+01
     -0.961 -0.7832E-03  0.8000E+01
     -0.889 -0.5662E-02  0.8000E+01
     -0.817 -0.3023E-01  0.7997E+01
     -0.745 -0.1161E+00  0.7989E+01
     -0.673 -0.3020E+00  0.7967E+01
     -0.601 -0.4368E+00  0.7936E+01
     -0.530  0.1039E+00  0.7943E+01
     -0.458  0.2159E+01  0.8099E+01
     -0.386  0.5509E+01  0.8494E+01
     -0.314  0.8067E+01  0.9074E+01
     -0.242  0.7665E+01  0.9624E+01
     -0.170  0.4665E+01  0.9959E+01
     -0.099  0.1501E+01  0.1007E+02
     -0.027 -0.1432E+00  0.1006E+02
      0.045 -0.4535E+00  0.1002E+02
      0.117 -0.3408E+00  0.1000E+02
      0.189 -0.3823E+00  0.9972E+01
      0.260 -0.6754E+00  0.9924E+01
      0.332 -0.7831E+00  0.9868E+01
      0.404  0.4890E+00  0.9903E+01
      0.476  0.4626E+01  0.1023E+02
      0.548  0.1171E+02  0.1108E+02
      0.620  0.1890E+02  0.1243E+02
      0.691  0.2165E+02  0.1399E+02
      0.763  0.1770E+02  0.1526E+02
      0.835  0.9748E+01  0.1596E+02
      0.907  0.2812E+01  0.1616E+02
      0.979 -0.4803E+00  0.1613E+02
      1.051 -0.9776E+00  0.1606E+02
      1.122 -0.5492E+00  0.1602E+02
      1.194 -0.1913E+00  0.1600E+02
      1.266 -0.4662E-01  0.1600E+02
      1.338 -0.8296E-02  0.1600E+02
      1.410 -0.1100E-02  0.1600E+02
      1.482 -0.1099E-03  0.1600E+02
      1.553 -0.8336E-05  0.1600E+02
      1.625 -0.4819E-06  0.1600E+02
      1.697 -0.2130E-07  0.1600E+02
      1.769 -0.7218E-09  0.1600E+02
      1.841 -0.1878E-10  0.1600E+02
      1.913 -0.3771E-12  0.1600E+02
      1.984 -0.6183E-14  0.1600E+02
      2.056  0.0000E+00  0.1600E+02
      2.128  0.0000E+00  0.1600E+02
      2.200  0.0000E+00  0.1600E+02
      2.272  0.0000E+00  0.1600E+02
      2.343  0.0000E+00  0.1600E+02
      2.415  0.0000E+00  0.1600E+02
      2.487  0.0000E+00  0.1600E+02
      2.559  0.0000E+00  0.1600E+02
      2.631  0.0000E+00  0.1600E+02
      2.703  0.0000E+00  0.1600E+02
      2.70222950    -18.81509487  301     -8.92585106      1.00000000
    -18.815  0.0000E+00  0.0000E+00
    -18.743  0.0000E+00  0.0000E+00
    -18.672  0.0000E+00  0.0000E+00
    -18.600  0.0000E+00  0.0000E+00
    -18.528  0.0000E+00  0.0000E+00
    -18.456 -0.3620E-27 -0.2596E-28
    -18.385 -0.1092E-24 -0.7861E-26
    -18.313 -0.2550E-22 -0.1837E-23
    -18.241 -0.4590E-20 -0.3310E-21
    -18.170 -0.6369E-18 -0.4601E-19
    -18.098 -0.6811E-16 -0.4931E-17
    -18.026 -0.5611E-14 -0.4074E-15
    -17.954 -0.3450E-12 -0.2515E-13
    -17.883 -0.1676E-10 -0.1227E-11
    -17.811 -0.6251E-09 -0.4606E-10
    -17.739 -0.1787E-07 -0.1328E-08
    -17.668 -0.3911E-06 -0.2938E-07
    -17.596 -0.6530E-05 -0.4977E-06
    -17.524 -0.8289E-04 -0.6443E-05
    -17.452 -0.7955E-03 -0.6350E-04
    -17.381 -0.5724E-02 -0.4740E-03
    -17.309 -0.3044E-01 -0.2657E-02
    -17.237 -0.1165E+00 -0.1101E-01
    -17.165 -0.3024E+00 -0.3271E-01
    -17.094 -0.4369E+00 -0.6404E-01
    -17.022  0.1025E+00 -0.5669E-01
    -16.950  0.2152E+01  0.9768E-01
    -16.879  0.5496E+01  0.4918E+00
    -16.807  0.8061E+01  0.1070E+01
    -16.735  0.7678E+01  0.1621E+01
    -16.663  0.4694E+01  0.1957E+01
    -16.592  0.1526E+01  0.2067E+01
    -16.520 -0.1309E+00  0.2057E+01
    -16.448 -0.4342E+00  0.2026E+01
    -16.376 -0.2527E+00  0.2008E+01
    -16.305 -0.8821E-01  0.2002E+01
    -16.233 -0.2128E-01  0.2000E+01
    -16.161 -0.3726E-02  0.2000E+01
    -16.090 -0.4841E-03  0.2000E+01
    -16.018 -0.4725E-04  0.2000E+01
    -15.946 -0.3493E-05  0.2000E+01
    -15.874 -0.1965E-06  0.2000E+01
    -15.803 -0.8441E-08  0.2000E+01
    -15.731 -0.2776E-09  0.2000E+01
    -15.659 -0.7003E-11  0.2000E+01
    -15.587 -0.1362E-12  0.2000E+01
    -15.516  0.0000E+00  0.2000E+01
    -15.444  0.0000E+00  0.2000E+01
    -15.372  0.0000E+00  0.2000E+01
    -15.301  0.0000E+00  0.2000E+01
    -15.229  0.0000E+00  0.2000E+01
    -15.157  0.0000E+00  0.2000E+01
    -15.085  0.0000E+00  0.2000E+01
    -15.014  0.0000E+00  0.2000E+01
    -14.942  0.0000E+00  0.2000E+01
    -14.870  0.0000E+00  0.2000E+01
    -14.799  0.0000E+00  0.2000E+01
    -14.727  0.0000E+00  0.2000E+01
    -14.655  0.0000E+00  0.2000E+01
    -14.583  0.0000E+00  0.2000E+01
    -14.512  0.0000E+00  0.2000E+01
    -14.440  0.0000E+00  0.2000E+01
    -14.368  0.0000E+00  0.2000E+01
    -14.296  0.0000E+00  0.2000E+01
    -14.225  0.0000E+00  0.2000E+01
    -14.153  0.0000E+00  0.2000E+01
    -14.081  0.0000E+00  0.2000E+01
    -14.010  0.0000E+00  0.2000E+01
    -13.938  0.0000E+00  0.2000E+01
    -13.866  0.0000E+00  0.2000E+01
    -13.794  0.0000E+00  0.2000E+01
    -13.723  0.0000E+00  0.2000E+01
    -13.651  0.0000E+00  0.2000E+01
    -13.579  0.0000E+00  0.2000E+01
    -13.507  0.0000E+00  0.2000E+01
    -13.436  0.0000E+00  0.2000E+01
    -13.364  0.0000E+00  0.2000E+01
    -13.292  0.0000E+00  0.2000E+01
    -13.221  0.0000E+00  0.2000E+01
    -13.149  0.0000E+00  0.2000E+01
    -13.077  0.0000E+00  0.2000E+01
    -13.005  0.0000E+00  0.2000E+01
    -12.934  0.0000E+00  0.2000E+01
    -12.862  0.0000E+00  0.2000E+01
    -12.790  0.0000E+00  0.2000E+01
    -12.719  0.0000E+00  0.2000E+01
    -12.647  0.0000E+00  0.2000E+01
    -12.575  0.0000E+00  0.2000E+01
    -12.503  0.0000E+00  0.2000E+01
    -12.432  0.0000E+00  0.2000E+01
    -12.360  0.0000E+00  0.2000E+01
    -12.288  0.0000E+00  0.2000E+01
    -12.216  0.0000E+00  0.2000E+01
    -12.145  0.0000E+00  0.2000E+01
    -12.073  0.0000E+00  0.2000E+01
    -12.001  0.0000E+00  0.2000E+01
    -11.930  0.0000E+00  0.2000E+01
    -11.858  0.0000E+00  0.2000E+01
    -11.786  0.0000E+00  0.2000E+01
    -11.714  0.0000E+00  0.2000E+01
    -11.643  0.0000E+00  0.2000E+01
    -11.571  0.0000E+00  0.2000E+01
    -11.499  0.0000E+00  0.2000E+01
    -11.427  0.0000E+00  0.2000E+01
    -11.356  0.0000E+00  0.2000E+01
    -11.284  0.0000E+00  0.2000E+01
    -11.212  0.0000E+00  0.2000E+01
    -11.141 -0.1130E-26  0.2000E+01
    -11.069 -0.3242E-24  0.2000E+01
    -10.997 -0.7191E-22  0.2000E+01
    -10.925 -0.1230E-19  0.2000E+01
    -10.854 -0.1622E-17  0.2000E+01
    -10.782 -0.1649E-15  0.2000E+01
    -10.710 -0.1290E-13  0.2000E+01
    -10.639 -0.7527E-12  0.2000E+01
    -10.567 -0.3475E-10  0.2000E+01
    -10.495 -0.1230E-08  0.2000E+01
    -10.423 -0.3339E-07  0.2000E+01
    -10.352 -0.6932E-06  0.2000E+01
    -10.280 -0.1097E-04  0.2000E+01
    -10.208 -0.1319E-03  0.2000E+01
    -10.136 -0.1198E-02  0.2000E+01
    -10.065 -0.8135E-02  0.1999E+01
     -9.993 -0.4067E-01  0.1996E+01
     -9.921 -0.1452E+00  0.1986E+01
     -9.850 -0.3445E+00  0.1961E+01
     -9.778 -0.4136E+00  0.1932E+01
     -9.706  0.3609E+00  0.1957E+01
     -9.634  0.2713E+01  0.2152E+01
     -9.563  0.6006E+01  0.2583E+01
     -9.491  0.7844E+01  0.3145E+01
     -9.419  0.6484E+01  0.3611E+01
     -9.347  0.3589E+01  0.3868E+01
     -9.276  0.3155E+01  0.4094E+01
     -9.204  0.7248E+01  0.4614E+01
     -9.132  0.1319E+02  0.5560E+01
     -9.061  0.1573E+02  0.6689E+01
     -8.989  0.1248E+02  0.7584E+01
     -8.917  0.6239E+01  0.8032E+01
     -8.845  0.1343E+01  0.8128E+01
     -8.774 -0.6085E+00  0.8084E+01
     -8.702 -0.6999E+00  0.8034E+01
     -8.630 -0.3398E+00  0.8010E+01
     -8.559 -0.1071E+00  0.8002E+01
     -8.487 -0.2403E-01  0.8000E+01
     -8.415 -0.3974E-02  0.8000E+01
     -8.343 -0.4928E-03  0.8000E+01
     -8.272 -0.4627E-04  0.8000E+01
     -8.200 -0.3308E-05  0.8000E+01
     -8.128 -0.1807E-06  0.8000E+01
     -8.056 -0.7568E-08  0.8000E+01
     -7.985 -0.2432E-09  0.8000E+01
     -7.913 -0.6015E-11  0.8000E+01
     -7.841 -0.1114E-12  0.8000E+01
     -7.770  0.0000E+00  0.8000E+01
     -7.698  0.0000E+00  0.8000E+01
     -7.626  0.0000E+00  0.8000E+01
     -7.554  0.0000E+00  0.8000E+01
     -7.483  0.0000E+00  0.8000E+01
     -7.411  0.0000E+00  0.8000E+01
     -7.339  0.0000E+00  0.8000E+01
     -7.267  0.0000E+00  0.8000E+01
     -7.196  0.0000E+00  0.8000E+01
     -7.124  0.0000E+00  0.8000E+01
     -7.052  0.0000E+00  0.8000E+01
     -6.981  0.0000E+00  0.8000E+01
     -6.909  0.0000E+00  0.8000E+01
     -6.837  0.0000E+00  0.8000E+01
     -6.765  0.0000E+00  0.8000E+01
     -6.694  0.0000E+00  0.8000E+01
     -6.622  0.0000E+00  0.8000E+01
     -6.550  0.0000E+00  0.8000E+01
     -6.478  0.0000E+00  0.8000E+01
     -6.407  0.0000E+00  0.8000E+01
     -6.335  0.0000E+00  0.8000E+01
     -6.263  0.0000E+00  0.8000E+01
     -6.192  0.0000E+00  0.8000E+01
     -6.120  0.0000E+00  0.8000E+01
     -6.048  0.0000E+00  0.8000E+01
     -5.976  0.0000E+00  0.8000E+01
     -5.905  0.0000E+00  0.8000E+01
     -5.833  0.0000E+00  0.8000E+01
     -5.761  0.0000E+00  0.8000E+01
     -5.690  0.0000E+00  0.8000E+01
     -5.618  0.0000E+00  0.8000E+01
     -5.546  0.0000E+00  0.8000E+01
     -5.474  0.0000E+00  0.8000E+01
     -5.403  0.0000E+00  0.8000E+01
     -5.331  0.0000E+00  0.8000E+01
     -5.259  0.0000E+00  0.8000E+01
     -5.187  0.0000E+00  0.8000E+01
     -5.116  0.0000E+00  0.8000E+01
     -5.044  0.0000E+00  0.8000E+01
     -4.972  0.0000E+00  0.8000E+01
     -4.901  0.0000E+00  0.8000E+01
     -4.829  0.0000E+00  0.8000E+01
     -4.757  0.0000E+00  0.8000E+01
     -4.685  0.0000E+00  0.8000E+01
     -4.614  0.0000E+00  0.8000E+01
     -4.542  0.0000E+00  0.8000E+01
     -4.470  0.0000E+00  0.8000E+01
     -4.398  0.0000E+00  0.8000E+01
     -4.327  0.0000E+00  0.8000E+01
     -4.255  0.0000E+00  0.8000E+01
     -4.183  0.0000E+00  0.8000E+01
     -4.112  0.0000E+00  0.8000E+01
     -4.040  0.0000E+00  0.8000E+01
     -3.968  0.0000E+00  0.8000E+01
     -3.896  0.0000E+00  0.8000E+01
     -3.825  0.0000E+00  0.8000E+01
     -3.753  0.0000E+00  0.8000E+01
     -3.681  0.0000E+00  0.8000E+01
     -3.610  0.0000E+00  0.8000E+01
     -3.538  0.0000E+00  0.8000E+01
     -3.466  0.0000E+00  0.8000E+01
     -3.394  0.0000E+00  0.8000E+01
     -3.323  0.0000E+00  0.8000E+01
     -3.251  0.0000E+00  0.8000E+01
     -3.179  0.0000E+00  0.8000E+01
     -3.107  0.0000E+00  0.8000E+01