    5    5    1    1
  0.2000000E+03  0.1000000E-08  0.1000000E-08  0.1000000E-08  0.2000000E-14
   50.000000000000000     
  CAR 
 unknown system                          
      8      4      8

  0.2500000E+00  0.2500000E+00  0.2500000E+00  0.2500000E+00
    1      -16.926867   1.000000
    2       -9.626774   1.000001
    3       -9.291697   1.005714
    4       -9.035133   0.994277
    5       -0.327269   0.000000
    6        0.572185   0.000000
    7        0.660618   0.000000
    8        0.705074   0.000000

 -0.2500000E+00  0.2500000E+00  0.2500000E+00  0.2500000E+00
    1      -16.926818   1.000000
    2       -9.626753   1.000001
    3       -9.291817   1.005702
    4       -9.035124   0.994266
    5       -0.326779   0.000000
    6        0.556376   0.000000
    7        0.671599   0.000000
    8        0.706062   0.000000

  0.2500000E+00 -0.2500000E+00  0.2500000E+00  0.2500000E+00
    1      -16.926807   1.000000
    2       -9.626754   1.000001
    3       -9.291789   1.005705
    4       -9.035241   0.994406
    5       -0.326242   0.000000
    6        0.549863   0.000000
    7        0.668003   0.000000
    8        0.716870   0.000000

 -0.2500000E+00 -0.2500000E+00  0.2500000E+00  0.2500000E+00
    1      -16.926771   1.000000
    2       -9.626780   1.000001
    3       -9.291809   1.005703
    4       -9.035090   0.994225
    5       -0.326458   0.000000
    6        0.550098   0.000000
    7        0.672012   0.000000
    8        0.718038   0.000000
