 vasp.5.4.4.18Apr17-6-g9f103f2a35 (build Jul 12 2018 13:43:46) complex           
 executed on             LinuxGNU date 2019.06.22  02:17:32
 running on    1 total cores
 distrk:  each k-point on    1 cores,    1 groups
 distr:  one band on NCORES_PER_BAND=   1 cores,    1 groups


--------------------------------------------------------------------------------------------------------


 INCAR:
 POTCAR:    PAW_PBE H 15Jun2001                   
 POTCAR:    PAW_PBE C 08Apr2002                   
 POTCAR:    PAW_PBE H 15Jun2001                   
   VRHFIN =H: ultrasoft test                                                    
   LEXCH  = PE                                                                  
   EATOM  =    12.4884 eV,    0.9179 Ry                                         
                                                                                
   TITEL  = PAW_PBE H 15Jun2001                                                 
   LULTRA =        F    use ultrasoft PP ?                                      
   IUNSCR =        0    unscreen: 0-lin 1-nonlin 2-no                           
   RPACOR =    0.000    partial core radius                                     
   POMASS =    1.000; ZVAL   =    1.000    mass and valenz                      
   RCORE  =    1.100    outmost cutoff radius                                   
   RWIGS  =    0.700; RWIGS  =    0.370    wigner-seitz radius (au A)           
   ENMAX  =  250.000; ENMIN  =  200.000 eV                                      
   RCLOC  =    0.701    cutoff for local pot                                    
   LCOR   =        T    correct aug charges                                     
   LPAW   =        T    paw PP                                                  
   EAUG   =  400.000                                                            
   RMAX   =    1.123    core radius for proj-oper                               
   RAUG   =    1.200    factor for augmentation sphere                          
   RDEP   =    1.112    radius for radial grids                                 
   RDEPT  =    0.926    core radius for aug-charge                              
                                                                                
   Atomic configuration                                                         
    2 entries                                                                   
     n  l   j            E        occ.                                          
     1  0  0.50        -6.4927   1.0000                                         
     2  1  0.50        -3.4015   0.0000                                         
   Description                                                                  
     l       E           TYP  RCUT    TYP  RCUT                                 
     0     -6.4927494     23  1.100                                             
     0      6.8029130     23  1.100                                             
     1     -4.0817478     23  1.100                                             
  local pseudopotential read in
  atomic valenz-charges read in
  non local Contribution for L=           0  read in
    real space projection operators read in
  non local Contribution for L=           0  read in
    real space projection operators read in
  non local Contribution for L=           1  read in
    real space projection operators read in
    PAW grid and wavefunctions read in

   number of l-projection  operators is LMAX  =           3
   number of lm-projection operators is LMMAX =           5

 POTCAR:    PAW_PBE C 08Apr2002                   
   VRHFIN =C: s2p2                                                              
   LEXCH  = PE                                                                  
   EATOM  =   147.1560 eV,   10.8157 Ry                                         
                                                                                
   TITEL  = PAW_PBE C 08Apr2002                                                 
   LULTRA =        F    use ultrasoft PP ?                                      
   IUNSCR =        1    unscreen: 0-lin 1-nonlin 2-no                           
   RPACOR =    1.200    partial core radius                                     
   POMASS =   12.011; ZVAL   =    4.000    mass and valenz                      
   RCORE  =    1.500    outmost cutoff radius                                   
   RWIGS  =    1.630; RWIGS  =    0.863    wigner-seitz radius (au A)           
   ENMAX  =  400.000; ENMIN  =  300.000 eV                                      
   ICORE  =        2    local potential                                         
   LCOR   =        T    correct aug charges                                     
   LPAW   =        T    paw PP                                                  
   EAUG   =  644.873                                                            
   DEXC   =    0.000                                                            
   RMAX   =    1.529    core radius for proj-oper                               
   RAUG   =    1.300    factor for augmentation sphere                          
   RDEP   =    1.501    radius for radial grids                                 
   RDEPT  =    1.300    core radius for aug-charge                              
                                                                                
   Atomic configuration                                                         
    4 entries                                                                   
     n  l   j            E        occ.                                          
     1  0  0.50      -273.3789   2.0000                                         
     2  0  0.50       -13.7508   2.0000                                         
     2  1  0.50        -5.2854   2.0000                                         
     3  2  1.50        -5.4423   0.0000                                         
   Description                                                                  
     l       E           TYP  RCUT    TYP  RCUT                                 
     0    -13.7508458     23  1.200                                             
     0     -8.2022199     23  1.200                                             
     1     -5.2854383     23  1.500                                             
     1     34.0145650     23  1.500                                             
     2     -5.4423304      7  1.500                                             
  local pseudopotential read in
  partial core-charges read in
  partial kinetic energy density read in
  atomic valenz-charges read in
  non local Contribution for L=           0  read in
    real space projection operators read in
  non local Contribution for L=           0  read in
    real space projection operators read in
  non local Contribution for L=           1  read in
    real space projection operators read in
  non local Contribution for L=           1  read in
    real space projection operators read in
    PAW grid and wavefunctions read in

   number of l-projection  operators is LMAX  =           4
   number of lm-projection operators is LMMAX =           8


 ----------------------------------------------------------------------------- 
|                                                                             |
|  ADVICE TO THIS USER RUNNING 'VASP/VAMP'   (HEAR YOUR MASTER'S VOICE ...):  |
|                                                                             |
|      You have a (more or less) 'small supercell' and for smaller cells      |
|      it is recommended  to use the reciprocal-space projection scheme!      |
|      The real space optimization is not  efficient for small cells and it   |
|      is also less accurate ...                                              |
|      Therefore set LREAL=.FALSE. in the  INCAR file                         |
|                                                                             |
 ----------------------------------------------------------------------------- 


 ----------------------------------------------------------------------------- 
|                                                                             |
|           W    W    AA    RRRRR   N    N  II  N    N   GGGG   !!!           |
|           W    W   A  A   R    R  NN   N  II  NN   N  G    G  !!!           |
|           W    W  A    A  R    R  N N  N  II  N N  N  G       !!!           |
|           W WW W  AAAAAA  RRRRR   N  N N  II  N  N N  G  GGG   !            |
|           WW  WW  A    A  R   R   N   NN  II  N   NN  G    G                |
|           W    W  A    A  R    R  N    N  II  N    N   GGGG   !!!           |
|                                                                             |
|     The real-space-projection scheme for the treatment of the nonlocal      |
|     pseudopotentials has been switched on -- but on file POTCAR I have      |
|     not found any entries signalling me that you have ever performed a      |
|     real-space optimization of all nonlocal projectors! BE WARNED that      |
|     a calculation using the real-space-projection scheme together with      |
|     nonlocal projectors which were not real-space-optimized (according      |
|     to the plane-wave-cutoff used in this calculation) might give more      |
|     or less inaccurate results                                              |
|     I hope you know what you are doing                                      |
|                                                                             |
 ----------------------------------------------------------------------------- 

  PAW_PBE H 15Jun2001                   :
 energy of atom  1       EATOM=  -12.4884
 kinetic energy error for atom=    0.0098 (will be added to EATOM!!)
  PAW_PBE C 08Apr2002                   :
 energy of atom  2       EATOM= -147.1560
 kinetic energy error for atom=    0.0288 (will be added to EATOM!!)


 POSCAR: POSCAR file written by OVITO            
  positions in direct lattice
  velocities in cartesian coordinates
 exchange correlation table for  LEXCH =        8
   RHO(1)=    0.500       N(1)  =     2000
   RHO(2)=  100.500       N(2)  =     4000



--------------------------------------------------------------------------------------------------------


 ion  position               nearest neighbor table
   1  0.538  0.407  0.361-   5 1.10
   2  0.395  0.480  0.438-   5 1.10
   3  0.552  0.565  0.443-   5 1.10
   4  0.528  0.416  0.539-   5 1.10
   5  0.503  0.467  0.445-   1 1.10   4 1.10   3 1.10   2 1.10


IMPORTANT INFORMATION: All symmetrisations will be switched off!
NOSYMM: (Re-)initialisation of all symmetry stuff for point group C_1.




Automatic generation of k-mesh.
 generate k-points for:    2    2    2
Space group operators:
 irot       det(A)        alpha          n_x          n_y          n_z        tau_x        tau_y        tau_z
    1     1.000000     0.000000     1.000000     0.000000     0.000000     0.000000     0.000000     0.000000
 
 Subroutine IBZKPT returns following result:
 ===========================================
 
 Found      4 irreducible k-points:
 
 Following reciprocal coordinates:
            Coordinates               Weight
  0.250000  0.250000  0.250000      2.000000
 -0.250000  0.250000  0.250000      2.000000
  0.250000 -0.250000  0.250000      2.000000
 -0.250000 -0.250000  0.250000      2.000000
 
 Following cartesian coordinates:
            Coordinates               Weight
  0.025000  0.025000  0.025000      2.000000
 -0.025000  0.025000  0.025000      2.000000
  0.025000 -0.025000  0.025000      2.000000
 -0.025000 -0.025000  0.025000      2.000000
 


--------------------------------------------------------------------------------------------------------




 Dimension of arrays:
   k-points           NKPTS =      4   k-points in BZ     NKDIM =      4   number of bands    NBANDS=      8
   number of dos      NEDOS =    301   number of ions     NIONS =      5
   non local maximal  LDIM  =      4   non local SUM 2l+1 LMDIM =      8
   total plane-waves  NPLWV = 343000
   max r-space proj   IRMAX =    810   max aug-charges    IRDMAX=   4247
   dimension x,y,z NGX =    70 NGY =   70 NGZ =   70
   dimension x,y,z NGXF=   140 NGYF=  140 NGZF=  140
   support grid    NGXF=   140 NGYF=  140 NGZF=  140
   ions per type =               4   1
   NGX,Y,Z   is equivalent  to a cutoff of  11.64, 11.64, 11.64 a.u.
   NGXF,Y,Z  is equivalent  to a cutoff of  23.27, 23.27, 23.27 a.u.

 SYSTEM =  unknown system                          
 POSCAR =  POSCAR file written by OVITO            

 Startparameter for this run:
   NWRITE =      2    write-flag & timer
   PREC   = a         normal or accurate (medium, high low for compatibility)
   ISTART =      0    job   : 0-new  1-cont  2-samecut
   ICHARG =      2    charge: 1-file 2-atom 10-const
   ISPIN  =      1    spin polarized calculation?
   LNONCOLLINEAR =      F non collinear calculations
   LSORBIT =      F    spin-orbit coupling
   INIWAV =      1    electr: 0-lowe 1-rand  2-diag
   LASPH  =      F    aspherical Exc in radial PAW
   METAGGA=      F    non-selfconsistent MetaGGA calc.

 Electronic Relaxation 1
   ENCUT  =  400.0 eV  29.40 Ry    5.42 a.u.  16.31 16.31 16.31*2*pi/ulx,y,z
   ENINI  =  400.0     initial cutoff
   ENAUG  =  644.9 eV  augmentation charge cutoff
   NELM   =     60;   NELMIN=  2; NELMDL= -5     # of ELM steps 
   EDIFF  = 0.1E-05   stopping-criterion for ELM
   LREAL  =      T    real-space projection
   NLSPLINE    = F    spline interpolate recip. space projectors
   LCOMPAT=      F    compatible to vasp.4.4
   GGA_COMPAT  = T    GGA compatible to vasp.4.4-vasp.4.6
   LMAXPAW     = -100 max onsite density
   LMAXMIX     =    2 max onsite mixed and CHGCAR
   VOSKOWN=      0    Vosko Wilk Nusair interpolation
   ROPT   =    0.00000   0.00000
 Ionic relaxation
   EDIFFG = 0.1E-04   stopping-criterion for IOM
   NSW    =     10    number of steps for IOM
   NBLOCK =      1;   KBLOCK =      1    inner block; outer block 
   IBRION =      0    ionic relax: 0-MD 1-quasi-New 2-CG
   NFREE  =      0    steps in history (QN), initial steepest desc. (CG)
   ISIF   =      2    stress and relaxation
   IWAVPR =     12    prediction:  0-non 1-charg 2-wave 3-comb
   ISYM   =      0    0-nonsym 1-usesym 2-fastsym
   LCORR  =      T    Harris-Foulkes like correction to forces

   POTIM  = 2.0000    time-step for ionic-motion
   TEIN   =    0.0    initial temperature
   TEBEG  =   50.0;   TEEND  =  50.0 temperature during run
   SMASS  =   0.00    Nose mass-parameter (am)
   estimated Nose-frequenzy (Omega)   =  0.79E+14 period in steps = 40.00 mass=   0.123E-29a.u.
   SCALEE = 1.0000    scale energy and forces
   NPACO  =    256;   APACO  = 16.0  distance and # of slots for P.C.
   PSTRESS=    0.0 pullay stress

  Mass of Ions in am
   POMASS =   1.00 12.01
  Ionic Valenz
   ZVAL   =   1.00  4.00
  Atomic Wigner-Seitz radii
   RWIGS  =  -1.00 -1.00
  virtual crystal weights 
   VCA    =   1.00  1.00
   NELECT =       8.0000    total number of electrons
   NUPDOWN=      -1.0000    fix difference up-down

 DOS related values:
   EMIN   =  10.00;   EMAX   =-10.00  energy-range for DOS
   EFERMI =   0.00
   ISMEAR =     1;   SIGMA  =   0.20  broadening in eV -4-tet -1-fermi 0-gaus

 Electronic relaxation 2 (details)
   IALGO  =     68    algorithm
   LDIAG  =      T    sub-space diagonalisation (order eigenvalues)
   LSUBROT=      F    optimize rotation matrix (better conditioning)
   TURBO    =      0    0=normal 1=particle mesh
   IRESTART =      0    0=no restart 2=restart with 2 vectors
   NREBOOT  =      0    no. of reboots
   NMIN     =      0    reboot dimension
   EREF     =   0.00    reference energy to select bands
   IMIX   =      4    mixing-type and parameters
     AMIX     =   0.40;   BMIX     =  1.00
     AMIX_MAG =   1.60;   BMIX_MAG =  1.00
     AMIN     =   0.10
     WC   =   100.;   INIMIX=   1;  MIXPRE=   1;  MAXMIX=  50

 Intra band minimization:
   WEIMIN = 0.0010     energy-eigenvalue tresh-hold
   EBREAK =  0.31E-07  absolut break condition
   DEPER  =   0.30     relativ break condition  

   TIME   =   0.40     timestep for ELM

  volume/ion in A,a.u.               =     200.00      1349.67
  Fermi-wavevector in a.u.,A,eV,Ry     =   0.327420  0.618734  1.458594  0.107204
  Thomas-Fermi vector in A             =   1.220131

 Write flags
   LWAVE        =      F    write WAVECAR
   LDOWNSAMPLE  =      F    k-point downsampling of WAVECAR
   LCHARG       =      F    write CHGCAR
   LVTOT        =      F    write LOCPOT, total local potential
   LVHAR        =      F    write LOCPOT, Hartree potential only
   LELF         =      F    write electronic localiz. function (ELF)
   LORBIT       =      0    0 simple, 1 ext, 2 COOP (PROOUT), +10 PAW based schemes


 Dipole corrections
   LMONO  =      F    monopole corrections only (constant potential shift)
   LDIPOL =      F    correct potential (dipole corrections)
   IDIPOL =      0    1-x, 2-y, 3-z, 4-all directions 
   EPSILON=  1.0000000 bulk dielectric constant

 Exchange correlation treatment:
   GGA     =    --    GGA type
   LEXCH   =     8    internal setting for exchange type
   VOSKOWN=      0    Vosko Wilk Nusair interpolation
   LHFCALC =     F    Hartree Fock is set to
   LHFONE  =     F    Hartree Fock one center treatment
   AEXX    =    0.0000 exact exchange contribution

 Linear response parameters
   LEPSILON=     F    determine dielectric tensor
   LRPA    =     F    only Hartree local field effects (RPA)
   LNABLA  =     F    use nabla operator in PAW spheres
   LVEL    =     F    velocity operator in full k-point grid
   LINTERFAST=   F  fast interpolation
   KINTER  =     0    interpolate to denser k-point grid
   CSHIFT  =0.1000    complex shift for real part using Kramers Kronig
   OMEGAMAX=  -1.0    maximum frequency
   DEG_THRESHOLD= 0.2000000E-02 threshold for treating states as degnerate
   RTIME   =   -0.100 relaxation time in fs
  (WPLASMAI=    0.000 imaginary part of plasma frequency in eV, 0.658/RTIME)
   DFIELD  = 0.0000000 0.0000000 0.0000000 field for delta impulse in time

 Orbital magnetization related:
   ORBITALMAG=     F  switch on orbital magnetization
   LCHIMAG   =     F  perturbation theory with respect to B field
   DQ        =  0.001000  dq finite difference perturbation B field
   LLRAUG    =     F  two centre corrections for induced B field



--------------------------------------------------------------------------------------------------------


 molecular dynamics for ions
   using nose mass (canonical ensemble)
 charge density and potential will be updated during run
 non-spin polarized calculation
 RMM-DIIS sequential band-by-band and
  variant of blocked Davidson during initial phase
 perform sub-space diagonalisation
    before iterative eigenvector-optimisation
 modified Broyden-mixing scheme, WC =      100.0
 initial mixing is a Kerker type mixing with AMIX =  0.4000 and BMIX =      1.0000
 Hartree-type preconditioning will be used
 using additional bands            4
 real space projection scheme for non local part
 use partial core corrections
 calculate Harris-corrections to forces   (improved forces if not selfconsistent)
 use gradient corrections 
 use of overlap-Matrix (Vanderbilt PP)
 Methfessel and Paxton  Order N= 1 SIGMA  =   0.20


--------------------------------------------------------------------------------------------------------


  energy-cutoff  :      400.00
  volume of cell :     1000.00
      direct lattice vectors                 reciprocal lattice vectors
    10.000000000  0.000000000  0.000000000     0.100000000  0.000000000  0.000000000
     0.000000000 10.000000000  0.000000000     0.000000000  0.100000000  0.000000000
     0.000000000  0.000000000 10.000000000     0.000000000  0.000000000  0.100000000

  length of vectors
    10.000000000 10.000000000 10.000000000     0.100000000  0.100000000  0.100000000



 k-points in units of 2pi/SCALE and weight: read from INCAR                         
   0.02500000  0.02500000  0.02500000       0.250
  -0.02500000  0.02500000  0.02500000       0.250
   0.02500000 -0.02500000  0.02500000       0.250
  -0.02500000 -0.02500000  0.02500000       0.250

 k-points in reciprocal lattice and weights: read from INCAR                         
   0.25000000  0.25000000  0.25000000       0.250
  -0.25000000  0.25000000  0.25000000       0.250
   0.25000000 -0.25000000  0.25000000       0.250
  -0.25000000 -0.25000000  0.25000000       0.250

 position of ions in fractional coordinates (direct lattice) 
   0.53815434  0.40686080  0.36057301
   0.39453966  0.48032057  0.43846884
   0.55209243  0.56545029  0.44270874
   0.52818530  0.41641476  0.53918266
   0.50325059  0.46725516  0.44523234

 position of ions in cartesian coordinates  (Angst):
   5.38154339  4.06860801  3.60573014
   3.94539656  4.80320569  4.38468840
   5.52092428  5.65450285  4.42708738
   5.28185305  4.16414755  5.39182657
   5.03250593  4.67255160  4.45232341



--------------------------------------------------------------------------------------------------------


 k-point  1 :   0.2500 0.2500 0.2500  plane waves:   18127
 k-point  2 :  -0.2500 0.2500 0.2500  plane waves:   18127
 k-point  3 :   0.2500-0.2500 0.2500  plane waves:   18127
 k-point  4 :  -0.2500-0.2500 0.2500  plane waves:   18127

 maximum and minimum number of plane-waves per node :     18127    18127

 maximum number of plane-waves:     18127
 maximum index in each direction: 
   IXMAX=   16   IYMAX=   16   IZMAX=   16
   IXMIN=  -16   IYMIN=  -16   IZMIN=  -16


 serial   3D FFT for wavefunctions
 parallel 3D FFT for charge:
    minimum data exchange during FFTs selected (reduces bandwidth)


 total amount of memory used by VASP MPI-rank0   303207. kBytes
=======================================================================

   base      :      30000. kBytes
   nonlr-proj:        167. kBytes
   fftplans  :      94700. kBytes
   grid      :     169030. kBytes
   one-center:         15. kBytes
   wavefun   :       9295. kBytes

     INWAV:  cpu time    0.0000: real time    0.0000
 Broyden mixing: mesh for mixing (old mesh)
   NGX = 33   NGY = 33   NGZ = 33
  (NGX  =140   NGY  =140   NGZ  =140)
  gives a total of  35937 points

 initial charge density was supplied:
 charge density of overlapping atoms calculated
 number of electron       8.0000000 magnetization 
 keeping initial charge density in first step


--------------------------------------------------------------------------------------------------------


 Maximum index for non-local projection operator          739
 Maximum index for augmentation-charges         3932 (set IRDMAX)


--------------------------------------------------------------------------------------------------------


 First call to EWALD:  gamma=   0.177
 Maximum number of real-space cells 3x 3x 3
 Maximum number of reciprocal cells 3x 3x 3

    FEWALD:  cpu time    0.0007: real time    0.0007


--------------------------------------- Iteration      1(   1)  ---------------------------------------


    POTLOK:  cpu time    1.7477: real time    1.7521
    SETDIJ:  cpu time    0.0067: real time    0.0067
     EDDAV:  cpu time    2.8873: real time    2.8941
       DOS:  cpu time    0.0003: real time    0.0003
    --------------------------------------------
      LOOP:  cpu time    4.6420: real time    4.6531

 eigenvalue-minimisations  :    96
 total energy-change (2. order) : 0.1394724E+02  (-0.2036946E+03)
 number of electron       8.0000000 magnetization 
 augmentation part        8.0000000 magnetization 

 Free energy of the ion-electron system (eV)
  ---------------------------------------------------
  alpha Z        PSCENC =         0.24225079
  Ewald energy   TEWEN  =       128.68270354
  -Hartree energ DENC   =      -243.96695942
  -exchange      EXHF   =         0.00000000
  -V(xc)+E(xc)   XCENC  =        22.00907816
  PAW double counting   =       117.05815612     -117.66307307
  entropy T*S    EENTRO =         0.00289895
  eigenvalues    EBANDS =       -89.45957065
  atomic energy  EATOM  =       197.04175453
  Solvation  Ediel_sol  =         0.00000000
  ---------------------------------------------------
  free energy    TOTEN  =        13.94723895 eV

  energy without entropy =       13.94434000  energy(sigma->0) =       13.94627264


--------------------------------------------------------------------------------------------------------




--------------------------------------- Iteration      1(   2)  ---------------------------------------


     EDDAV:  cpu time    2.1876: real time    2.1929
       DOS:  cpu time    0.0002: real time    0.0002
    --------------------------------------------
      LOOP:  cpu time    2.1878: real time    2.1931

 eigenvalue-minimisations  :    64
 total energy-change (2. order) :-0.3694327E+02  (-0.3694328E+02)
 number of electron       8.0000000 magnetization 
 augmentation part        8.0000000 magnetization 

 Free energy of the ion-electron system (eV)
  ---------------------------------------------------
  alpha Z        PSCENC =         0.24225079
  Ewald energy   TEWEN  =       128.68270354
  -Hartree energ DENC   =      -243.96695942
  -exchange      EXHF   =         0.00000000
  -V(xc)+E(xc)   XCENC  =        22.00907816
  PAW double counting   =       117.05815612     -117.66307307
  entropy T*S    EENTRO =         0.00297259
  eigenvalues    EBANDS =      -126.40291796
  atomic energy  EATOM  =       197.04175453
  Solvation  Ediel_sol  =         0.00000000
  ---------------------------------------------------
  free energy    TOTEN  =       -22.99603471 eV

  energy without entropy =      -22.99900731  energy(sigma->0) =      -22.99702558


--------------------------------------------------------------------------------------------------------




--------------------------------------- Iteration      1(   3)  ---------------------------------------


     EDDAV:  cpu time    2.1859: real time    2.1911
       DOS:  cpu time    0.0002: real time    0.0002
    --------------------------------------------
      LOOP:  cpu time    2.1861: real time    2.1913

 eigenvalue-minimisations  :    64
 total energy-change (2. order) :-0.4363100E+01  (-0.4392649E+01)
 number of electron       8.0000000 magnetization 
 augmentation part        8.0000000 magnetization 

 Free energy of the ion-electron system (eV)
  ---------------------------------------------------
  alpha Z        PSCENC =         0.24225079
  Ewald energy   TEWEN  =       128.68270354
  -Hartree energ DENC   =      -243.96695942
  -exchange      EXHF   =         0.00000000
  -V(xc)+E(xc)   XCENC  =        22.00907816
  PAW double counting   =       117.05815612     -117.66307307
  entropy T*S    EENTRO =         0.03721284
  eigenvalues    EBANDS =      -130.80025847
  atomic energy  EATOM  =       197.04175453
  Solvation  Ediel_sol  =         0.00000000
  ---------------------------------------------------
  free energy    TOTEN  =       -27.35913497 eV

  energy without entropy =      -27.39634781  energy(sigma->0) =      -27.37153925


--------------------------------------------------------------------------------------------------------




--------------------------------------- Iteration      1(   4)  ---------------------------------------


     EDDAV:  cpu time    3.9228: real time    3.9322
       DOS:  cpu time    0.0002: real time    0.0002
    --------------------------------------------
      LOOP:  cpu time    3.9230: real time    3.9324

 eigenvalue-minimisations  :   128
 total energy-change (2. order) :-0.1776221E+00  (-0.1760098E+00)
 number of electron       8.0000000 magnetization 
 augmentation part        8.0000000 magnetization 

 Free energy of the ion-electron system (eV)
  ---------------------------------------------------
  alpha Z        PSCENC =         0.24225079
  Ewald energy   TEWEN  =       128.68270354
  -Hartree energ DENC   =      -243.96695942
  -exchange      EXHF   =         0.00000000
  -V(xc)+E(xc)   XCENC  =        22.00907816
  PAW double counting   =       117.05815612     -117.66307307
  entropy T*S    EENTRO =         0.03491236
  eigenvalues    EBANDS =      -130.97558011
  atomic energy  EATOM  =       197.04175453
  Solvation  Ediel_sol  =         0.00000000
  ---------------------------------------------------
  free energy    TOTEN  =       -27.53675709 eV

  energy without entropy =      -27.57166945  energy(sigma->0) =      -27.54839455


--------------------------------------------------------------------------------------------------------




--------------------------------------- Iteration      1(   5)  ---------------------------------------


     EDDAV:  cpu time    2.8115: real time    2.8182
       DOS:  cpu time    0.0002: real time    0.0002
    CHARGE:  cpu time    0.2084: real time    0.2089
    MIXING:  cpu time    0.0420: real time    0.0421
    --------------------------------------------
      LOOP:  cpu time    3.0621: real time    3.0693

 eigenvalue-minimisations  :    88
 total energy-change (2. order) :-0.5738980E-04  (-0.5738968E-04)
 number of electron       8.0000002 magnetization 
 augmentation part        0.2247364 magnetization 

 Broyden mixing:
  rms(total) = 0.87157E+00    rms(broyden)= 0.87138E+00
  rms(prec ) = 0.12432E+01
  weight for this iteration     100.00

 Free energy of the ion-electron system (eV)
  ---------------------------------------------------
  alpha Z        PSCENC =         0.24225079
  Ewald energy   TEWEN  =       128.68270354
  -Hartree energ DENC   =      -243.96695942
  -exchange      EXHF   =         0.00000000
  -V(xc)+E(xc)   XCENC  =        22.00907816
  PAW double counting   =       117.05815612     -117.66307307
  entropy T*S    EENTRO =         0.03491236
  eigenvalues    EBANDS =      -130.97563750
  atomic energy  EATOM  =       197.04175453
  Solvation  Ediel_sol  =         0.00000000
  ---------------------------------------------------
  free energy    TOTEN  =       -27.53681448 eV

  energy without entropy =      -27.57172684  energy(sigma->0) =      -27.54845194


--------------------------------------------------------------------------------------------------------




--------------------------------------- Iteration      1(   6)  ---------------------------------------


    POTLOK:  cpu time    1.8795: real time    1.8839
    SETDIJ:  cpu time    0.0067: real time    0.0067
    EDDIAG:  cpu time    0.4775: real time    0.4787
  RMM-DIIS:  cpu time    1.5813: real time    1.5851
    ORTHCH:  cpu time    0.0113: real time    0.0113
       DOS:  cpu time    0.0002: real time    0.0002
    CHARGE:  cpu time    0.2068: real time    0.2073
    MIXING:  cpu time    0.0445: real time    0.0446
    --------------------------------------------
      LOOP:  cpu time    4.2078: real time    4.2178

 eigenvalue-minimisations  :    64
 total energy-change (2. order) : 0.2892783E+01  (-0.5391674E+00)
 number of electron       8.0000001 magnetization 
 augmentation part        0.1980305 magnetization 

 Broyden mixing:
  rms(total) = 0.42690E+00    rms(broyden)= 0.42682E+00
  rms(prec ) = 0.55858E+00
  weight for this iteration     100.00

 eigenvalues of (default mixing * dielectric matrix)
  average eigenvalue GAMMA=   1.3079
  1.3079

 Free energy of the ion-electron system (eV)
  ---------------------------------------------------
  alpha Z        PSCENC =         0.24225079
  Ewald energy   TEWEN  =       128.68270354
  -Hartree energ DENC   =      -263.69439016
  -exchange      EXHF   =         0.00000000
  -V(xc)+E(xc)   XCENC  =        23.20635950
  PAW double counting   =       235.96147307     -236.74146265
  entropy T*S    EENTRO =         0.03482596
  eigenvalues    EBANDS =      -109.37754561
  atomic energy  EATOM  =       197.04175453
  Solvation  Ediel_sol  =         0.00000000
  ---------------------------------------------------
  free energy    TOTEN  =       -24.64403104 eV

  energy without entropy =      -24.67885700  energy(sigma->0) =      -24.65563969


--------------------------------------------------------------------------------------------------------




--------------------------------------- Iteration      1(   7)  ---------------------------------------


    POTLOK:  cpu time    1.8760: real time    1.8804
    SETDIJ:  cpu time    0.0066: real time    0.0066
    EDDIAG:  cpu time    0.4936: real time    0.4947
  RMM-DIIS:  cpu time    1.5587: real time    1.5624
    ORTHCH:  cpu time    0.0112: real time    0.0112
       DOS:  cpu time    0.0002: real time    0.0002
    CHARGE:  cpu time    0.2033: real time    0.2038
    MIXING:  cpu time    0.0432: real time    0.0433
    --------------------------------------------
      LOOP:  cpu time    4.1928: real time    4.2027

 eigenvalue-minimisations  :    64
 total energy-change (2. order) : 0.4934125E+00  (-0.1229023E+00)
 number of electron       8.0000001 magnetization 
 augmentation part        0.1874966 magnetization 

 Broyden mixing:
  rms(total) = 0.22590E+00    rms(broyden)= 0.22585E+00
  rms(prec ) = 0.27521E+00
  weight for this iteration     100.00

 eigenvalues of (default mixing * dielectric matrix)
  average eigenvalue GAMMA=   1.8177
  1.4610  2.1744

 Free energy of the ion-electron system (eV)
  ---------------------------------------------------
  alpha Z        PSCENC =         0.24225079
  Ewald energy   TEWEN  =       128.68270354
  -Hartree energ DENC   =      -275.40271640
  -exchange      EXHF   =         0.00000000
  -V(xc)+E(xc)   XCENC  =        24.06635745
  PAW double counting   =       359.17967121     -359.99941557
  entropy T*S    EENTRO =         0.03494908
  eigenvalues    EBANDS =       -97.99617317
  atomic energy  EATOM  =       197.04175453
  Solvation  Ediel_sol  =         0.00000000
  ---------------------------------------------------
  free energy    TOTEN  =       -24.15061853 eV

  energy without entropy =      -24.18556761  energy(sigma->0) =      -24.16226823


--------------------------------------------------------------------------------------------------------




--------------------------------------- Iteration      1(   8)  ---------------------------------------


    POTLOK:  cpu time    1.8937: real time    1.8982
    SETDIJ:  cpu time    0.0067: real time    0.0067
    EDDIAG:  cpu time    0.4832: real time    0.4843
  RMM-DIIS:  cpu time    1.5565: real time    1.5602
    ORTHCH:  cpu time    0.0117: real time    0.0118
       DOS:  cpu time    0.0002: real time    0.0002
    CHARGE:  cpu time    0.2050: real time    0.2055
    MIXING:  cpu time    0.0436: real time    0.0437
    --------------------------------------------
      LOOP:  cpu time    4.2006: real time    4.2106

 eigenvalue-minimisations  :    64
 total energy-change (2. order) : 0.1432907E+00  (-0.1548139E-01)
 number of electron       8.0000001 magnetization 
 augmentation part        0.1861136 magnetization 

 Broyden mixing:
  rms(total) = 0.43012E-01    rms(broyden)= 0.42959E-01
  rms(prec ) = 0.72938E-01
  weight for this iteration     100.00

 eigenvalues of (default mixing * dielectric matrix)
  average eigenvalue GAMMA=   1.4387
  2.2454  1.4421  0.6286

 Free energy of the ion-electron system (eV)
  ---------------------------------------------------
  alpha Z        PSCENC =         0.24225079
  Ewald energy   TEWEN  =       128.68270354
  -Hartree energ DENC   =      -280.64919838
  -exchange      EXHF   =         0.00000000
  -V(xc)+E(xc)   XCENC  =        24.58668630
  PAW double counting   =       460.83455114     -461.62327940
  entropy T*S    EENTRO =         0.03587358
  eigenvalues    EBANDS =       -93.15866995
  atomic energy  EATOM  =       197.04175453
  Solvation  Ediel_sol  =         0.00000000
  ---------------------------------------------------
  free energy    TOTEN  =       -24.00732785 eV

  energy without entropy =      -24.04320143  energy(sigma->0) =      -24.01928571


--------------------------------------------------------------------------------------------------------




--------------------------------------- Iteration      1(   9)  ---------------------------------------


    POTLOK:  cpu time    1.9011: real time    1.9057
    SETDIJ:  cpu time    0.0066: real time    0.0066
    EDDIAG:  cpu time    0.4509: real time    0.4519
  RMM-DIIS:  cpu time    1.5896: real time    1.5934
    ORTHCH:  cpu time    0.0118: real time    0.0119
       DOS:  cpu time    0.0002: real time    0.0002
    CHARGE:  cpu time    0.2183: real time    0.2188
    MIXING:  cpu time    0.0471: real time    0.0473
    --------------------------------------------
      LOOP:  cpu time    4.2257: real time    4.2358

 eigenvalue-minimisations  :    64
 total energy-change (2. order) : 0.6861726E-02  (-0.9979026E-03)
 number of electron       8.0000001 magnetization 
 augmentation part        0.1858269 magnetization 

 Broyden mixing:
  rms(total) = 0.22158E-01    rms(broyden)= 0.22121E-01
  rms(prec ) = 0.46552E-01
  weight for this iteration     100.00

 eigenvalues of (default mixing * dielectric matrix)
  average eigenvalue GAMMA=   1.3215
  2.1642  1.3978  1.1240  0.6001

 Free energy of the ion-electron system (eV)
  ---------------------------------------------------
  alpha Z        PSCENC =         0.24225079
  Ewald energy   TEWEN  =       128.68270354
  -Hartree energ DENC   =      -281.50364130
  -exchange      EXHF   =         0.00000000
  -V(xc)+E(xc)   XCENC  =        24.64168326
  PAW double counting   =       465.93779097     -466.72691440
  entropy T*S    EENTRO =         0.03480246
  eigenvalues    EBANDS =       -92.35089598
  atomic energy  EATOM  =       197.04175453
  Solvation  Ediel_sol  =         0.00000000
  ---------------------------------------------------
  free energy    TOTEN  =       -24.00046612 eV

  energy without entropy =      -24.03526858  energy(sigma->0) =      -24.01206694


--------------------------------------------------------------------------------------------------------




--------------------------------------- Iteration      1(  10)  ---------------------------------------


    POTLOK:  cpu time    1.8811: real time    1.8856
    SETDIJ:  cpu time    0.0065: real time    0.0066
    EDDIAG:  cpu time    0.4665: real time    0.4676
  RMM-DIIS:  cpu time    1.6034: real time    1.6072
    ORTHCH:  cpu time    0.0123: real time    0.0123
       DOS:  cpu time    0.0002: real time    0.0002
    CHARGE:  cpu time    0.2263: real time    0.2269
    MIXING:  cpu time    0.0478: real time    0.0479
    --------------------------------------------
      LOOP:  cpu time    4.2441: real time    4.2542

 eigenvalue-minimisations  :    64
 total energy-change (2. order) : 0.2195495E-02  (-0.1052390E-02)
 number of electron       8.0000001 magnetization 
 augmentation part        0.1849702 magnetization 

 Broyden mixing:
  rms(total) = 0.14487E-01    rms(broyden)= 0.14485E-01
  rms(prec ) = 0.31411E-01
  weight for this iteration     100.00

 eigenvalues of (default mixing * dielectric matrix)
  average eigenvalue GAMMA=   1.6806
  2.7508  2.7508  1.2746  1.0378  0.5890

 Free energy of the ion-electron system (eV)
  ---------------------------------------------------
  alpha Z        PSCENC =         0.24225079
  Ewald energy   TEWEN  =       128.68270354
  -Hartree energ DENC   =      -282.83806936
  -exchange      EXHF   =         0.00000000
  -V(xc)+E(xc)   XCENC  =        24.69731705
  PAW double counting   =       462.84240792     -463.63526275
  entropy T*S    EENTRO =         0.03479222
  eigenvalues    EBANDS =       -91.06616457
  atomic energy  EATOM  =       197.04175453
  Solvation  Ediel_sol  =         0.00000000
  ---------------------------------------------------
  free energy    TOTEN  =       -23.99827063 eV

  energy without entropy =      -24.03306285  energy(sigma->0) =      -24.00986804


--------------------------------------------------------------------------------------------------------




--------------------------------------- Iteration      1(  11)  ---------------------------------------


    POTLOK:  cpu time    1.7721: real time    1.7763
    SETDIJ:  cpu time    0.0066: real time    0.0066
    EDDIAG:  cpu time    0.4768: real time    0.4780
  RMM-DIIS:  cpu time    1.6414: real time    1.6454
    ORTHCH:  cpu time    0.0121: real time    0.0121
       DOS:  cpu time    0.0002: real time    0.0002
    CHARGE:  cpu time    0.2082: real time    0.2087
    MIXING:  cpu time    0.0464: real time    0.0466
    --------------------------------------------
      LOOP:  cpu time    4.1639: real time    4.1738

 eigenvalue-minimisations  :    64
 total energy-change (2. order) : 0.6106587E-02  (-0.3744413E-03)
 number of electron       8.0000001 magnetization 
 augmentation part        0.1848326 magnetization 

 Broyden mixing:
  rms(total) = 0.10424E-01    rms(broyden)= 0.10422E-01
  rms(prec ) = 0.17241E-01
  weight for this iteration     100.00

 eigenvalues of (default mixing * dielectric matrix)
  average eigenvalue GAMMA=   1.5130
  3.0670  2.5196  1.2356  1.0672  0.6164  0.5721

 Free energy of the ion-electron system (eV)
  ---------------------------------------------------
  alpha Z        PSCENC =         0.24225079
  Ewald energy   TEWEN  =       128.68270354
  -Hartree energ DENC   =      -284.02091464
  -exchange      EXHF   =         0.00000000
  -V(xc)+E(xc)   XCENC  =        24.74000292
  PAW double counting   =       455.88367795     -456.67313080
  entropy T*S    EENTRO =         0.03480625
  eigenvalues    EBANDS =       -89.92331459
  atomic energy  EATOM  =       197.04175453
  Solvation  Ediel_sol  =         0.00000000
  ---------------------------------------------------
  free energy    TOTEN  =       -23.99216404 eV

  energy without entropy =      -24.02697029  energy(sigma->0) =      -24.00376613


--------------------------------------------------------------------------------------------------------




--------------------------------------- Iteration      1(  12)  ---------------------------------------


    POTLOK:  cpu time    1.7700: real time    1.7742
    SETDIJ:  cpu time    0.0066: real time    0.0066
    EDDIAG:  cpu time    0.4723: real time    0.4735
  RMM-DIIS:  cpu time    1.6075: real time    1.6113
    ORTHCH:  cpu time    0.0120: real time    0.0120
       DOS:  cpu time    0.0002: real time    0.0002
    CHARGE:  cpu time    0.2203: real time    0.2208
    MIXING:  cpu time    0.0497: real time    0.0498
    --------------------------------------------
      LOOP:  cpu time    4.1386: real time    4.1484

 eigenvalue-minimisations  :    64
 total energy-change (2. order) :-0.1375584E-02  (-0.3012801E-04)
 number of electron       8.0000001 magnetization 
 augmentation part        0.1848021 magnetization 

 Broyden mixing:
  rms(total) = 0.54732E-02    rms(broyden)= 0.54694E-02
  rms(prec ) = 0.12178E-01
  weight for this iteration     100.00

 eigenvalues of (default mixing * dielectric matrix)
  average eigenvalue GAMMA=   1.7987
  3.5811  2.7876  2.7876  1.3196  1.0055  0.5925  0.5168

 Free energy of the ion-electron system (eV)
  ---------------------------------------------------
  alpha Z        PSCENC =         0.24225079
  Ewald energy   TEWEN  =       128.68270354
  -Hartree energ DENC   =      -284.16252715
  -exchange      EXHF   =         0.00000000
  -V(xc)+E(xc)   XCENC  =        24.74848130
  PAW double counting   =       457.41116632     -458.19951980
  entropy T*S    EENTRO =         0.03479677
  eigenvalues    EBANDS =       -89.79264593
  atomic energy  EATOM  =       197.04175453
  Solvation  Ediel_sol  =         0.00000000
  ---------------------------------------------------
  free energy    TOTEN  =       -23.99353963 eV

  energy without entropy =      -24.02833640  energy(sigma->0) =      -24.00513855


--------------------------------------------------------------------------------------------------------




--------------------------------------- Iteration      1(  13)  ---------------------------------------


    POTLOK:  cpu time    1.6479: real time    1.6518
    SETDIJ:  cpu time    0.0065: real time    0.0065
    EDDIAG:  cpu time    0.4744: real time    0.4755
  RMM-DIIS:  cpu time    1.6513: real time    1.6552
    ORTHCH:  cpu time    0.0121: real time    0.0122
       DOS:  cpu time    0.0002: real time    0.0002
    CHARGE:  cpu time    0.2206: real time    0.2211
    MIXING:  cpu time    0.0504: real time    0.0506
    --------------------------------------------
      LOOP:  cpu time    4.0634: real time    4.0730

 eigenvalue-minimisations  :    64
 total energy-change (2. order) :-0.8847158E-02  (-0.4304054E-03)
 number of electron       8.0000001 magnetization 
 augmentation part        0.1849315 magnetization 

 Broyden mixing:
  rms(total) = 0.14434E-01    rms(broyden)= 0.14432E-01
  rms(prec ) = 0.17607E-01
  weight for this iteration     100.00

 eigenvalues of (default mixing * dielectric matrix)
  average eigenvalue GAMMA=   1.7896
  4.8323  2.7868  2.4516  1.2424  1.0411  0.8620  0.5158  0.5846

 Free energy of the ion-electron system (eV)
  ---------------------------------------------------
  alpha Z        PSCENC =         0.24225079
  Ewald energy   TEWEN  =       128.68270354
  -Hartree energ DENC   =      -284.58765056
  -exchange      EXHF   =         0.00000000
  -V(xc)+E(xc)   XCENC  =        24.76585082
  PAW double counting   =       460.48192635     -461.26773882
  entropy T*S    EENTRO =         0.03478780
  eigenvalues    EBANDS =       -89.39627123
  atomic energy  EATOM  =       197.04175453
  Solvation  Ediel_sol  =         0.00000000
  ---------------------------------------------------
  free energy    TOTEN  =       -24.00238678 eV

  energy without entropy =      -24.03717459  energy(sigma->0) =      -24.01398272


--------------------------------------------------------------------------------------------------------




--------------------------------------- Iteration      1(  14)  ---------------------------------------


    POTLOK:  cpu time    1.6532: real time    1.6571
    SETDIJ:  cpu time    0.0065: real time    0.0065
    EDDIAG:  cpu time    0.4753: real time    0.4765
  RMM-DIIS:  cpu time    1.6845: real time    1.6885
    ORTHCH:  cpu time    0.0120: real time    0.0120
       DOS:  cpu time    0.0002: real time    0.0002
    CHARGE:  cpu time    0.2186: real time    0.2191
    MIXING:  cpu time    0.0508: real time    0.0509
    --------------------------------------------
      LOOP:  cpu time    4.1010: real time    4.1107

 eigenvalue-minimisations  :    64
 total energy-change (2. order) :-0.7122321E-03  (-0.6936020E-04)
 number of electron       8.0000001 magnetization 
 augmentation part        0.1848457 magnetization 

 Broyden mixing:
  rms(total) = 0.37225E-02    rms(broyden)= 0.37220E-02
  rms(prec ) = 0.55269E-02
  weight for this iteration     100.00

 eigenvalues of (default mixing * dielectric matrix)
  average eigenvalue GAMMA=   2.1282
  5.7735  3.8080  2.6037  2.5005  1.1736  1.1736  1.0191  0.5864  0.5158

 Free energy of the ion-electron system (eV)
  ---------------------------------------------------
  alpha Z        PSCENC =         0.24225079
  Ewald energy   TEWEN  =       128.68270354
  -Hartree energ DENC   =      -284.53705780
  -exchange      EXHF   =         0.00000000
  -V(xc)+E(xc)   XCENC  =        24.75178982
  PAW double counting   =       456.80896269     -457.59705106
  entropy T*S    EENTRO =         0.03479071
  eigenvalues    EBANDS =       -89.43124223
  atomic energy  EATOM  =       197.04175453
  Solvation  Ediel_sol  =         0.00000000
  ---------------------------------------------------
  free energy    TOTEN  =       -24.00309902 eV

  energy without entropy =      -24.03788972  energy(sigma->0) =      -24.01469592


--------------------------------------------------------------------------------------------------------




--------------------------------------- Iteration      1(  15)  ---------------------------------------


    POTLOK:  cpu time    1.6250: real time    1.6288
    SETDIJ:  cpu time    0.0066: real time    0.0066
    EDDIAG:  cpu time    0.4850: real time    0.4862
  RMM-DIIS:  cpu time    1.6581: real time    1.6620
    ORTHCH:  cpu time    0.0117: real time    0.0117
       DOS:  cpu time    0.0002: real time    0.0002
    CHARGE:  cpu time    0.2128: real time    0.2133
    MIXING:  cpu time    0.0500: real time    0.0501
    --------------------------------------------
      LOOP:  cpu time    4.0495: real time    4.0591

 eigenvalue-minimisations  :    64
 total energy-change (2. order) :-0.3077396E-02  (-0.1610411E-03)
 number of electron       8.0000001 magnetization 
 augmentation part        0.1846689 magnetization 

 Broyden mixing:
  rms(total) = 0.53505E-02    rms(broyden)= 0.53493E-02
  rms(prec ) = 0.67146E-02
  weight for this iteration     100.00

 eigenvalues of (default mixing * dielectric matrix)
  average eigenvalue GAMMA=   2.0837
  6.5239  4.1017  2.4023  2.4023  1.1936  1.1936  0.5859  0.5160  0.9587  0.9587

 Free energy of the ion-electron system (eV)
  ---------------------------------------------------
  alpha Z        PSCENC =         0.24225079
  Ewald energy   TEWEN  =       128.68270354
  -Hartree energ DENC   =      -284.54145093
  -exchange      EXHF   =         0.00000000
  -V(xc)+E(xc)   XCENC  =        24.74152399
  PAW double counting   =       456.05825074     -456.84782549
  entropy T*S    EENTRO =         0.03478978
  eigenvalues    EBANDS =       -89.41817337
  atomic energy  EATOM  =       197.04175453
  Solvation  Ediel_sol  =         0.00000000
  ---------------------------------------------------
  free energy    TOTEN  =       -24.00617641 eV

  energy without entropy =      -24.04096620  energy(sigma->0) =      -24.01777301


--------------------------------------------------------------------------------------------------------




--------------------------------------- Iteration      1(  16)  ---------------------------------------


    POTLOK:  cpu time    1.6093: real time    1.6131
    SETDIJ:  cpu time    0.0066: real time    0.0066
    EDDIAG:  cpu time    0.4917: real time    0.4929
  RMM-DIIS:  cpu time    1.6360: real time    1.6399
    ORTHCH:  cpu time    0.0123: real time    0.0123
       DOS:  cpu time    0.0002: real time    0.0002
    CHARGE:  cpu time    0.1970: real time    0.1975
    MIXING:  cpu time    0.0510: real time    0.0511
    --------------------------------------------
      LOOP:  cpu time    4.0041: real time    4.0136

 eigenvalue-minimisations  :    64
 total energy-change (2. order) :-0.7633927E-04  (-0.1141310E-04)
 number of electron       8.0000001 magnetization 
 augmentation part        0.1846775 magnetization 

 Broyden mixing:
  rms(total) = 0.23589E-02    rms(broyden)= 0.23587E-02
  rms(prec ) = 0.30068E-02
  weight for this iteration     100.00

 eigenvalues of (default mixing * dielectric matrix)
  average eigenvalue GAMMA=   2.0584
  6.7146  4.3187  2.4124  2.4124  1.2473  1.2473  0.5160  0.5859  1.1310  1.1310
  0.9263

 Free energy of the ion-electron system (eV)
  ---------------------------------------------------
  alpha Z        PSCENC =         0.24225079
  Ewald energy   TEWEN  =       128.68270354
  -Hartree energ DENC   =      -284.47733376
  -exchange      EXHF   =         0.00000000
  -V(xc)+E(xc)   XCENC  =        24.73971099
  PAW double counting   =       456.48533075     -457.27396773
  entropy T*S    EENTRO =         0.03479237
  eigenvalues    EBANDS =       -89.48149423
  atomic energy  EATOM  =       197.04175453
  Solvation  Ediel_sol  =         0.00000000
  ---------------------------------------------------
  free energy    TOTEN  =       -24.00625275 eV

  energy without entropy =      -24.04104512  energy(sigma->0) =      -24.01785021


--------------------------------------------------------------------------------------------------------




--------------------------------------- Iteration      1(  17)  ---------------------------------------


    POTLOK:  cpu time    1.6608: real time    1.6649
    SETDIJ:  cpu time    0.0066: real time    0.0066
    EDDIAG:  cpu time    0.4857: real time    0.4869
  RMM-DIIS:  cpu time    1.5935: real time    1.5973
    ORTHCH:  cpu time    0.0118: real time    0.0118
       DOS:  cpu time    0.0002: real time    0.0002
    CHARGE:  cpu time    0.2152: real time    0.2158
    MIXING:  cpu time    0.0528: real time    0.0529
    --------------------------------------------
      LOOP:  cpu time    4.0267: real time    4.0364

 eigenvalue-minimisations  :    64
 total energy-change (2. order) :-0.2195973E-03  (-0.3029528E-04)
 number of electron       8.0000001 magnetization 
 augmentation part        0.1847954 magnetization 

 Broyden mixing:
  rms(total) = 0.19185E-02    rms(broyden)= 0.19175E-02
  rms(prec ) = 0.26504E-02
  weight for this iteration     100.00

 eigenvalues of (default mixing * dielectric matrix)
  average eigenvalue GAMMA=   2.2514
  7.8279  5.1245  3.2962  2.5035  2.1112  1.2629  1.2629  0.9958  0.9958  0.5863
  0.5161  0.5339

 Free energy of the ion-electron system (eV)
  ---------------------------------------------------
  alpha Z        PSCENC =         0.24225079
  Ewald energy   TEWEN  =       128.68270354
  -Hartree energ DENC   =      -284.43090792
  -exchange      EXHF   =         0.00000000
  -V(xc)+E(xc)   XCENC  =        24.73886353
  PAW double counting   =       456.72421476     -457.51188675
  entropy T*S    EENTRO =         0.03479069
  eigenvalues    EBANDS =       -89.52825552
  atomic energy  EATOM  =       197.04175453
  Solvation  Ediel_sol  =         0.00000000
  ---------------------------------------------------
  free energy    TOTEN  =       -24.00647235 eV

  energy without entropy =      -24.04126304  energy(sigma->0) =      -24.01806924


--------------------------------------------------------------------------------------------------------




--------------------------------------- Iteration      1(  18)  ---------------------------------------


    POTLOK:  cpu time    1.6958: real time    1.6998
    SETDIJ:  cpu time    0.0065: real time    0.0065
    EDDIAG:  cpu time    0.4754: real time    0.4766
  RMM-DIIS:  cpu time    1.6260: real time    1.6298
    ORTHCH:  cpu time    0.0122: real time    0.0123
       DOS:  cpu time    0.0002: real time    0.0002
    CHARGE:  cpu time    0.2233: real time    0.2238
    MIXING:  cpu time    0.0564: real time    0.0565
    --------------------------------------------
      LOOP:  cpu time    4.0959: real time    4.1056

 eigenvalue-minimisations  :    64
 total energy-change (2. order) :-0.7425724E-04  (-0.9685164E-06)
 number of electron       8.0000001 magnetization 
 augmentation part        0.1847860 magnetization 

 Broyden mixing:
  rms(total) = 0.18043E-02    rms(broyden)= 0.18042E-02
  rms(prec ) = 0.23685E-02
  weight for this iteration     100.00

 eigenvalues of (default mixing * dielectric matrix)
  average eigenvalue GAMMA=   2.1442
  7.9092  5.0050  3.5629  2.4530  2.2384  1.2364  1.2364  0.9784  0.9784  0.5848
  0.5149  0.5187  0.6580

 Free energy of the ion-electron system (eV)
  ---------------------------------------------------
  alpha Z        PSCENC =         0.24225079
  Ewald energy   TEWEN  =       128.68270354
  -Hartree energ DENC   =      -284.46480477
  -exchange      EXHF   =         0.00000000
  -V(xc)+E(xc)   XCENC  =        24.74092115
  PAW double counting   =       456.77095178     -457.55872360
  entropy T*S    EENTRO =         0.03479042
  eigenvalues    EBANDS =       -89.49639045
  atomic energy  EATOM  =       197.04175453
  Solvation  Ediel_sol  =         0.00000000
  ---------------------------------------------------
  free energy    TOTEN  =       -24.00654661 eV

  energy without entropy =      -24.04133703  energy(sigma->0) =      -24.01814341


--------------------------------------------------------------------------------------------------------




--------------------------------------- Iteration      1(  19)  ---------------------------------------


    POTLOK:  cpu time    1.6875: real time    1.6915
    SETDIJ:  cpu time    0.0067: real time    0.0067
    EDDIAG:  cpu time    0.4790: real time    0.4801
  RMM-DIIS:  cpu time    1.6227: real time    1.6266
    ORTHCH:  cpu time    0.0124: real time    0.0124
       DOS:  cpu time    0.0002: real time    0.0002
    CHARGE:  cpu time    0.1985: real time    0.1990
    MIXING:  cpu time    0.0554: real time    0.0555
    --------------------------------------------
      LOOP:  cpu time    4.0624: real time    4.0720

 eigenvalue-minimisations  :    64
 total energy-change (2. order) :-0.4643919E-05  (-0.3529666E-05)
 number of electron       8.0000001 magnetization 
 augmentation part        0.1847376 magnetization 

 Broyden mixing:
  rms(total) = 0.54172E-03    rms(broyden)= 0.54146E-03
  rms(prec ) = 0.66409E-03
  weight for this iteration     100.00

 eigenvalues of (default mixing * dielectric matrix)
  average eigenvalue GAMMA=   2.2005
  8.2680  4.9820  3.8201  2.6381  2.3480  1.4837  1.3806  1.3806  0.9570  0.9636
  0.9636  0.5858  0.5160  0.5196

 Free energy of the ion-electron system (eV)
  ---------------------------------------------------
  alpha Z        PSCENC =         0.24225079
  Ewald energy   TEWEN  =       128.68270354
  -Hartree energ DENC   =      -284.50085303
  -exchange      EXHF   =         0.00000000
  -V(xc)+E(xc)   XCENC  =        24.74247953
  PAW double counting   =       456.73025492     -457.51839811
  entropy T*S    EENTRO =         0.03479117
  eigenvalues    EBANDS =       -89.46153460
  atomic energy  EATOM  =       197.04175453
  Solvation  Ediel_sol  =         0.00000000
  ---------------------------------------------------
  free energy    TOTEN  =       -24.00655125 eV

  energy without entropy =      -24.04134242  energy(sigma->0) =      -24.01814831


--------------------------------------------------------------------------------------------------------




--------------------------------------- Iteration      1(  20)  ---------------------------------------


    POTLOK:  cpu time    1.7440: real time    1.7482
    SETDIJ:  cpu time    0.0065: real time    0.0066
    EDDIAG:  cpu time    0.4632: real time    0.4643
  RMM-DIIS:  cpu time    1.5838: real time    1.5876
    ORTHCH:  cpu time    0.0117: real time    0.0117
       DOS:  cpu time    0.0002: real time    0.0002
    CHARGE:  cpu time    0.2113: real time    0.2118
    MIXING:  cpu time    0.0621: real time    0.0622
    --------------------------------------------
      LOOP:  cpu time    4.0828: real time    4.0925

 eigenvalue-minimisations  :    64
 total energy-change (2. order) :-0.1337557E-04  (-0.6600426E-06)
 number of electron       8.0000001 magnetization 
 augmentation part        0.1847234 magnetization 

 Broyden mixing:
  rms(total) = 0.89760E-04    rms(broyden)= 0.88980E-04
  rms(prec ) = 0.11959E-03
  weight for this iteration     100.00

 eigenvalues of (default mixing * dielectric matrix)
  average eigenvalue GAMMA=   2.1936
  8.4773  5.1731  4.0078  2.8649  2.4715  2.0437  1.2903  1.2903  0.9992  0.9779
  0.8403  0.8403  0.5858  0.5160  0.5252

 Free energy of the ion-electron system (eV)
  ---------------------------------------------------
  alpha Z        PSCENC =         0.24225079
  Ewald energy   TEWEN  =       128.68270354
  -Hartree energ DENC   =      -284.50164271
  -exchange      EXHF   =         0.00000000
  -V(xc)+E(xc)   XCENC  =        24.74210582
  PAW double counting   =       456.60048693     -457.38875039
  entropy T*S    EENTRO =         0.03479112
  eigenvalues    EBANDS =       -89.46026426
  atomic energy  EATOM  =       197.04175453
  Solvation  Ediel_sol  =         0.00000000
  ---------------------------------------------------
  free energy    TOTEN  =       -24.00656463 eV

  energy without entropy =      -24.04135575  energy(sigma->0) =      -24.01816167


--------------------------------------------------------------------------------------------------------




--------------------------------------- Iteration      1(  21)  ---------------------------------------


    POTLOK:  cpu time    1.7782: real time    1.7824
    SETDIJ:  cpu time    0.0065: real time    0.0065
    EDDIAG:  cpu time    0.4543: real time    0.4554
  RMM-DIIS:  cpu time    1.2547: real time    1.2576
    ORTHCH:  cpu time    0.0125: real time    0.0126
       DOS:  cpu time    0.0002: real time    0.0002
    CHARGE:  cpu time    0.2256: real time    0.2261
    MIXING:  cpu time    0.0618: real time    0.0620
    --------------------------------------------
      LOOP:  cpu time    3.7938: real time    3.8028

 eigenvalue-minimisations  :    48
 total energy-change (2. order) :-0.3053053E-05  (-0.1215180E-06)
 number of electron       8.0000001 magnetization 
 augmentation part        0.1847183 magnetization 

 Broyden mixing:
  rms(total) = 0.26216E-03    rms(broyden)= 0.26209E-03
  rms(prec ) = 0.34274E-03
  weight for this iteration     100.00

 eigenvalues of (default mixing * dielectric matrix)
  average eigenvalue GAMMA=   2.1864
  8.5411  5.1558  4.3930  2.7066  2.6427  1.9960  1.3007  1.3007  1.3379  1.0957
  1.0957  0.9467  0.8435  0.5858  0.5160  0.5246

 Free energy of the ion-electron system (eV)
  ---------------------------------------------------
  alpha Z        PSCENC =         0.24225079
  Ewald energy   TEWEN  =       128.68270354
  -Hartree energ DENC   =      -284.50320749
  -exchange      EXHF   =         0.00000000
  -V(xc)+E(xc)   XCENC  =        24.74207092
  PAW double counting   =       456.59724471     -457.38555577
  entropy T*S    EENTRO =         0.03479137
  eigenvalues    EBANDS =       -89.45862028
  atomic energy  EATOM  =       197.04175453
  Solvation  Ediel_sol  =         0.00000000
  ---------------------------------------------------
  free energy    TOTEN  =       -24.00656768 eV

  energy without entropy =      -24.04135905  energy(sigma->0) =      -24.01816480


--------------------------------------------------------------------------------------------------------




--------------------------------------- Iteration      1(  22)  ---------------------------------------


    POTLOK:  cpu time    1.8084: real time    1.8127
    SETDIJ:  cpu time    0.0065: real time    0.0066
    EDDIAG:  cpu time    0.4620: real time    0.4632
  RMM-DIIS:  cpu time    1.2518: real time    1.2548
    ORTHCH:  cpu time    0.0113: real time    0.0113
       DOS:  cpu time    0.0002: real time    0.0002
    --------------------------------------------
      LOOP:  cpu time    3.5402: real time    3.5486

 eigenvalue-minimisations  :    48
 total energy-change (2. order) :-0.8671019E-06  (-0.1702173E-07)
 number of electron       8.0000001 magnetization 
 augmentation part        0.1847183 magnetization 

 Free energy of the ion-electron system (eV)
  ---------------------------------------------------
  alpha Z        PSCENC =         0.24225079
  Ewald energy   TEWEN  =       128.68270354
  -Hartree energ DENC   =      -284.50117552
  -exchange      EXHF   =         0.00000000
  -V(xc)+E(xc)   XCENC  =        24.74202580
  PAW double counting   =       456.62838631     -457.41666132
  entropy T*S    EENTRO =         0.03479119
  eigenvalues    EBANDS =       -89.46064387
  atomic energy  EATOM  =       197.04175453
  Solvation  Ediel_sol  =         0.00000000
  ---------------------------------------------------
  free energy    TOTEN  =       -24.00656855 eV

  energy without entropy =      -24.04135974  energy(sigma->0) =      -24.01816561


--------------------------------------------------------------------------------------------------------




 average (electrostatic) potential at core
  the test charge radii are     0.5201  0.6991
  (the norm of the test charge is              1.0000)
       1 -41.4840       2 -41.5093       3 -41.4800       4 -41.4801       5 -57.9555



 E-fermi :  -9.1141     XC(G=0):  -0.7026     alpha+bet : -0.2107


 k-point     1 :       0.2500    0.2500    0.2500
  band No.  band energies     occupation 
      1     -16.8829      2.00000
      2      -9.2834      2.00208
      3      -9.2830      2.00109
      4      -9.2810      1.99669
      5      -0.3151      0.00000
      6       0.5637      0.00000
      7       0.6712      0.00000
      8       0.6952      0.00000

 k-point     2 :      -0.2500    0.2500    0.2500
  band No.  band energies     occupation 
      1     -16.8829      2.00000
      2      -9.2835      2.00225
      3      -9.2830      2.00108
      4      -9.2810      1.99679
      5      -0.3152      0.00000
      6       0.5591      0.00000
      7       0.6687      0.00000
      8       0.6977      0.00000

 k-point     3 :       0.2500   -0.2500    0.2500
  band No.  band energies     occupation 
      1     -16.8829      2.00000
      2      -9.2834      2.00214
      3      -9.2830      2.00129
      4      -9.2810      1.99667
      5      -0.3151      0.00000
      6       0.5590      0.00000
      7       0.6704      0.00000
      8       0.6973      0.00000

 k-point     4 :      -0.2500   -0.2500    0.2500
  band No.  band energies     occupation 
      1     -16.8829      2.00000
      2      -9.2834      2.00202
      3      -9.2830      2.00115
      4      -9.2810      1.99674
      5      -0.3151      0.00000
      6       0.5630      0.00000
      7       0.6721      0.00000
      8       0.6944      0.00000


--------------------------------------------------------------------------------------------------------


 soft charge-density along one line, spin component           1
         0         1         2         3         4         5         6         7         8         9
 total charge-density along one line

 pseudopotential strength for first ion, spin component:           1
 -2.341  -4.033  -0.001  -0.002   0.001
 -4.033  -6.864  -0.003  -0.004   0.002
 -0.001  -0.003  -0.337   0.002  -0.001
 -0.002  -0.004   0.002  -0.335  -0.001
  0.001   0.002  -0.001  -0.001  -0.338
 total augmentation occupancy for first ion, spin component:           1
  3.597  -0.657   0.237   0.381  -0.174
 -0.657   0.133  -0.045  -0.071   0.032
  0.237  -0.045   0.021   0.021  -0.010
  0.381  -0.071   0.021   0.045  -0.017
 -0.174   0.032  -0.010  -0.017   0.016


------------------------ aborting loop because EDIFF is reached ----------------------------------------


    CHARGE:  cpu time    0.2002: real time    0.2007
    FORLOC:  cpu time    0.1190: real time    0.1193
    FORNL :  cpu time    0.6725: real time    0.6741
    STRESS:  cpu time    2.1311: real time    2.1361
    FORCOR:  cpu time    1.8409: real time    1.8452
    FORHAR:  cpu time    0.5942: real time    0.5957
    MIXING:  cpu time    0.0608: real time    0.0609
    OFIELD:  cpu time    0.0000: real time    0.0000

  FORCE on cell =-STRESS in cart. coord.  units (eV):
  Direction    XX          YY          ZZ          XY          YZ          ZX
  --------------------------------------------------------------------------------------
  Alpha Z     0.24225     0.24225     0.24225
  Ewald      42.88200    42.89495    42.90570    -0.00850     0.00232    -0.00338
  Hartree    94.79067    94.85289    94.84704     0.00267     0.00572     0.00057
  E(xc)     -27.21101   -27.21077   -27.21074     0.00014     0.00015     0.00004
  Local    -196.38075  -196.55892  -196.56217    -0.00690    -0.01941     0.00757
  n-local   -15.86905   -15.36166   -15.34424     0.40176     0.16855    -0.01234
  augment     0.11595     0.11542     0.11456    -0.00016     0.00051     0.00008
  Kinetic   101.08291   101.17475   101.16651    -0.00549    -0.00625     0.00349
  Fock        0.00000     0.00000     0.00000     0.00000     0.00000     0.00000
  -------------------------------------------------------------------------------------
  Total      -0.34704     0.14891     0.15891     0.38352     0.15160    -0.00399
  in kB      -0.55602     0.23859     0.25461     0.61446     0.24288    -0.00639
  external pressure =       -0.02 kB  Pullay stress =        0.00 kB

  kinetic pressure (ideal gas correction) =      0.00 kB
  total pressure  =     -0.02 kB
  Total+kin.    -0.556       0.239       0.255       0.614       0.243      -0.006

 VOLUME and BASIS-vectors are now :
 -----------------------------------------------------------------------------
  energy-cutoff  :      400.00
  volume of cell :     1000.00
      direct lattice vectors                 reciprocal lattice vectors
    10.000000000  0.000000000  0.000000000     0.100000000  0.000000000  0.000000000
     0.000000000 10.000000000  0.000000000     0.000000000  0.100000000  0.000000000
     0.000000000  0.000000000 10.000000000     0.000000000  0.000000000  0.100000000

  length of vectors
    10.000000000 10.000000000 10.000000000     0.100000000  0.100000000  0.100000000


 FORCES acting on ions
    electron-ion (+dipol)            ewald-force                    non-local-force                 convergence-correction
 -----------------------------------------------------------------------------------------------
   -.168E+02 0.291E+02 0.408E+02   0.186E+02 -.321E+02 -.450E+02   -.166E+01 0.297E+01 0.372E+01   -.354E-03 0.604E-03 0.850E-03
   0.523E+02 -.630E+01 0.325E+01   -.578E+02 0.695E+01 -.360E+01   0.610E+01 -.194E+00 0.125E+01   0.108E-02 -.135E-03 0.711E-04
   -.236E+02 -.473E+02 0.122E+01   0.260E+02 0.522E+02 -.134E+01   -.220E+01 -.462E+01 0.178E+00   -.490E-03 -.983E-03 0.292E-04
   -.120E+02 0.245E+02 -.453E+02   0.133E+02 -.270E+02 0.500E+02   -.111E+01 0.234E+01 -.430E+01   -.254E-03 0.509E-03 -.938E-03
   0.643E-01 0.794E-03 0.954E-02   -.123E-01 0.661E-02 0.255E-02   -.823E+00 0.872E+00 -.390E+00   0.513E-04 -.243E-04 0.393E-04
 -----------------------------------------------------------------------------------------------
   -.345E-01 0.107E-01 0.108E-01   0.177E-14 0.354E-14 -.710E-14   0.302E+00 0.136E+01 0.459E+00   0.367E-04 -.290E-04 0.520E-04


 POSITION                                       TOTAL-FORCE (eV/Angst)
 -----------------------------------------------------------------------------------
      5.38154      4.06861      3.60573         0.062659     -0.060654     -0.489236
      3.94540      4.80321      4.38469         0.629396      0.456997      0.899802
      5.52092      5.65450      4.42709         0.216244      0.282751      0.055472
      5.28185      4.16415      5.39183         0.130310     -0.187234      0.381918
      5.03251      4.67255      4.45232        -0.771273      0.879110     -0.377656
 -----------------------------------------------------------------------------------
    total drift:                                0.267336      1.370970      0.470301


--------------------------------------------------------------------------------------------------------



  FREE ENERGIE OF THE ION-ELECTRON SYSTEM (eV)
  ---------------------------------------------------
  free  energy   TOTEN  =       -24.00656855 eV

  energy  without entropy=      -24.04135974  energy(sigma->0) =      -24.01816561



--------------------------------------------------------------------------------------------------------


    POTLOK:  cpu time    1.8346: real time    1.8389


--------------------------------------------------------------------------------------------------------


           RANDOM_SEED =         578492884                0                0
           RANDOM_SEED =         578492884                0                0
   IONSTEP:  cpu time    0.0017: real time    0.0019

  ENERGY OF THE ELECTRON-ION-THERMOSTAT SYSTEM (eV)
  ---------------------------------------------------
% ion-electron   TOTEN  =       -24.006569  see above
  kinetic energy EKIN   =         0.009586
  kin. lattice  EKIN_LAT=         0.000000  (temperature   18.54 K)
  nose potential ES     =         0.000000
  nose kinetic   EPS    =         0.000031
  ---------------------------------------------------
  total energy   ETOTAL =       -23.996951 eV

  maximum distance moved by ions :      0.44E-02


 mean value of Nose-termostat <S>:     0.992 mean value of <T> :    18.540
 mean temperature <T/S>/<1/S>  :    18.540

    WAVPRE:  cpu time    0.4789: real time    0.4851
    FEWALD:  cpu time    0.0004: real time    0.0004
    ORTHCH:  cpu time    0.2295: real time    0.2301
     LOOP+:  cpu time   93.3685: real time   93.5979


--------------------------------------- Iteration      2(   1)  ---------------------------------------


    POTLOK:  cpu time    1.8078: real time    1.8123
    SETDIJ:  cpu time    0.0066: real time    0.0066
     EDDAV:  cpu time    2.1214: real time    2.1264
       DOS:  cpu time    0.0002: real time    0.0002
    CHARGE:  cpu time    0.2058: real time    0.2063
    MIXING:  cpu time    0.0453: real time    0.0454
    --------------------------------------------
      LOOP:  cpu time    4.1872: real time    4.1973

 eigenvalue-minimisations  :    64
 total energy-change (2. order) :-0.1017296E-01  (-0.1152172E+00)
 number of electron       8.0000001 magnetization 
 augmentation part        0.1836830 magnetization 

 Broyden mixing:
  rms(total) = 0.49358E-01    rms(broyden)= 0.49303E-01
  rms(prec ) = 0.58021E-01
  weight for this iteration     100.00

 Free energy of the ion-electron system (eV)
  ---------------------------------------------------
  alpha Z        PSCENC =         0.24225079
  Ewald energy   TEWEN  =       127.36714783
  -Hartree energ DENC   =      -283.69525567
  -exchange      EXHF   =         0.00000000
  -V(xc)+E(xc)   XCENC  =        24.70148258
  PAW double counting   =       456.64370296     -457.43193206
  entropy T*S    EENTRO =         0.02665743
  eigenvalues    EBANDS =       -88.91254903
  atomic energy  EATOM  =       197.04175453
  Solvation  Ediel_sol  =         0.00000000
  ---------------------------------------------------
  free energy    TOTEN  =       -24.01674064 eV

  energy without entropy =      -24.04339807  energy(sigma->0) =      -24.02562645


--------------------------------------------------------------------------------------------------------




--------------------------------------- Iteration      2(   2)  ---------------------------------------


    POTLOK:  cpu time    1.6740: real time    1.6780
    SETDIJ:  cpu time    0.0065: real time    0.0065
    EDDIAG:  cpu time    0.4733: real time    0.4745
  RMM-DIIS:  cpu time    1.6301: real time    1.6340
    ORTHCH:  cpu time    0.0119: real time    0.0120
       DOS:  cpu time    0.0002: real time    0.0002
    CHARGE:  cpu time    0.2134: real time    0.2139
    MIXING:  cpu time    0.0617: real time    0.0619
    --------------------------------------------
      LOOP:  cpu time    4.0713: real time    4.0810

 eigenvalue-minimisations  :    64
 total energy-change (2. order) :-0.1150044E-02  (-0.5052258E-02)
 number of electron       8.0000001 magnetization 
 augmentation part        0.1850265 magnetization 

 Broyden mixing:
  rms(total) = 0.38636E-01    rms(broyden)= 0.38626E-01
  rms(prec ) = 0.50059E-01
  weight for this iteration     100.00

 eigenvalues of (default mixing * dielectric matrix)
  average eigenvalue GAMMA=   2.2042
  8.5095  5.5506  3.8474  3.8474  2.5087  2.5087  2.0864  1.9333  1.3281  1.3281
  1.0186  0.9904  0.9075  0.9075  0.5858  0.7777  0.5160  0.5244

 Free energy of the ion-electron system (eV)
  ---------------------------------------------------
  alpha Z        PSCENC =         0.24225079
  Ewald energy   TEWEN  =       127.36714783
  -Hartree energ DENC   =      -282.32341522
  -exchange      EXHF   =         0.00000000
  -V(xc)+E(xc)   XCENC  =        24.62823741
  PAW double counting   =       441.95402043     -442.73084520
  entropy T*S    EENTRO =         0.02712752
  eigenvalues    EBANDS =       -90.22416877
  atomic energy  EATOM  =       197.04175453
  Solvation  Ediel_sol  =         0.00000000
  ---------------------------------------------------
  free energy    TOTEN  =       -24.01789069 eV

  energy without entropy =      -24.04501820  energy(sigma->0) =      -24.02693319


--------------------------------------------------------------------------------------------------------




--------------------------------------- Iteration      2(   3)  ---------------------------------------


    POTLOK:  cpu time    1.6798: real time    1.6838
    SETDIJ:  cpu time    0.0066: real time    0.0066
    EDDIAG:  cpu time    0.4887: real time    0.4899
  RMM-DIIS:  cpu time    1.6900: real time    1.6940
    ORTHCH:  cpu time    0.0120: real time    0.0120
       DOS:  cpu time    0.0002: real time    0.0002
    CHARGE:  cpu time    0.2095: real time    0.2100
    MIXING:  cpu time    0.0618: real time    0.0619
    --------------------------------------------
      LOOP:  cpu time    4.1486: real time    4.1585

 eigenvalue-minimisations  :    64
 total energy-change (2. order) : 0.5406543E-02  (-0.1255441E-02)
 number of electron       8.0000001 magnetization 
 augmentation part        0.1843402 magnetization 

 Broyden mixing:
  rms(total) = 0.13724E-01    rms(broyden)= 0.13716E-01
  rms(prec ) = 0.17375E-01
  weight for this iteration     100.00

 eigenvalues of (default mixing * dielectric matrix)
  average eigenvalue GAMMA=   2.1599
  8.5095  5.5515  3.8495  3.8495  2.5282  2.5282  2.4334  1.9222  1.3284  1.3284
  0.9061  0.9061  1.0058  1.0058  0.9815  0.7787  0.5858  0.5160  0.5244

 Free energy of the ion-electron system (eV)
  ---------------------------------------------------
  alpha Z        PSCENC =         0.24225079
  Ewald energy   TEWEN  =       127.36714783
  -Hartree energ DENC   =      -283.40169414
  -exchange      EXHF   =         0.00000000
  -V(xc)+E(xc)   XCENC  =        24.68618312
  PAW double counting   =       440.39670338     -441.18043410
  entropy T*S    EENTRO =         0.02934575
  eigenvalues    EBANDS =       -89.19374131
  atomic energy  EATOM  =       197.04175453
  Solvation  Ediel_sol  =         0.00000000
  ---------------------------------------------------
  free energy    TOTEN  =       -24.01248414 eV

  energy without entropy =      -24.04182990  energy(sigma->0) =      -24.02226606


--------------------------------------------------------------------------------------------------------




--------------------------------------- Iteration      2(   4)  ---------------------------------------


    POTLOK:  cpu time    1.7097: real time    1.7138
    SETDIJ:  cpu time    0.0066: real time    0.0066
    EDDIAG:  cpu time    0.4925: real time    0.4937
  RMM-DIIS:  cpu time    1.6763: real time    1.6803
    ORTHCH:  cpu time    0.0120: real time    0.0120
       DOS:  cpu time    0.0002: real time    0.0002
    CHARGE:  cpu time    0.2023: real time    0.2028
    MIXING:  cpu time    0.0691: real time    0.0693
    --------------------------------------------
      LOOP:  cpu time    4.1688: real time    4.1787

 eigenvalue-minimisations  :    64
 total energy-change (2. order) :-0.1937544E-02  (-0.9283603E-04)
 number of electron       8.0000001 magnetization 
 augmentation part        0.1842840 magnetization 

 Broyden mixing:
  rms(total) = 0.10763E-01    rms(broyden)= 0.10761E-01
  rms(prec ) = 0.13975E-01
  weight for this iteration     100.00

 eigenvalues of (default mixing * dielectric matrix)
  average eigenvalue GAMMA=   2.0684
  8.5078  5.5843  3.9008  3.9008  2.5362  2.5362  2.4511  1.9086  1.3287  1.3287
  0.9070  0.9070  1.0142  0.9866  0.9532  0.5858  0.7528  0.5160  0.5246  0.2378

 Free energy of the ion-electron system (eV)
  ---------------------------------------------------
  alpha Z        PSCENC =         0.24225079
[...]
  rms(prec ) = 0.10187E-02
  weight for this iteration     100.00

 eigenvalues of (default mixing * dielectric matrix)
  average eigenvalue GAMMA=   2.2391
  5.0370  4.3927  4.3927  3.9982  3.9982  3.8585  0.7041  0.7041  2.3289  2.3289
  1.9973  1.9973  0.4914  0.6307  0.6307  0.6917  1.3038  1.3038  0.8620  1.0352
  1.0352  1.1918  1.4038  1.4038  1.3900  2.1246  2.1246  3.2692  1.8005  3.0427
  3.0427  2.4830  2.4830  3.0082  2.2272  2.2272  2.2849  2.2849  2.7950  2.7950
  2.7056  2.7056  2.3799  2.4805  2.6475  2.6075  2.6075

 Free energy of the ion-electron system (eV)
  ---------------------------------------------------
  alpha Z        PSCENC =         0.24225079
  Ewald energy   TEWEN  =       126.96251601
  -Hartree energ DENC   =      -282.94687130
  -exchange      EXHF   =         0.00000000
  -V(xc)+E(xc)   XCENC  =        24.65767781
  PAW double counting   =       436.42150711     -437.20261115
  entropy T*S    EENTRO =         0.02525682
  eigenvalues    EBANDS =       -89.18969900
  atomic energy  EATOM  =       197.04175453
  Solvation  Ediel_sol  =         0.00000000
  ---------------------------------------------------
  free energy    TOTEN  =       -23.98821838 eV

  energy without entropy =      -24.01347520  energy(sigma->0) =      -23.99663732


--------------------------------------------------------------------------------------------------------




--------------------------------------- Iteration     10(  12)  ---------------------------------------


    POTLOK:  cpu time    1.7146: real time    1.7186
    SETDIJ:  cpu time    0.0120: real time    0.0120
    EDDIAG:  cpu time    0.4194: real time    0.4206
  RMM-DIIS:  cpu time    1.2389: real time    1.2418
    ORTHCH:  cpu time    0.0109: real time    0.0109
       DOS:  cpu time    0.0002: real time    0.0002
    CHARGE:  cpu time    0.1778: real time    0.1782
    MIXING:  cpu time    0.1466: real time    0.1470
    --------------------------------------------
      LOOP:  cpu time    3.7204: real time    3.7293

 eigenvalue-minimisations  :    56
 total energy-change (2. order) :-0.5579993E-05  (-0.3547624E-06)
 number of electron       8.0000003 magnetization 
 augmentation part        0.1826144 magnetization 

 Broyden mixing:
  rms(total) = 0.63140E-03    rms(broyden)= 0.63039E-03
  rms(prec ) = 0.83561E-03
  weight for this iteration     100.00

 eigenvalues of (default mixing * dielectric matrix)
  average eigenvalue GAMMA=   2.2291
  5.0519  4.3705  4.3705  3.9473  3.8713  3.8713  2.2722  2.2722  0.3634  0.5780
  0.5780  0.5339  2.2136  2.2136  1.2747  1.2747  0.6855  0.8965  1.0495  1.0495
  1.0498  1.0498  1.0533  1.4084  1.4084  2.1488  2.1488  1.5819  2.7259  2.7259
  1.8118  3.0330  3.0330  3.1486  3.0577  2.2481  2.2481  2.3450  2.3450  2.7793
  2.7793  2.3736  2.4687  2.6716  2.6716  2.6650  2.6650  2.6117

 Free energy of the ion-electron system (eV)
  ---------------------------------------------------
  alpha Z        PSCENC =         0.24225079
  Ewald energy   TEWEN  =       126.96251601
  -Hartree energ DENC   =      -282.94552978
  -exchange      EXHF   =         0.00000000
  -V(xc)+E(xc)   XCENC  =        24.65761950
  PAW double counting   =       436.43197474     -437.21306595
  entropy T*S    EENTRO =         0.02519610
  eigenvalues    EBANDS =       -89.19093991
  atomic energy  EATOM  =       197.04175453
  Solvation  Ediel_sol  =         0.00000000
  ---------------------------------------------------
  free energy    TOTEN  =       -23.98822396 eV

  energy without entropy =      -24.01342006  energy(sigma->0) =      -23.99662266


--------------------------------------------------------------------------------------------------------




--------------------------------------- Iteration     10(  13)  ---------------------------------------


    POTLOK:  cpu time    1.7520: real time    1.7563
    SETDIJ:  cpu time    0.0063: real time    0.0063
    EDDIAG:  cpu time    0.3988: real time    0.3998
  RMM-DIIS:  cpu time    1.0901: real time    1.0928
    ORTHCH:  cpu time    0.0111: real time    0.0111
       DOS:  cpu time    0.0002: real time    0.0002
    CHARGE:  cpu time    0.1723: real time    0.1727
    MIXING:  cpu time    0.1516: real time    0.1520
    --------------------------------------------
      LOOP:  cpu time    3.5825: real time    3.5912

 eigenvalue-minimisations  :    48
 total energy-change (2. order) :-0.1238457E-05  (-0.7072961E-07)
 number of electron       8.0000003 magnetization 
 augmentation part        0.1826143 magnetization 

 Broyden mixing:
  rms(total) = 0.20875E-03    rms(broyden)= 0.20827E-03
  rms(prec ) = 0.26242E-03
  weight for this iteration     100.00

 eigenvalues of (default mixing * dielectric matrix)
  average eigenvalue GAMMA=   2.2258
  5.1043  4.3811  4.3811  4.0774  4.0774  2.6668  2.6668  1.9347  1.9347  0.4015
  0.6161  0.6161  0.5615  0.5615  0.8144  0.8144  1.0256  1.0256  1.2882  1.2882
  0.9264  1.0670  3.4400  3.4400  3.4349  1.5420  1.5420  1.3876  1.9324  1.9324
  1.7760  2.8668  2.8668  2.5385  2.5385  3.0409  2.1035  2.2886  2.2886  2.2970
  2.2970  2.8133  2.4634  2.7066  2.7066  2.6511  2.6511  2.6447  2.6447

 Free energy of the ion-electron system (eV)
  ---------------------------------------------------
  alpha Z        PSCENC =         0.24225079
  Ewald energy   TEWEN  =       126.96251601
  -Hartree energ DENC   =      -282.94559552
  -exchange      EXHF   =         0.00000000
  -V(xc)+E(xc)   XCENC  =        24.65760923
  PAW double counting   =       436.43217960     -437.21328339
  entropy T*S    EENTRO =         0.02522881
  eigenvalues    EBANDS =       -89.19088527
  atomic energy  EATOM  =       197.04175453
  Solvation  Ediel_sol  =         0.00000000
  ---------------------------------------------------
  free energy    TOTEN  =       -23.98822520 eV

  energy without entropy =      -24.01345401  energy(sigma->0) =      -23.99663481


--------------------------------------------------------------------------------------------------------




--------------------------------------- Iteration     10(  14)  ---------------------------------------


    POTLOK:  cpu time    1.7677: real time    1.7720
    SETDIJ:  cpu time    0.0063: real time    0.0063
    EDDIAG:  cpu time    0.4302: real time    0.4312
  RMM-DIIS:  cpu time    1.1077: real time    1.1104
    ORTHCH:  cpu time    0.0111: real time    0.0111
       DOS:  cpu time    0.0002: real time    0.0002
    CHARGE:  cpu time    0.1744: real time    0.1748
    MIXING:  cpu time    0.1404: real time    0.1408
    --------------------------------------------
      LOOP:  cpu time    3.6380: real time    3.6469

 eigenvalue-minimisations  :    48
 total energy-change (2. order) :-0.1199208E-05  (-0.3354146E-07)
 number of electron       8.0000003 magnetization 
 augmentation part        0.1826131 magnetization 

 Broyden mixing:
  rms(total) = 0.56539E-04    rms(broyden)= 0.56520E-04
  rms(prec ) = 0.71828E-04
  weight for this iteration     100.00

 eigenvalues of (default mixing * dielectric matrix)
  average eigenvalue GAMMA=   2.2490
  5.2873  4.2470  4.2470  4.1253  3.7024  1.5871  1.5871  0.4036  0.4036  2.8909
  2.8909  0.7029  0.7029  0.8578  0.8578  1.3981  1.3981  0.9278  1.1699  1.1699
  1.1477  2.3332  2.3332  1.4417  3.2219  3.2219  1.8696  1.8696  2.6250  2.6250
  2.9954  2.9324  2.8104  2.6730  2.6730  2.6226  2.6226  2.4061  2.4061  2.2117
  2.2117  2.2336  2.2336  2.4628  2.4628

 Free energy of the ion-electron system (eV)
  ---------------------------------------------------
  alpha Z        PSCENC =         0.24225079
  Ewald energy   TEWEN  =       126.96251601
  -Hartree energ DENC   =      -282.94696523
  -exchange      EXHF   =         0.00000000
  -V(xc)+E(xc)   XCENC  =        24.65767049
  PAW double counting   =       436.42500439     -437.20612998
  entropy T*S    EENTRO =         0.02522519
  eigenvalues    EBANDS =       -89.18955260
  atomic energy  EATOM  =       197.04175453
  Solvation  Ediel_sol  =         0.00000000
  ---------------------------------------------------
  free energy    TOTEN  =       -23.98822640 eV

  energy without entropy =      -24.01345159  energy(sigma->0) =      -23.99663480


--------------------------------------------------------------------------------------------------------




--------------------------------------- Iteration     10(  15)  ---------------------------------------


    POTLOK:  cpu time    1.8187: real time    1.8230
    SETDIJ:  cpu time    0.0065: real time    0.0065
    EDDIAG:  cpu time    0.4292: real time    0.4302
  RMM-DIIS:  cpu time    1.0916: real time    1.0942
    ORTHCH:  cpu time    0.0112: real time    0.0112
       DOS:  cpu time    0.0002: real time    0.0002
    --------------------------------------------
      LOOP:  cpu time    3.3573: real time    3.3652

 eigenvalue-minimisations  :    48
 total energy-change (2. order) :-0.4944575E-06  (-0.1312067E-07)
 number of electron       8.0000003 magnetization 
 augmentation part        0.1826131 magnetization 

 Free energy of the ion-electron system (eV)
  ---------------------------------------------------
  alpha Z        PSCENC =         0.24225079
  Ewald energy   TEWEN  =       126.96251601
  -Hartree energ DENC   =      -282.94743656
  -exchange      EXHF   =         0.00000000
  -V(xc)+E(xc)   XCENC  =        24.65769019
  PAW double counting   =       436.42108341     -437.20221324
  entropy T*S    EENTRO =         0.02522801
  eigenvalues    EBANDS =       -89.18910004
  atomic energy  EATOM  =       197.04175453
  Solvation  Ediel_sol  =         0.00000000
  ---------------------------------------------------
  free energy    TOTEN  =       -23.98822690 eV

  energy without entropy =      -24.01345491  energy(sigma->0) =      -23.99663623


--------------------------------------------------------------------------------------------------------




 average (electrostatic) potential at core
  the test charge radii are     0.5201  0.6991
  (the norm of the test charge is              1.0000)
       1 -41.2121       2 -41.4584       3 -41.5401       4 -41.5873       5 -58.0088



 E-fermi :  -8.9470     XC(G=0):  -0.7042     alpha+bet : -0.2107


 k-point     1 :       0.2500    0.2500    0.2500
  band No.  band energies     occupation 
      1     -16.8423      2.00000
      2      -9.4996      2.00066
      3      -9.1576      2.05956
      4      -9.0930      1.93969
      5      -0.3269      0.00000
      6       0.5540      0.00000
      7       0.6726      0.00000
      8       0.6958      0.00000

 k-point     2 :      -0.2500    0.2500    0.2500
  band No.  band energies     occupation 
      1     -16.8423      2.00000
      2      -9.4995      2.00066
      3      -9.1577      2.05967
      4      -9.0930      1.93964
      5      -0.3271      0.00000
      6       0.5537      0.00000
      7       0.6670      0.00000
      8       0.6975      0.00000

 k-point     3 :       0.2500   -0.2500    0.2500
  band No.  band energies     occupation 
      1     -16.8423      2.00000
      2      -9.4995      2.00066
      3      -9.1576      2.05959
      4      -9.0931      1.94005
      5      -0.3273      0.00000
      6       0.5538      0.00000
      7       0.6626      0.00000
      8       0.7046      0.00000

 k-point     4 :      -0.2500   -0.2500    0.2500
  band No.  band energies     occupation 
      1     -16.8423      2.00000
      2      -9.4996      2.00066
      3      -9.1577      2.05962
      4      -9.0929      1.93954
      5      -0.3269      0.00000
      6       0.5515      0.00000
      7       0.6682      0.00000
      8       0.7025      0.00000


--------------------------------------------------------------------------------------------------------


 soft charge-density along one line, spin component           1
         0         1         2         3         4         5         6         7         8         9
 total charge-density along one line

 pseudopotential strength for first ion, spin component:           1
 -2.337  -4.026  -0.001  -0.001   0.000
 -4.026  -6.851  -0.003  -0.004   0.001
 -0.001  -0.003  -0.338   0.002  -0.001
 -0.001  -0.004   0.002  -0.337  -0.001
  0.000   0.001  -0.001  -0.001  -0.339
 total augmentation occupancy for first ion, spin component:           1
  3.635  -0.669   0.259   0.341  -0.088
 -0.669   0.137  -0.049  -0.065   0.017
  0.259  -0.049   0.024   0.020  -0.006
  0.341  -0.065   0.020   0.036  -0.007
 -0.088   0.017  -0.006  -0.007   0.010


------------------------ aborting loop because EDIFF is reached ----------------------------------------


    CHARGE:  cpu time    0.1642: real time    0.1646
    FORLOC:  cpu time    0.1172: real time    0.1175
    FORNL :  cpu time    0.7052: real time    0.7068
    STRESS:  cpu time    2.0128: real time    2.0176
    FORCOR:  cpu time    1.8302: real time    1.8346
    FORHAR:  cpu time    0.5779: real time    0.5792
    MIXING:  cpu time    0.1394: real time    0.1397
    OFIELD:  cpu time    0.0000: real time    0.0000

  FORCE on cell =-STRESS in cart. coord.  units (eV):
  Direction    XX          YY          ZZ          XY          YZ          ZX
  --------------------------------------------------------------------------------------
  Alpha Z     0.24225     0.24225     0.24225
  Ewald      43.08978    43.74764    40.12504     4.39484     1.95592    -0.77133
  Hartree    94.57622    94.54496    93.82478     1.19857     0.93579    -0.49299
  E(xc)     -27.11272   -27.11247   -27.13145     0.02335     0.01446    -0.00590
  Local    -196.33379  -196.77929  -193.40526    -4.90418    -3.11262     1.54739
  n-local   -15.29097   -15.60652   -15.48580     0.41501    -0.38493     0.00086
  augment     0.12016     0.11689     0.12337    -0.00386     0.00222    -0.00304
  Kinetic   100.04304    99.92367   101.83400    -0.97870    -0.00248    -0.41485
  Fock        0.00000     0.00000     0.00000     0.00000     0.00000     0.00000
  -------------------------------------------------------------------------------------
  Total      -0.66602    -0.92286     0.12693     0.14502    -0.59164    -0.13986
  in kB      -1.06709    -1.47859     0.20336     0.23235    -0.94791    -0.22408
  external pressure =       -0.78 kB  Pullay stress =        0.00 kB

  kinetic pressure (ideal gas correction) =      0.03 kB
  total pressure  =     -0.75 kB
  Total+kin.    -1.004      -1.463       0.230       0.225      -0.934      -0.259

 VOLUME and BASIS-vectors are now :
 -----------------------------------------------------------------------------
  energy-cutoff  :      400.00
  volume of cell :     1000.00
      direct lattice vectors                 reciprocal lattice vectors
    10.000000000  0.000000000  0.000000000     0.100000000  0.000000000  0.000000000
     0.000000000 10.000000000  0.000000000     0.000000000  0.100000000  0.000000000
     0.000000000  0.000000000 10.000000000     0.000000000  0.000000000  0.100000000

  length of vectors
    10.000000000 10.000000000 10.000000000     0.100000000  0.100000000  0.100000000


 FORCES acting on ions
    electron-ion (+dipol)            ewald-force                    non-local-force                 convergence-correction
 -----------------------------------------------------------------------------------------------
   -.923E+01 0.332E+02 0.397E+02   0.103E+02 -.362E+02 -.437E+02   -.102E+01 0.426E+01 0.419E+01   0.920E-04 0.983E-04 0.164E-03
   0.512E+02 -.848E+01 -.238E+01   -.560E+02 0.944E+01 0.268E+01   0.502E+01 -.618E+00 -.188E+00   0.195E-03 -.167E-04 0.875E-04
   -.281E+02 -.440E+02 0.326E+01   0.308E+02 0.483E+02 -.369E+01   -.299E+01 -.501E+01 0.169E+00   -.983E-04 -.151E-03 -.695E-04
   -.127E+02 0.249E+02 -.446E+02   0.140E+02 -.274E+02 0.493E+02   -.135E+01 0.229E+01 -.449E+01   -.790E-04 0.675E-05 -.152E-03
   -.744E+00 -.586E+01 0.366E+01   0.848E+00 0.596E+01 -.459E+01   -.147E+01 0.257E+00 0.111E+00   0.537E-03 0.295E-03 0.117E-03
 -----------------------------------------------------------------------------------------------
   0.368E+00 -.182E+00 -.290E+00   -.178E-14 -.355E-14 0.000E+00   -.181E+01 0.117E+01 -.210E+00   0.646E-03 0.233E-03 0.146E-03


 POSITION                                       TOTAL-FORCE (eV/Angst)
 -----------------------------------------------------------------------------------
      5.22738      3.97827      3.61806         0.015641      1.205543      0.202154
      3.93777      4.85233      4.50651         0.271798      0.340168      0.116451
      5.63252      5.60701      4.38269        -0.301907     -0.699737     -0.263130
      5.29423      4.15800      5.37826        -0.063632     -0.206699      0.269253
      5.03565      4.68045      4.44598        -1.366812      0.352064     -0.825001
 -----------------------------------------------------------------------------------
    total drift:                               -1.444911      0.991339     -0.500273


--------------------------------------------------------------------------------------------------------



  FREE ENERGIE OF THE ION-ELECTRON SYSTEM (eV)
  ---------------------------------------------------
  free  energy   TOTEN  =       -23.98822690 eV

  energy  without entropy=      -24.01345491  energy(sigma->0) =      -23.99663623

 d Force =-0.6235168E-02[-0.295E-01, 0.170E-01]  d Energy =-0.1281571E-01 0.658E-02
 d Force = 0.3488432E+01[ 0.345E+01, 0.353E+01]  d Ewald  = 0.3488281E+01 0.151E-03


--------------------------------------------------------------------------------------------------------


    POTLOK:  cpu time    1.8093: real time    1.8136


--------------------------------------------------------------------------------------------------------


           RANDOM_SEED =         578492884                0                0
   IONSTEP:  cpu time    0.0001: real time    0.0001

  ENERGY OF THE ELECTRON-ION-THERMOSTAT SYSTEM (eV)
  ---------------------------------------------------
% ion-electron   TOTEN  =       -23.988227  see above
  kinetic energy EKIN   =         0.028990
  kin. lattice  EKIN_LAT=         0.000000  (temperature   56.07 K)
  nose potential ES     =         0.002856
  nose kinetic   EPS    =         0.002090
  ---------------------------------------------------
  total energy   ETOTAL =       -23.954291 eV

  maximum distance moved by ions :      0.44E-02


 mean value of Nose-termostat <S>:     1.091 mean value of <T> :    56.069
 mean temperature <T/S>/<1/S>  :    56.069

    WAVPRE:  cpu time    0.4858: real time    0.4949
    FEWALD:  cpu time    0.0003: real time    0.0003
    ORTHCH:  cpu time    0.2149: real time    0.2154
 Prediction of Wavefunctions ALPHA= 0.733 BETA=-0.269
    POTLOK:  cpu time    1.6814: real time    1.6854
    EDDIAG:  cpu time    0.4319: real time    0.4329
     LOOP+:  cpu time   69.3137: real time   69.5914
    4ORBIT:  cpu time    0.0000: real time    0.0000

 total amount of memory used by VASP MPI-rank0   321797. kBytes
=======================================================================

   base      :      30000. kBytes
   nonlr-proj:        167. kBytes
   fftplans  :      94700. kBytes
   grid      :     169030. kBytes
   one-center:         15. kBytes
   wavefun   :      27885. kBytes

  
  
 General timing and accounting informations for this job:
 ========================================================
  
                  Total CPU time used (sec):      803.986
                            User time (sec):      788.955
                          System time (sec):       15.031
                         Elapsed time (sec):      808.497
  
                   Maximum memory used (kb):      501724.
                   Average memory used (kb):           0.
  
                          Minor page faults:      2212593
                          Major page faults:            0
                 Voluntary context switches:          406
