 running on    1 total cores
 distrk:  each k-point on    1 cores,    1 groups
 distr:  one band on    1 cores,    1 groups
 using from now: INCAR     
 vasp.5.4.4.18Apr17-6-g9f103f2a35 (build Jul 12 2018 13:43:46) complex           
 POSCAR found type information on POSCAR  H  C 
 POSCAR found :  2 types and       5 ions
 scaLAPACK will be used

 ----------------------------------------------------------------------------- 
|                                                                             |
|  ADVICE TO THIS USER RUNNING 'VASP/VAMP'   (HEAR YOUR MASTER'S VOICE ...):  |
|                                                                             |
|      You have a (more or less) 'small supercell' and for smaller cells      |
|      it is recommended  to use the reciprocal-space projection scheme!      |
|      The real space optimization is not  efficient for small cells and it   |
|      is also less accurate ...                                              |
|      Therefore set LREAL=.FALSE. in the  INCAR file                         |
|                                                                             |
 ----------------------------------------------------------------------------- 


 ----------------------------------------------------------------------------- 
|                                                                             |
|           W    W    AA    RRRRR   N    N  II  N    N   GGGG   !!!           |
|           W    W   A  A   R    R  NN   N  II  NN   N  G    G  !!!           |
|           W    W  A    A  R    R  N N  N  II  N N  N  G       !!!           |
|           W WW W  AAAAAA  RRRRR   N  N N  II  N  N N  G  GGG   !            |
|           WW  WW  A    A  R   R   N   NN  II  N   NN  G    G                |
|           W    W  A    A  R    R  N    N  II  N    N   GGGG   !!!           |
|                                                                             |
|     The real-space-projection scheme for the treatment of the nonlocal      |
|     pseudopotentials has been switched on -- but on file POTCAR I have      |
|     not found any entries signalling me that you have ever performed a      |
|     real-space optimization of all nonlocal projectors! BE WARNED that      |
|     a calculation using the real-space-projection scheme together with      |
|     nonlocal projectors which were not real-space-optimized (according      |
|     to the plane-wave-cutoff used in this calculation) might give more      |
|     or less inaccurate results                                              |
|     I hope you know what you are doing                                      |
|                                                                             |
 ----------------------------------------------------------------------------- 

 LDA part: xc-table for Pade appr. of Perdew
 generate k-points for:    2    2    2
 POSCAR, INCAR and KPOINTS ok, starting setup
 FFT: planning ...
 WAVECAR not read
 prediction of wavefunctions initialized - no I/O
 entering main loop
       N       E                     dE             d eps       ncg     rms          rms(c)
DAV:   1     0.139472389530E+02    0.13947E+02   -0.20369E+03    96   0.417E+02
DAV:   2    -0.229960347138E+02   -0.36943E+02   -0.36943E+02    64   0.114E+02
DAV:   3    -0.273591349743E+02   -0.43631E+01   -0.43926E+01    64   0.450E+01
DAV:   4    -0.275367570936E+02   -0.17762E+00   -0.17601E+00   128   0.964E+00
DAV:   5    -0.275368144834E+02   -0.57390E-04   -0.57390E-04    88   0.200E-01    0.872E+00
RMM:   6    -0.246440310357E+02    0.28928E+01   -0.53917E+00    64   0.142E+01    0.427E+00
RMM:   7    -0.241506185324E+02    0.49341E+00   -0.12290E+00    64   0.640E+00    0.226E+00
RMM:   8    -0.240073278505E+02    0.14329E+00   -0.15481E-01    64   0.280E+00    0.430E-01
RMM:   9    -0.240004661241E+02    0.68617E-02   -0.99790E-03    64   0.726E-01    0.222E-01
RMM:  10    -0.239982706294E+02    0.21955E-02   -0.10524E-02    64   0.533E-01    0.145E-01
RMM:  11    -0.239921640426E+02    0.61066E-02   -0.37444E-03    64   0.402E-01    0.104E-01
RMM:  12    -0.239935396266E+02   -0.13756E-02   -0.30128E-04    64   0.121E-01    0.547E-02
RMM:  13    -0.240023867847E+02   -0.88472E-02   -0.43041E-03    64   0.409E-01    0.144E-01
RMM:  14    -0.240030990168E+02   -0.71223E-03   -0.69360E-04    64   0.176E-01    0.372E-02
RMM:  15    -0.240061764127E+02   -0.30774E-02   -0.16104E-03    64   0.246E-01    0.535E-02
RMM:  16    -0.240062527520E+02   -0.76339E-04   -0.11413E-04    64   0.663E-02    0.236E-02
RMM:  17    -0.240064723493E+02   -0.21960E-03   -0.30295E-04    64   0.105E-01    0.192E-02
RMM:  18    -0.240065466065E+02   -0.74257E-04   -0.96852E-06    64   0.247E-02    0.180E-02
RMM:  19    -0.240065512504E+02   -0.46439E-05   -0.35297E-05    64   0.330E-02    0.542E-03
RMM:  20    -0.240065646260E+02   -0.13376E-04   -0.66004E-06    64   0.168E-02    0.898E-04
RMM:  21    -0.240065676791E+02   -0.30531E-05   -0.12152E-06    48   0.812E-03    0.262E-03
RMM:  22    -0.240065685462E+02   -0.86710E-06   -0.17022E-07    48   0.344E-03
    1 T=    19. E= -.23996951E+02 F= -.24006569E+02 E0= -.24018166E+02  EK= 0.95860E-02 SP= 0.00E+00 SK= 0.31E-04
 bond charge predicted
       N       E                     dE             d eps       ncg     rms          rms(c)
DAV:   1    -0.240167406412E+02   -0.10173E-01   -0.11522E+00    64   0.100E+01    0.494E-01
RMM:   2    -0.240178906851E+02   -0.11500E-02   -0.50523E-02    64   0.152E+00    0.386E-01
RMM:   3    -0.240124841419E+02    0.54065E-02   -0.12554E-02    64   0.686E-01    0.137E-01
RMM:   4    -0.240144216857E+02   -0.19375E-02   -0.92836E-04    64   0.212E-01    0.108E-01
RMM:   5    -0.240143212826E+02    0.10040E-03   -0.12190E-04    64   0.738E-02    0.961E-02
RMM:   6    -0.240140978153E+02    0.22347E-03   -0.32512E-04    64   0.119E-01    0.719E-02
RMM:   7    -0.240140057391E+02    0.92076E-04   -0.49376E-04    64   0.146E-01    0.426E-02
RMM:   8    -0.240139786803E+02    0.27059E-04   -0.58452E-05    64   0.526E-02    0.398E-02
RMM:   9    -0.240140385724E+02   -0.59892E-04   -0.23609E-04    64   0.910E-02    0.531E-02
RMM:  10    -0.240139463914E+02    0.92181E-04   -0.23062E-04    64   0.101E-01    0.532E-02
RMM:  11    -0.240138992745E+02    0.47117E-04   -0.10524E-04    64   0.669E-02    0.474E-02
RMM:  12    -0.240138572821E+02    0.41992E-04   -0.22360E-04    64   0.916E-02    0.239E-02
RMM:  13    -0.240138664239E+02   -0.91419E-05   -0.78442E-05    64   0.549E-02    0.685E-03
RMM:  14    -0.240138733061E+02   -0.68822E-05   -0.19428E-05    68   0.283E-02    0.563E-03
RMM:  15    -0.240138761045E+02   -0.27983E-05   -0.65832E-06    64   0.164E-02    0.290E-03
RMM:  16    -0.240138784207E+02   -0.23163E-05   -0.48845E-06    64   0.139E-02    0.281E-03
RMM:  17    -0.240138806269E+02   -0.22061E-05   -0.37039E-07    48   0.449E-03    0.178E-03
RMM:  18    -0.240138809687E+02   -0.34186E-06   -0.80556E-07    48   0.603E-03
    2 T=    58. E= -.23983948E+02 F= -.24013881E+02 E0= -.24026020E+02  EK= 0.30240E-01 SP= -.40E-03 SK= 0.95E-04
 bond charge predicted
 prediction of wavefunctions
       N       E                     dE             d eps       ncg     rms          rms(c)
DAV:   1    -0.240080369090E+02    0.58437E-02   -0.67391E-01    64   0.786E+00    0.628E-01
RMM:   2    -0.239995970235E+02    0.84399E-02   -0.23552E-02    64   0.113E+00    0.411E-01
RMM:   3    -0.239989058084E+02    0.69122E-03   -0.13677E-02    64   0.724E-01    0.398E-01
RMM:   4    -0.239962832993E+02    0.26225E-02   -0.13533E-02    64   0.743E-01    0.233E-01
RMM:   5    -0.239958228546E+02    0.46044E-03   -0.89380E-04    64   0.226E-01    0.205E-01
RMM:   6    -0.239951989403E+02    0.62391E-03   -0.31794E-03    64   0.332E-01    0.732E-02
RMM:   7    -0.239951740055E+02    0.24935E-04   -0.14562E-03    64   0.233E-01    0.232E-02
RMM:   8    -0.239952290561E+02   -0.55051E-04   -0.89027E-05    64   0.687E-02    0.288E-02
RMM:   9    -0.239952213704E+02    0.76858E-05   -0.35909E-05    64   0.402E-02    0.102E-02
RMM:  10    -0.239952340825E+02   -0.12712E-04   -0.13083E-05    64   0.224E-02    0.616E-03
RMM:  11    -0.239952428746E+02   -0.87921E-05   -0.55199E-06    60   0.146E-02    0.323E-03
RMM:  12    -0.239952480309E+02   -0.51563E-05   -0.16759E-06    48   0.940E-03    0.149E-03
RMM:  13    -0.239952498571E+02   -0.18263E-05   -0.12450E-06    48   0.838E-03    0.233E-03
RMM:  14    -0.239952506745E+02   -0.81737E-06   -0.25812E-07    48   0.400E-03
    3 T=    55. E= -.23967328E+02 F= -.23995251E+02 E0= -.24003579E+02  EK= 0.28565E-01 SP= -.70E-03 SK= 0.53E-04
 bond charge predicted
 prediction of wavefunctions
       N       E                     dE             d eps       ncg     rms          rms(c)
DAV:   1    -0.240239278412E+02   -0.28678E-01   -0.31711E-01    64   0.537E+00    0.628E-01
RMM:   2    -0.240252491681E+02   -0.13213E-02   -0.19715E-01    64   0.284E+00    0.811E-01
RMM:   3    -0.240262585110E+02   -0.10093E-02   -0.15288E-01    64   0.250E+00    0.838E-01
RMM:   4    -0.240320523785E+02   -0.57939E-02   -0.61702E-02    64   0.153E+00    0.951E-01
RMM:   5    -0.240147227104E+02    0.17330E-01   -0.16353E-02    64   0.844E-01    0.558E-01
RMM:   6    -0.240095986846E+02    0.51240E-02   -0.48377E-03    64   0.469E-01    0.356E-01
RMM:   7    -0.240066146137E+02    0.29841E-02   -0.50512E-03    64   0.476E-01    0.144E-01
RMM:   8    -0.240061146297E+02    0.49998E-03   -0.17803E-03    64   0.287E-01    0.470E-02
RMM:   9    -0.240060634747E+02    0.51155E-04   -0.33078E-04    64   0.127E-01    0.196E-02
RMM:  10    -0.240060816084E+02   -0.18134E-04   -0.15609E-04    64   0.821E-02    0.272E-02
RMM:  11    -0.240060963922E+02   -0.14784E-04   -0.16760E-05    64   0.302E-02    0.165E-02
RMM:  12    -0.240060965986E+02   -0.20639E-06   -0.20686E-05    64   0.278E-02    0.735E-03
RMM:  13    -0.240061027701E+02   -0.61715E-05   -0.93874E-06    64   0.194E-02    0.664E-03
RMM:  14    -0.240061060757E+02   -0.33056E-05   -0.27635E-06    56   0.114E-02    0.326E-03
RMM:  15    -0.240061064975E+02   -0.42183E-06   -0.41304E-07    48   0.512E-03
    4 T=    61. E= -.23975514E+02 F= -.24006106E+02 E0= -.24010469E+02  EK= 0.31496E-01 SP= -.92E-03 SK= 0.19E-04
 bond charge predicted
 prediction of wavefunctions
       N       E                     dE             d eps       ncg     rms          rms(c)
DAV:   1    -0.239878755385E+02    0.18231E-01   -0.86199E-01    64   0.902E+00    0.413E-01
RMM:   2    -0.239939453745E+02   -0.60698E-02   -0.26549E-02    64   0.130E+00    0.554E-01
RMM:   3    -0.239860493585E+02    0.78960E-02   -0.34037E-02    64   0.122E+00    0.282E-01
RMM:   4    -0.239875147723E+02   -0.14654E-02   -0.16076E-02    64   0.801E-01    0.226E-01
RMM:   5    -0.239861364695E+02    0.13783E-02   -0.33877E-03    64   0.372E-01    0.101E-01
RMM:   6    -0.239860285384E+02    0.10793E-03   -0.16593E-03    64   0.255E-01    0.419E-02
RMM:   7    -0.239861613371E+02   -0.13280E-03   -0.56909E-04    64   0.150E-01    0.458E-02
RMM:   8    -0.239861467402E+02    0.14597E-04   -0.14075E-04    64   0.736E-02    0.184E-02
RMM:   9    -0.239861982829E+02   -0.51543E-04   -0.51449E-05    64   0.468E-02    0.165E-02
RMM:  10    -0.239862327093E+02   -0.34426E-04   -0.22157E-05    64   0.299E-02    0.194E-02
RMM:  11    -0.239862358717E+02   -0.31624E-05   -0.56764E-05    64   0.498E-02    0.636E-03
RMM:  12    -0.239862381926E+02   -0.23209E-05   -0.57809E-06    64   0.164E-02    0.318E-03
RMM:  13    -0.239862424026E+02   -0.42100E-05   -0.13492E-06    48   0.772E-03    0.349E-03
RMM:  14    -0.239862437256E+02   -0.13230E-05   -0.65815E-07    48   0.611E-03    0.177E-03
RMM:  15    -0.239862446248E+02   -0.89929E-06   -0.28268E-07    48   0.416E-03
    5 T=    58. E= -.23957224E+02 F= -.23986245E+02 E0= -.23990210E+02  EK= 0.30030E-01 SP= -.10E-02 SK= 0.10E-05
 bond charge predicted
 prediction of wavefunctions
       N       E                     dE             d eps       ncg     rms          rms(c)
DAV:   1    -0.240066442956E+02   -0.20401E-01   -0.14171E+00    64   0.112E+01    0.616E-01
RMM:   2    -0.240098608501E+02   -0.32166E-02   -0.11123E-01    64   0.225E+00    0.909E-01
RMM:   3    -0.240022790841E+02    0.75818E-02   -0.69800E-02    64   0.167E+00    0.356E-01
RMM:   4    -0.240019340557E+02    0.34503E-03   -0.23717E-02    64   0.102E+00    0.303E-01
RMM:   5    -0.240001731746E+02    0.17609E-02   -0.42808E-03    64   0.412E-01    0.172E-01
RMM:   6    -0.239993787683E+02    0.79441E-03   -0.56706E-03    64   0.478E-01    0.798E-02
RMM:   7    -0.239995476580E+02   -0.16889E-03   -0.43768E-04    64   0.148E-01    0.523E-02
RMM:   8    -0.239996044454E+02   -0.56787E-04   -0.48284E-04    64   0.135E-01    0.249E-02
RMM:   9    -0.239996702588E+02   -0.65813E-04   -0.87983E-05    64   0.605E-02    0.213E-02
RMM:  10    -0.239996905994E+02   -0.20341E-04   -0.47180E-05    64   0.429E-02    0.718E-03
RMM:  11    -0.239997045756E+02   -0.13976E-04   -0.68649E-06    64   0.162E-02    0.251E-03
RMM:  12    -0.239997109976E+02   -0.64220E-05   -0.25159E-06    52   0.113E-02    0.365E-03
RMM:  13    -0.239997121141E+02   -0.11165E-05   -0.21068E-06    54   0.881E-03    0.305E-03
RMM:  14    -0.239997140186E+02   -0.19045E-05   -0.48394E-07    48   0.517E-03    0.205E-03
RMM:  15    -0.239997153014E+02   -0.12828E-05   -0.19967E-07    48   0.320E-03    0.885E-04
RMM:  16    -0.239997160943E+02   -0.79285E-06   -0.54331E-08    40   0.188E-03
    6 T=    71. E= -.23964207E+02 F= -.23999716E+02 E0= -.24008214E+02  EK= 0.36488E-01 SP= -.10E-02 SK= 0.17E-04
 bond charge predicted
 prediction of wavefunctions
       N       E                     dE             d eps       ncg     rms          rms(c)
DAV:   1    -0.240028135077E+02   -0.30982E-02   -0.49654E-01    64   0.640E+00    0.560E-01
RMM:   2    -0.239999913589E+02    0.28221E-02   -0.43373E-02    64   0.146E+00    0.260E-01
RMM:   3    -0.239998156928E+02    0.17567E-03   -0.24404E-03    64   0.390E-01    0.236E-01
RMM:   4    -0.239993397831E+02    0.47591E-03   -0.28705E-03    64   0.356E-01    0.170E-01
RMM:   5    -0.239982974568E+02    0.10423E-02   -0.14676E-03    64   0.237E-01    0.203E-01
RMM:   6    -0.239970255571E+02    0.12719E-02   -0.16164E-03    64   0.248E-01    0.189E-01
RMM:   7    -0.239962345324E+02    0.79102E-03   -0.15548E-03    64   0.240E-01    0.361E-02
RMM:   8    -0.239963737526E+02   -0.13922E-03   -0.74484E-05    64   0.661E-02    0.625E-02
RMM:   9    -0.239963724736E+02    0.12790E-05   -0.14854E-04    64   0.792E-02    0.366E-02
RMM:  10    -0.239964378673E+02   -0.65394E-04   -0.19109E-04    64   0.850E-02    0.501E-02
RMM:  11    -0.239963964293E+02    0.41438E-04   -0.45487E-05    64   0.421E-02    0.985E-03
RMM:  12    -0.239964086415E+02   -0.12212E-04   -0.42137E-06    60   0.138E-02    0.816E-03
RMM:  13    -0.239964157448E+02   -0.71033E-05   -0.53828E-06    64   0.141E-02    0.446E-03
RMM:  14    -0.239964197882E+02   -0.40434E-05   -0.14856E-06    48   0.787E-03    0.868E-03
RMM:  15    -0.239964198028E+02   -0.14632E-07   -0.14819E-06    52   0.806E-03
    7 T=    77. E= -.23956951E+02 F= -.23996420E+02 E0= -.24004783E+02  EK= 0.40026E-01 SP= -.72E-03 SK= 0.16E-03
 bond charge predicted
 prediction of wavefunctions
       N       E                     dE             d eps       ncg     rms          rms(c)
DAV:   1    -0.240154818654E+02   -0.19062E-01   -0.10706E+00    64   0.957E+00    0.813E-01
RMM:   2    -0.240123356183E+02    0.31462E-02   -0.59324E-02    64   0.168E+00    0.380E-01
RMM:   3    -0.240104642409E+02    0.18714E-02   -0.86633E-03    64   0.651E-01    0.275E-01
RMM:   4    -0.240084028386E+02    0.20614E-02   -0.25951E-02    64   0.943E-01    0.216E-01
RMM:   5    -0.240068701243E+02    0.15327E-02   -0.55904E-03    64   0.457E-01    0.954E-02
RMM:   6    -0.240075644353E+02   -0.69431E-03   -0.20720E-03    64   0.294E-01    0.178E-01
RMM:   7    -0.240071755413E+02    0.38889E-03   -0.25382E-04    64   0.113E-01    0.132E-01
RMM:   8    -0.240070089968E+02    0.16654E-03   -0.10009E-03    64   0.194E-01    0.954E-02
RMM:   9    -0.240068771415E+02    0.13186E-03   -0.10909E-04    64   0.713E-02    0.505E-02
RMM:  10    -0.240069168459E+02   -0.39704E-04   -0.21759E-04    64   0.964E-02    0.823E-02
RMM:  11    -0.240068426953E+02    0.74151E-04   -0.24058E-04    64   0.957E-02    0.343E-02
RMM:  12    -0.240068616150E+02   -0.18920E-04   -0.34284E-05    64   0.422E-02    0.104E-02
RMM:  13    -0.240068874591E+02   -0.25844E-04   -0.11746E-05    64   0.229E-02    0.163E-02
RMM:  14    -0.240068917084E+02   -0.42493E-05   -0.10803E-05    64   0.201E-02    0.616E-03
RMM:  15    -0.240068964293E+02   -0.47209E-05   -0.43587E-06    60   0.135E-02    0.745E-03
RMM:  16    -0.240068971303E+02   -0.70096E-06   -0.13822E-06    48   0.791E-03
    8 T=   107. E= -.23950729E+02 F= -.24006897E+02 E0= -.24019734E+02  EK= 0.55479E-01 SP= -.92E-04 SK= 0.78E-03
 bond charge predicted
 prediction of wavefunctions
       N       E                     dE             d eps       ncg     rms          rms(c)
DAV:   1    -0.240365107341E+02   -0.29614E-01   -0.16213E+00    64   0.109E+01    0.107E+00
RMM:   2    -0.240298488927E+02    0.66618E-02   -0.14111E-01    64   0.251E+00    0.108E+00
RMM:   3    -0.241108802820E+02   -0.81031E-01   -0.17584E-01    64   0.268E+00    0.166E+00
RMM:   4    -0.240688850872E+02    0.41995E-01   -0.18541E-02    64   0.945E-01    0.135E+00
RMM:   5    -0.240261758307E+02    0.42709E-01   -0.42270E-02    64   0.133E+00    0.772E-01
RMM:   6    -0.240107156728E+02    0.15460E-01   -0.20552E-02    64   0.918E-01    0.465E-01
RMM:   7    -0.240083101049E+02    0.24056E-02   -0.22308E-03    64   0.328E-01    0.433E-01
RMM:   8    -0.240021686017E+02    0.61415E-02   -0.86818E-03    64   0.579E-01    0.189E-01
RMM:   9    -0.240030664032E+02   -0.89780E-03   -0.84319E-04    64   0.213E-01    0.280E-01
RMM:  10    -0.240014254584E+02    0.16409E-02   -0.13997E-03    64   0.236E-01    0.118E-01
RMM:  11    -0.240014876959E+02   -0.62237E-04   -0.17229E-04    64   0.918E-02    0.134E-01
RMM:  12    -0.240011013947E+02    0.38630E-03   -0.41952E-04    64   0.131E-01    0.581E-02
RMM:  13    -0.240010375274E+02    0.63867E-04   -0.22454E-04    64   0.948E-02    0.289E-02
RMM:  14    -0.240010302328E+02    0.72946E-05   -0.68373E-05    64   0.540E-02    0.157E-02
RMM:  15    -0.240010330588E+02   -0.28261E-05   -0.24038E-05    64   0.330E-02    0.751E-03
RMM:  16    -0.240010385460E+02   -0.54871E-05   -0.83445E-06    64   0.195E-02    0.616E-03
RMM:  17    -0.240010404647E+02   -0.19187E-05   -0.39321E-07    48   0.543E-03    0.516E-03
RMM:  18    -0.240010421230E+02   -0.16583E-05   -0.17815E-06    52   0.848E-03    0.307E-03
RMM:  19    -0.240010426042E+02   -0.48116E-06   -0.18681E-07    48   0.342E-03
    9 T=    69. E= -.23962582E+02 F= -.24001043E+02 E0= -.24009349E+02  EK= 0.35486E-01 SP= 0.13E-02 SK= 0.17E-02
 bond charge predicted
 prediction of wavefunctions
       N       E                     dE             d eps       ncg     rms          rms(c)
DAV:   1    -0.239928992785E+02    0.81428E-02   -0.43349E-01    64   0.643E+00    0.389E-01
RMM:   2    -0.240120078661E+02   -0.19109E-01   -0.86104E-02    64   0.189E+00    0.846E-01
RMM:   3    -0.239973256192E+02    0.14682E-01   -0.22692E-02    64   0.999E-01    0.650E-01
RMM:   4    -0.239900264688E+02    0.72992E-02   -0.23043E-02    64   0.975E-01    0.285E-01
RMM:   5    -0.239889696903E+02    0.10568E-02   -0.31456E-03    64   0.375E-01    0.215E-01
RMM:   6    -0.239883026934E+02    0.66700E-03   -0.14749E-03    64   0.254E-01    0.125E-01
RMM:   7    -0.239881423434E+02    0.16035E-03   -0.38140E-04    64   0.129E-01    0.489E-02
RMM:   8    -0.239881669566E+02   -0.24613E-04   -0.18732E-04    64   0.882E-02    0.436E-02
RMM:   9    -0.239881982100E+02   -0.31253E-04   -0.81031E-05    64   0.573E-02    0.216E-02
RMM:  10    -0.239882080576E+02   -0.98477E-05   -0.75042E-06    64   0.193E-02    0.402E-03
RMM:  11    -0.239882183848E+02   -0.10327E-04   -0.26060E-06    52   0.104E-02    0.762E-03
RMM:  12    -0.239882239648E+02   -0.55800E-05   -0.35476E-06    56   0.117E-02    0.631E-03
RMM:  13    -0.239882252033E+02   -0.12385E-05   -0.70730E-07    48   0.582E-03    0.209E-03
RMM:  14    -0.239882264025E+02   -0.11992E-05   -0.33541E-07    48   0.418E-03    0.565E-04
RMM:  15    -0.239882268969E+02   -0.49446E-06   -0.13121E-07    48   0.267E-03
   10 T=    56. E= -.23954291E+02 F= -.23988227E+02 E0= -.23996636E+02  EK= 0.28990E-01 SP= 0.29E-02 SK= 0.21E-02
 bond charge predicted
 prediction of wavefunctions
 wavefunctions rotated
