<?xml version="1.0" encoding="ISO-8859-1"?>
<modeling>
 <generator>
  <i name="program" type="string">vasp </i>
  <i name="version" type="string">5.4.4.18Apr17-6-g9f103f2a35  </i>
  <i name="subversion" type="string">(build Jul 12 2018 13:43:46) complex            parallel </i>
  <i name="platform" type="string">LinuxGNU </i>
  <i name="date" type="string">2019 06 22 </i>
  <i name="time" type="string">02:17:32 </i>
 </generator>
 <incar>
  <i type="int" name="ISTART">     0</i>
  <i type="string" name="PREC">a</i>
  <i type="string" name="ALGO">fast</i>
  <i type="int" name="MAXMIX">    50</i>
  <i type="int" name="ICHARG">     2</i>
  <i type="int" name="IBRION">     0</i>
  <i name="EDIFF">      0.00000100</i>
  <i type="int" name="NSW">    10</i>
  <i type="int" name="ISIF">     2</i>
  <i type="int" name="ISYM">     0</i>
  <i type="int" name="NBLOCK">     1</i>
  <i type="int" name="KBLOCK">   100</i>
  <i name="ENCUT">    400.00000000</i>
  <i name="POTIM">      2.00000000</i>
  <i name="TEBEG">     50.00000000</i>
  <i name="TEEND">     50.00000000</i>
  <i name="SMASS">      0.00000000</i>
  <i type="logical" name="LREAL"> T  </i>
  <i type="int" name="ISMEAR">     1</i>
  <i name="SIGMA">      0.20000000</i>
  <i name="KSPACING">      0.50000000</i>
  <i type="logical" name="KGAMMA"> F  </i>
  <i name="PSTRESS">      0.00000000</i>
  <i type="logical" name="LWAVE"> F  </i>
  <i type="logical" name="LCHARG"> F  </i>
  <v type="int" name="KPOINT_BSE">    -1     0     0     0</v>
 </incar>
 <structure name="primitive_cell" >
  <crystal>
   <varray name="basis" >
    <v>      10.00000000       0.00000000       0.00000000 </v>
    <v>       0.00000000      10.00000000       0.00000000 </v>
    <v>       0.00000000       0.00000000      10.00000000 </v>
   </varray>
   <i name="volume">   1000.00000000 </i>
   <varray name="rec_basis" >
    <v>       0.10000000       0.00000000       0.00000000 </v>
    <v>       0.00000000       0.10000000       0.00000000 </v>
    <v>       0.00000000       0.00000000       0.10000000 </v>
   </varray>
  </crystal>
  <varray name="positions" >
   <v>      -0.46184566       0.40686080       0.36057301 </v>
   <v>      -0.49674941       0.46725516       0.44523234 </v>
   <v>       0.39453966       0.48032057       0.43846884 </v>
   <v>      -0.44790757      -0.43454971       0.44270874 </v>
   <v>      -0.47181470       0.41641476      -0.46081734 </v>
  </varray>
 </structure>
 <varray name="primitive_index" >
  <v type="int" >        1 </v>
  <v type="int" >        5 </v>
  <v type="int" >        2 </v>
  <v type="int" >        3 </v>
  <v type="int" >        4 </v>
 </varray>
 <kpoints>
  <generation param="Monkhorst-Pack">
   <v type="int" name="divisions">       2        2        2 </v>
   <v name="usershift">      0.00000000       0.00000000       0.00000000 </v>
   <v name="genvec1">      0.50000000       0.00000000       0.00000000 </v>
   <v name="genvec2">      0.00000000       0.50000000       0.00000000 </v>
   <v name="genvec3">      0.00000000       0.00000000       0.50000000 </v>
   <v name="shift">      0.50000000       0.50000000       0.50000000 </v>
  </generation>
  <varray name="kpointlist" >
   <v>       0.25000000       0.25000000       0.25000000 </v>
   <v>      -0.25000000       0.25000000       0.25000000 </v>
   <v>       0.25000000      -0.25000000       0.25000000 </v>
   <v>      -0.25000000      -0.25000000       0.25000000 </v>
  </varray>
  <varray name="weights" >
   <v>       0.25000000 </v>
   <v>       0.25000000 </v>
   <v>       0.25000000 </v>
   <v>       0.25000000 </v>
  </varray>
 </kpoints>
 <parameters>
  <separator name="general" >
   <i type="string" name="SYSTEM">unknown system</i>
   <i type="logical" name="LCOMPAT"> F  </i>
  </separator>
  <separator name="electronic" >
   <i type="string" name="PREC">a</i>
   <i name="ENMAX">    400.00000000</i>
   <i name="ENAUG">    644.87300000</i>
   <i name="EDIFF">      0.00000100</i>
   <i type="int" name="IALGO">    68</i>
   <i type="int" name="IWAVPR">    12</i>
   <i type="int" name="NBANDS">     8</i>
   <i name="NELECT">      8.00000000</i>
   <i type="int" name="TURBO">     0</i>
   <i type="int" name="IRESTART">     0</i>
   <i type="int" name="NREBOOT">     0</i>
   <i type="int" name="NMIN">     0</i>
   <i name="EREF">      0.00000000</i>
   <separator name="electronic smearing" >
    <i type="int" name="ISMEAR">     1</i>
    <i name="SIGMA">      0.20000000</i>
    <i name="KSPACING">      0.50000000</i>
    <i type="logical" name="KGAMMA"> F  </i>
   </separator>
   <separator name="electronic projectors" >
    <i type="logical" name="LREAL"> T  </i>
    <v name="ROPT">      0.00000000      0.00000000</v>
    <i type="int" name="LMAXPAW">  -100</i>
    <i type="int" name="LMAXMIX">     2</i>
    <i type="logical" name="NLSPLINE"> F  </i>
   </separator>
   <separator name="electronic startup" >
    <i type="int" name="ISTART">     0</i>
    <i type="int" name="ICHARG">     2</i>
    <i type="int" name="INIWAV">     1</i>
   </separator>
   <separator name="electronic spin" >
    <i type="int" name="ISPIN">     1</i>
    <i type="logical" name="LNONCOLLINEAR"> F  </i>
    <v name="MAGMOM">      1.00000000      1.00000000      1.00000000      1.00000000      1.00000000</v>
    <i name="NUPDOWN">     -1.00000000</i>
    <i type="logical" name="LSORBIT"> F  </i>
    <v name="SAXIS">      0.00000000      0.00000000      1.00000000</v>
    <i type="logical" name="LSPIRAL"> F  </i>
    <v name="QSPIRAL">      0.00000000      0.00000000      0.00000000</v>
    <i type="logical" name="LZEROZ"> F  </i>
   </separator>
   <separator name="electronic exchange-correlation" >
    <i type="logical" name="LASPH"> F  </i>
    <i type="logical" name="LMETAGGA"> F  </i>
   </separator>
   <separator name="electronic convergence" >
    <i type="int" name="NELM">    60</i>
    <i type="int" name="NELMDL">    -5</i>
    <i type="int" name="NELMIN">     2</i>
    <i name="ENINI">    400.00000000</i>
    <separator name="electronic convergence detail" >
     <i type="logical" name="LDIAG"> T  </i>
     <i type="logical" name="LSUBROT"> F  </i>
     <i name="WEIMIN">      0.00100000</i>
     <i name="EBREAK">      0.00000003</i>
     <i name="DEPER">      0.30000000</i>
     <i type="int" name="NRMM">     4</i>
     <i name="TIME">      0.40000000</i>
    </separator>
   </separator>
   <separator name="electronic mixer" >
    <i name="AMIX">      0.40000000</i>
    <i name="BMIX">      1.00000000</i>
    <i name="AMIN">      0.10000000</i>
    <i name="AMIX_MAG">      1.60000000</i>
    <i name="BMIX_MAG">      1.00000000</i>
    <separator name="electronic mixer details" >
     <i type="int" name="IMIX">     4</i>
     <i type="logical" name="MIXFIRST"> F  </i>
     <i type="int" name="MAXMIX">    50</i>
     <i name="WC">    100.00000000</i>
     <i type="int" name="INIMIX">     1</i>
     <i type="int" name="MIXPRE">     1</i>
     <i type="int" name="MREMOVE">     5</i>
    </separator>
   </separator>
   <separator name="electronic dipolcorrection" >
    <i type="logical" name="LDIPOL"> F  </i>
    <i type="logical" name="LMONO"> F  </i>
    <i type="int" name="IDIPOL">     0</i>
    <i name="EPSILON">      1.00000000</i>
    <v name="DIPOL">   -100.00000000   -100.00000000   -100.00000000</v>
    <i name="EFIELD">      0.00000000</i>
   </separator>
  </separator>
  <separator name="grids" >
   <i type="int" name="NGX">    70</i>
   <i type="int" name="NGY">    70</i>
   <i type="int" name="NGZ">    70</i>
   <i type="int" name="NGXF">   140</i>
   <i type="int" name="NGYF">   140</i>
   <i type="int" name="NGZF">   140</i>
   <i type="logical" name="ADDGRID"> F  </i>
  </separator>
  <separator name="ionic" >
   <i type="int" name="NSW">    10</i>
   <i type="int" name="IBRION">     0</i>
   <i type="int" name="MDALGO">     0</i>
   <i type="int" name="ISIF">     2</i>
   <i name="PSTRESS">      0.00000000</i>
   <i name="EDIFFG">      0.00001000</i>
   <i type="int" name="NFREE">     0</i>
   <i name="POTIM">      2.00000000</i>
   <i name="SMASS">      0.00161748</i>
   <i name="SCALEE">      1.00000000</i>
  </separator>
  <separator name="ionic md" >
   <i name="TEBEG">     50.00000000</i>
   <i name="TEEND">     50.00000000</i>
   <i type="int" name="NBLOCK">     1</i>
   <i type="int" name="KBLOCK">     1</i>
   <i type="int" name="NPACO">   256</i>
   <i name="APACO">     16.00000000</i>
  </separator>
  <separator name="symmetry" >
   <i type="int" name="ISYM">     0</i>
   <i name="SYMPREC">      0.00001000</i>
  </separator>
  <separator name="dos" >
   <i type="int" name="LORBIT">     0</i>
   <v name="RWIGS">     -1.00000000     -1.00000000</v>
   <i type="int" name="NEDOS">   301</i>
   <i name="EMIN">     10.00000000</i>
   <i name="EMAX">    -10.00000000</i>
   <i name="EFERMI">      0.00000000</i>
  </separator>
  <separator name="writing" >
   <i type="int" name="NWRITE">     2</i>
   <i type="logical" name="LWAVE"> F  </i>
   <i type="logical" name="LDOWNSAMPLE"> F  </i>
   <i type="logical" name="LCHARG"> F  </i>
   <i type="logical" name="LPARD"> F  </i>
   <i type="logical" name="LVTOT"> F  </i>
   <i type="logical" name="LVHAR"> F  </i>
   <i type="logical" name="LELF"> F  </i>
   <i type="logical" name="LOPTICS"> F  </i>
   <v name="STM">      0.00000000      0.00000000      0.00000000      0.00000000      0.00000000      0.00000000      0.00000000</v>
  </separator>
  <separator name="performance" >
   <i type="int" name="NPAR">     1</i>
   <i type="int" name="NSIM">     4</i>
   <i type="int" name="NBLK">    -1</i>
   <i type="logical" name="LPLANE"> T  </i>
   <i type="logical" name="LSCALAPACK"> T  </i>
   <i type="logical" name="LSCAAWARE"> F  </i>
   <i type="logical" name="LSCALU"> F  </i>
   <i type="logical" name="LASYNC"> F  </i>
   <i type="logical" name="LORBITALREAL"> F  </i>
  </separator>
  <separator name="miscellaneous" >
   <i type="int" name="IDIOT">     3</i>
   <i type="int" name="ISPECIAL">     0</i>
   <i type="logical" name="LMUSIC"> F  </i>
   <v name="POMASS">      1.00000000     12.01100000</v>
   <v name="DARWINR">      0.00000000      0.00000000</v>
   <v name="DARWINV">      1.00000000      1.00000000</v>
   <i type="logical" name="LCORR"> T  </i>
  </separator>
  <i type="logical" name="GGA_COMPAT"> T  </i>
  <i type="logical" name="LBERRY"> F  </i>
  <i type="int" name="ICORELEVEL">     0</i>
  <i type="logical" name="LDAU"> F  </i>
  <i type="int" name="I_CONSTRAINED_M">     0</i>
  <separator name="electronic exchange-correlation" >
   <i type="string" name="GGA">--</i>
   <i type="int" name="VOSKOWN">     0</i>
   <i type="logical" name="LHFCALC"> F  </i>
   <i type="string" name="PRECFOCK"></i>
   <i type="logical" name="LSYMGRAD"> F  </i>
   <i type="logical" name="LHFONE"> F  </i>
   <i type="logical" name="LRHFCALC"> F  </i>
   <i type="logical" name="LTHOMAS"> F  </i>
   <i type="logical" name="LMODELHF"> F  </i>
   <i name="ENCUT4O">     -1.00000000</i>
   <i type="int" name="EXXOEP">     0</i>
   <i type="int" name="FOURORBIT">     0</i>
   <i name="AEXX">      0.00000000</i>
   <i name="HFALPHA">      0.00000000</i>
   <i name="MCALPHA">      0.00000000</i>
   <i name="ALDAX">      1.00000000</i>
   <i name="AGGAX">      1.00000000</i>
   <i name="ALDAC">      1.00000000</i>
   <i name="AGGAC">      1.00000000</i>
   <i type="int" name="NKREDX">     1</i>
   <i type="int" name="NKREDY">     1</i>
   <i type="int" name="NKREDZ">     1</i>
   <i type="logical" name="SHIFTRED"> F  </i>
   <i type="logical" name="ODDONLY"> F  </i>
   <i type="logical" name="EVENONLY"> F  </i>
   <i type="int" name="LMAXFOCK">     0</i>
   <i type="int" name="NMAXFOCKAE">     0</i>
   <i type="logical" name="LFOCKAEDFT"> F  </i>
   <i name="HFSCREEN">      0.00000000</i>
   <i name="HFSCREENC">      0.00000000</i>
   <i type="int" name="NBANDSGWLOW">     0</i>
  </separator>
  <separator name="vdW DFT" >
   <i type="logical" name="LUSE_VDW"> F  </i>
   <i name="Zab_VDW">     -0.84910000</i>
   <i name="PARAM1">      0.12340000</i>
   <i name="PARAM2">      1.00000000</i>
   <i name="PARAM3">      0.00000000</i>
  </separator>
  <separator name="model GW" >
   <i type="int" name="MODEL_GW">     0</i>
   <i name="MODEL_EPS0">    120.00000000</i>
   <i name="MODEL_ALPHA">      1.00000000</i>
  </separator>
  <separator name="linear response parameters" >
   <i type="logical" name="LEPSILON"> F  </i>
   <i type="logical" name="LRPA"> F  </i>
   <i type="logical" name="LNABLA"> F  </i>
   <i type="logical" name="LVEL"> F  </i>
   <i type="int" name="KINTER">     0</i>
   <i name="CSHIFT">      0.10000000</i>
   <i name="OMEGAMAX">     -1.00000000</i>
   <i name="DEG_THRESHOLD">      0.00200000</i>
   <i name="RTIME">     -0.10000000</i>
   <i name="WPLASMAI">      0.00000000</i>
   <v name="DFIELD">      0.00000000      0.00000000      0.00000000</v>
   <v name="WPLASMA">      0.00000000      0.00000000      0.00000000      0.00000000      0.00000000      0.00000000      0.00000000      0.00000000      0.00000000</v>
  </separator>
  <separator name="orbital magnetization" >
   <i type="logical" name="NUCIND"> F  </i>
   <v name="MAGPOS">      0.00000000      0.00000000      0.00000000</v>
   <i type="logical" name="LNICSALL"> T  </i>
   <i type="logical" name="ORBITALMAG"> F  </i>
   <i type="logical" name="LMAGBLOCH"> F  </i>
   <i type="logical" name="LCHIMAG"> F  </i>
   <i type="logical" name="LGAUGE"> T  </i>
   <i type="int" name="MAGATOM">     0</i>
   <v name="MAGDIPOL">      0.00000000      0.00000000      0.00000000</v>
   <v name="AVECCONST">      0.00000000      0.00000000      0.00000000</v>
  </separator>
  <separator name="response functions" >
   <i type="logical" name="LADDER"> F  </i>
   <i type="logical" name="LRPAFORCE"> F  </i>
   <i type="logical" name="LFXC"> F  </i>
   <i type="logical" name="LHARTREE"> T  </i>
   <i type="int" name="IBSE">     0</i>
   <v type="int" name="KPOINT">    -1     0     0     0</v>
   <i type="logical" name="LTCTE"> F  </i>
   <i type="logical" name="LTETE"> F  </i>
   <i type="logical" name="LTRIPLET"> F  </i>
   <i type="logical" name="LFXCEPS"> F  </i>
   <i type="logical" name="LFXHEG"> F  </i>
   <i type="int" name="NATURALO">     2</i>
   <i type="logical" name="L2ORDER"> F  </i>
   <i type="logical" name="LMP2LT"> F  </i>
   <i type="logical" name="LUSEW"> F  </i>
   <i name="ENCUTGW">     -2.00000000</i>
   <i name="ENCUTGWSOFT">     -2.00000000</i>
   <i name="ENCUTLF">     -1.00000000</i>
   <i type="int" name="LMAXMP2">    -1</i>
   <i name="SCISSOR">      0.00000000</i>
   <i type="int" name="NOMEGA">     0</i>
   <i type="int" name="NOMEGAR">     0</i>
   <i type="int" name="NBANDSGW">    -1</i>
   <i type="int" name="NBANDSO">    -1</i>
   <i type="int" name="NBANDSV">    -1</i>
   <i type="int" name="NELM">     1</i>
   <i type="int" name="NELMHF">     1</i>
   <i type="int" name="DIM">     3</i>
   <i type="int" name="ANTIRES">     0</i>
   <i name="OMEGAMAX">    -30.00000000</i>
   <i name="OMEGAMIN">    -30.00000000</i>
   <i name="OMEGATL">   -200.00000000</i>
   <i type="int" name="OMEGAGRID">   140</i>
   <i name="CSHIFT">     -0.10000000</i>
   <i type="logical" name="SELFENERGY"> F  </i>
   <i type="logical" name="LSPECTRAL"> F  </i>
   <i type="logical" name="LSPECTRALGW"> F  </i>
   <i type="logical" name="LSINGLES"> F  </i>
   <i type="logical" name="LFERMIGW"> F  </i>
   <i type="logical" name="ODDONLYGW"> F  </i>
   <i type="logical" name="EVENONLYGW"> F  </i>
   <i type="int" name="NKREDLFX">     1</i>
   <i type="int" name="NKREDLFY">     1</i>
   <i type="int" name="NKREDLFZ">     1</i>
   <i type="int" name="MAXMEM">  2800</i>
   <i type="int" name="TELESCOPE">     0</i>
   <i type="int" name="TAUPAR">     1</i>
   <i type="int" name="OMEGAPAR">    -1</i>
   <i name="LAMBDA">      1.00000000</i>
  </separator>
  <separator name="External order field" >
   <i name="OFIELD_KAPPA">      0.00000000</i>
   <v name="OFIELD_K">      0.00000000      0.00000000      0.00000000</v>
   <i name="OFIELD_Q6_NEAR">      0.00000000</i>
   <i name="OFIELD_Q6_FAR">      0.00000000</i>
   <i name="OFIELD_A">      0.00000000</i>
  </separator>
 </parameters>
 <atominfo>
  <atoms>       5 </atoms>
  <types>       2 </types>
  <array name="atoms" >
   <dimension dim="1">ion</dimension>
   <field type="string">element</field>
   <field type="int">atomtype</field>
   <set>
    <rc><c>H </c><c>   1</c></rc>
    <rc><c>H </c><c>   1</c></rc>
    <rc><c>H </c><c>   1</c></rc>
    <rc><c>H </c><c>   1</c></rc>
    <rc><c>C </c><c>   2</c></rc>
   </set>
  </array>
  <array name="atomtypes" >
   <dimension dim="1">type</dimension>
   <field type="int">atomspertype</field>
   <field type="string">element</field>
   <field>mass</field>
   <field>valence</field>
   <field type="string">pseudopotential</field>
   <set>
    <rc><c>   4</c><c>H </c><c>      1.00000000</c><c>      1.00000000</c><c>  PAW_PBE H 15Jun2001                   </c></rc>
    <rc><c>   1</c><c>C </c><c>     12.01100000</c><c>      4.00000000</c><c>  PAW_PBE C 08Apr2002                   </c></rc>
   </set>
  </array>
 </atominfo>
 <structure name="initialpos" >
  <crystal>
   <varray name="basis" >
    <v>      10.00000000       0.00000000       0.00000000 </v>
    <v>       0.00000000      10.00000000       0.00000000 </v>
    <v>       0.00000000       0.00000000      10.00000000 </v>
   </varray>
   <i name="volume">   1000.00000000 </i>
   <varray name="rec_basis" >
    <v>       0.10000000       0.00000000       0.00000000 </v>
    <v>       0.00000000       0.10000000       0.00000000 </v>
    <v>       0.00000000       0.00000000       0.10000000 </v>
   </varray>
  </crystal>
  <varray name="positions" >
   <v>       0.53815434       0.40686080       0.36057301 </v>
   <v>       0.39453966       0.48032057       0.43846884 </v>
   <v>       0.55209243       0.56545029       0.44270874 </v>
   <v>       0.52818530       0.41641476       0.53918266 </v>
   <v>       0.50325059       0.46725516       0.44523234 </v>
  </varray>
  <varray name="velocities" >
   <v>       0.00000000       0.00000000       0.00000000 </v>
   <v>       0.00000000       0.00000000       0.00000000 </v>
   <v>       0.00000000       0.00000000       0.00000000 </v>
   <v>       0.00000000       0.00000000       0.00000000 </v>
   <v>       0.00000000       0.00000000       0.00000000 </v>
  </varray>
 </structure>
 <calculation>
  <scstep>
   <time name="dav">    2.89    2.89</time>
   <time name="total">    4.64    4.65</time>
   <energy>
    <i name="alphaZ">      0.24225079 </i>
    <i name="ewald">    128.68270354 </i>
    <i name="hartreedc">   -243.96695942 </i>
    <i name="XCdc">     22.00907816 </i>
    <i name="pawpsdc">    117.05815612 </i>
    <i name="pawaedc">   -117.66307307 </i>
    <i name="eentropy">      0.00289895 </i>
    <i name="bandstr">    -89.45957065 </i>
    <i name="atom">    197.04175453 </i>
    <i name="e_fr_energy">     13.94723895 </i>
    <i name="e_wo_entrp">     13.94434000 </i>
    <i name="e_0_energy">     13.94627264 </i>
   </energy>
  </scstep>
  <scstep>
   <time name="dav">    2.19    2.19</time>
   <time name="total">    2.19    2.19</time>
   <energy>
    <i name="e_fr_energy">    -22.99603471 </i>
    <i name="e_wo_entrp">    -22.99900731 </i>
    <i name="e_0_energy">    -22.99702558 </i>
   </energy>
  </scstep>
  <scstep>
   <time name="dav">    2.19    2.19</time>
   <time name="total">    2.19    2.19</time>
   <energy>
    <i name="e_fr_energy">    -27.35913497 </i>
    <i name="e_wo_entrp">    -27.39634781 </i>
    <i name="e_0_energy">    -27.37153925 </i>
   </energy>
  </scstep>
  <scstep>
   <time name="dav">    3.92    3.93</time>
   <time name="total">    3.92    3.93</time>
   <energy>
    <i name="e_fr_energy">    -27.53675709 </i>
    <i name="e_wo_entrp">    -27.57166945 </i>
    <i name="e_0_energy">    -27.54839455 </i>
   </energy>
  </scstep>
  <scstep>
   <time name="dav">    2.81    2.82</time>
   <time name="total">    3.06    3.07</time>
   <energy>
    <i name="e_fr_energy">    -27.53681448 </i>
    <i name="e_wo_entrp">    -27.57172684 </i>
    <i name="e_0_energy">    -27.54845194 </i>
   </energy>
  </scstep>
  <scstep>
   <time name="diag">    0.48    0.48</time>
   <time name="diis">    1.58    1.59</time>
   <time name="orth">    0.01    0.01</time>
   <time name="total">    4.21    4.22</time>
   <energy>
    <i name="e_fr_energy">    -24.64403104 </i>
    <i name="e_wo_entrp">    -24.67885700 </i>
    <i name="e_0_energy">    -24.65563969 </i>
   </energy>
  </scstep>
  <scstep>
   <time name="diag">    0.49    0.49</time>
   <time name="diis">    1.56    1.56</time>
   <time name="orth">    0.01    0.01</time>
   <time name="total">    4.19    4.20</time>
   <energy>
    <i name="e_fr_energy">    -24.15061853 </i>
    <i name="e_wo_entrp">    -24.18556761 </i>
    <i name="e_0_energy">    -24.16226823 </i>
   </energy>
  </scstep>
  <scstep>
   <time name="diag">    0.48    0.48</time>
   <time name="diis">    1.56    1.56</time>
   <time name="orth">    0.01    0.01</time>
   <time name="total">    4.20    4.21</time>
   <energy>
    <i name="e_fr_energy">    -24.00732785 </i>
    <i name="e_wo_entrp">    -24.04320143 </i>
    <i name="e_0_energy">    -24.01928571 </i>
   </energy>
  </scstep>
  <scstep>
   <time name="diag">    0.45    0.45</time>
   <time name="diis">    1.59    1.59</time>
   <time name="orth">    0.01    0.01</time>
   <time name="total">    4.23    4.24</time>
   <energy>
    <i name="e_fr_energy">    -24.00046612 </i>
    <i name="e_wo_entrp">    -24.03526858 </i>
    <i name="e_0_energy">    -24.01206694 </i>
   </energy>
  </scstep>
  <scstep>
   <time name="diag">    0.47    0.47</time>
   <time name="diis">    1.60    1.61</time>
   <time name="orth">    0.01    0.01</time>
   <time name="total">    4.24    4.25</time>
   <energy>
    <i name="e_fr_energy">    -23.99827063 </i>
    <i name="e_wo_entrp">    -24.03306285 </i>
    <i name="e_0_energy">    -24.00986804 </i>
   </energy>
  </scstep>
  <scstep>
   <time name="diag">    0.48    0.48</time>
   <time name="diis">    1.64    1.65</time>
   <time name="orth">    0.01    0.01</time>
   <time name="total">    4.16    4.17</time>
   <energy>
    <i name="e_fr_energy">    -23.99216404 </i>
    <i name="e_wo_entrp">    -24.02697029 </i>
    <i name="e_0_energy">    -24.00376613 </i>
   </energy>
  </scstep>
  <scstep>
   <time name="diag">    0.47    0.47</time>
   <time name="diis">    1.61    1.61</time>
   <time name="orth">    0.01    0.01</time>
   <time name="total">    4.14    4.15</time>
   <energy>
    <i name="e_fr_energy">    -23.99353963 </i>
    <i name="e_wo_entrp">    -24.02833640 </i>
    <i name="e_0_energy">    -24.00513855 </i>
   </energy>
  </scstep>
  <scstep>
   <time name="diag">    0.47    0.48</time>
   <time name="diis">    1.65    1.66</time>
   <time name="orth">    0.01    0.01</time>
   <time name="total">    4.06    4.07</time>
   <energy>
    <i name="e_fr_energy">    -24.00238678 </i>
    <i name="e_wo_entrp">    -24.03717459 </i>
    <i name="e_0_energy">    -24.01398272 </i>
   </energy>
  </scstep>
  <scstep>
   <time name="diag">    0.48    0.48</time>
   <time name="diis">    1.68    1.69</time>
   <time name="orth">    0.01    0.01</time>
   <time name="total">    4.10    4.11</time>
   <energy>
    <i name="e_fr_energy">    -24.00309902 </i>
    <i name="e_wo_entrp">    -24.03788972 </i>
    <i name="e_0_energy">    -24.01469592 </i>
   </energy>
  </scstep>
  <scstep>
   <time name="diag">    0.49    0.49</time>
   <time name="diis">    1.66    1.66</time>
   <time name="orth">    0.01    0.01</time>
   <time name="total">    4.05    4.06</time>
   <energy>
    <i name="e_fr_energy">    -24.00617641 </i>
    <i name="e_wo_entrp">    -24.04096620 </i>
    <i name="e_0_energy">    -24.01777301 </i>
   </energy>
  </scstep>
  <scstep>
   <time name="diag">    0.49    0.49</time>
   <time name="diis">    1.64    1.64</time>
   <time name="orth">    0.01    0.01</time>
   <time name="total">    4.00    4.01</time>
   <energy>
    <i name="e_fr_energy">    -24.00625275 </i>
    <i name="e_wo_entrp">    -24.04104512 </i>
    <i name="e_0_energy">    -24.01785021 </i>
   </energy>
  </scstep>
  <scstep>
   <time name="diag">    0.49    0.49</time>
   <time name="diis">    1.59    1.60</time>
   <time name="orth">    0.01    0.01</time>
   <time name="total">    4.03    4.04</time>
   <energy>
    <i name="e_fr_energy">    -24.00647235 </i>
    <i name="e_wo_entrp">    -24.04126304 </i>
    <i name="e_0_energy">    -24.01806924 </i>
   </energy>
  </scstep>
  <scstep>
   <time name="diag">    0.48    0.48</time>
   <time name="diis">    1.63    1.63</time>
   <time name="orth">    0.01    0.01</time>
   <time name="total">    4.10    4.11</time>
   <energy>
    <i name="e_fr_energy">    -24.00654661 </i>
    <i name="e_wo_entrp">    -24.04133703 </i>
    <i name="e_0_energy">    -24.01814341 </i>
   </energy>
  </scstep>
  <scstep>
   <time name="diag">    0.48    0.48</time>
   <time name="diis">    1.62    1.63</time>
   <time name="orth">    0.01    0.01</time>
   <time name="total">    4.06    4.07</time>
   <energy>
    <i name="e_fr_energy">    -24.00655125 </i>
    <i name="e_wo_entrp">    -24.04134242 </i>
    <i name="e_0_energy">    -24.01814831 </i>
   </energy>
  </scstep>
  <scstep>
   <time name="diag">    0.46    0.46</time>
   <time name="diis">    1.58    1.59</time>
   <time name="orth">    0.01    0.01</time>
   <time name="total">    4.08    4.09</time>
   <energy>
    <i name="e_fr_energy">    -24.00656463 </i>
    <i name="e_wo_entrp">    -24.04135575 </i>
    <i name="e_0_energy">    -24.01816167 </i>
   </energy>
  </scstep>
  <scstep>
   <time name="diag">    0.45    0.46</time>
   <time name="diis">    1.25    1.26</time>
   <time name="orth">    0.01    0.01</time>
   <time name="total">    3.79    3.80</time>
   <energy>
    <i name="e_fr_energy">    -24.00656768 </i>
    <i name="e_wo_entrp">    -24.04135905 </i>
    <i name="e_0_energy">    -24.01816480 </i>
   </energy>
  </scstep>
  <scstep>
   <time name="diag">    0.46    0.46</time>
   <time name="diis">    1.25    1.25</time>
   <time name="orth">    0.01    0.01</time>
   <time name="total">    3.54    3.55</time>
   <energy>
    <i name="alphaZ">      0.24225079 </i>
    <i name="ewald">    128.68270354 </i>
    <i name="hartreedc">   -284.50117552 </i>
    <i name="XCdc">     24.74202580 </i>
    <i name="pawpsdc">    456.62838631 </i>
    <i name="pawaedc">   -457.41666132 </i>
    <i name="eentropy">      0.03479119 </i>
    <i name="bandstr">    -89.46064387 </i>
    <i name="atom">    197.04175453 </i>
    <i name="e_fr_energy">    -24.00656855 </i>
    <i name="e_wo_entrp">    -24.04135974 </i>
    <i name="e_0_energy">    -24.01816561 </i>
   </energy>
  </scstep>
  <structure>
   <crystal>
    <varray name="basis" >
     <v>      10.00000000       0.00000000       0.00000000 </v>
     <v>       0.00000000      10.00000000       0.00000000 </v>
     <v>       0.00000000       0.00000000      10.00000000 </v>
    </varray>
    <i name="volume">   1000.00000000 </i>
    <varray name="rec_basis" >
     <v>       0.10000000       0.00000000       0.00000000 </v>
     <v>       0.00000000       0.10000000       0.00000000 </v>
     <v>       0.00000000       0.00000000       0.10000000 </v>
    </varray>
   </crystal>
   <varray name="positions" >
    <v>       0.53815434       0.40686080       0.36057301 </v>
    <v>       0.39453966       0.48032057       0.43846884 </v>
    <v>       0.55209243       0.56545029       0.44270874 </v>
    <v>       0.52818530       0.41641476       0.53918266 </v>
    <v>       0.50325059       0.46725516       0.44523234 </v>
   </varray>
  </structure>
  <varray name="forces" >
   <v>       0.06265910      -0.06065354      -0.48923559 </v>
   <v>       0.62939551       0.45699729       0.89980233 </v>
   <v>       0.21624412       0.28275055       0.05547230 </v>
   <v>       0.13031049      -0.18723421       0.38191785 </v>
   <v>      -0.77127328       0.87911015      -0.37765583 </v>
  </varray>
  <varray name="stress" >
   <v>      -0.55602075       0.61446228      -0.00638778 </v>
   <v>       0.61446228       0.23858644       0.24288486 </v>
   <v>      -0.00638778       0.24288487       0.25460891 </v>
  </varray>
  <energy>
   <i name="e_fr_energy">    -24.00656855 </i>
   <i name="e_wo_entrp">    -24.01816561 </i>
   <i name="e_0_energy">      0.03479119 </i>
   <i name="kinetic">      0.00958599 </i>
   <i name="lattice kinetic">      0.00000000 </i>
   <i name="nosepot">      0.00000000 </i>
   <i name="nosekinetic">      0.00003144 </i>
   <i name="total">    -23.99695111 </i>
  </energy>
  <dos>
   <i name="efermi">     -9.11408220 </i>
   <total>
    <array>
     <dimension dim="1">gridpoints</dimension>
     <dimension dim="2">spin</dimension>
     <field>energy</field>
     <field>total</field>
     <field>integrated</field>
     <set>
      <set comment="spin 1">
       <r>   -18.8829     0.0000     0.0000 </r>
       <r>   -18.8110     0.0000     0.0000 </r>
       <r>   -18.7390     0.0000     0.0000 </r>
       <r>   -18.6671     0.0000     0.0000 </r>
       <r>   -18.5952     0.0000     0.0000 </r>
       <r>   -18.5232    -0.0000    -0.0000 </r>
       <r>   -18.4513    -0.0000    -0.0000 </r>
       <r>   -18.3794    -0.0000    -0.0000 </r>
       <r>   -18.3074    -0.0000    -0.0000 </r>
       <r>   -18.2355    -0.0000    -0.0000 </r>
       <r>   -18.1636    -0.0000    -0.0000 </r>
       <r>   -18.0916    -0.0000    -0.0000 </r>
       <r>   -18.0197    -0.0000    -0.0000 </r>
       <r>   -17.9478    -0.0000    -0.0000 </r>
       <r>   -17.8758    -0.0000    -0.0000 </r>
       <r>   -17.8039    -0.0000    -0.0000 </r>
       <r>   -17.7320    -0.0000    -0.0000 </r>
       <r>   -17.6600    -0.0000    -0.0000 </r>
       <r>   -17.5881    -0.0001    -0.0000 </r>
       <r>   -17.5161    -0.0009    -0.0001 </r>
       <r>   -17.4442    -0.0064    -0.0005 </r>
       <r>   -17.3723    -0.0333    -0.0029 </r>
       <r>   -17.3003    -0.1253    -0.0119 </r>
       <r>   -17.2284    -0.3168    -0.0347 </r>
       <r>   -17.1565    -0.4314    -0.0658 </r>
       <r>   -17.0845     0.1927    -0.0519 </r>
       <r>   -17.0126     2.3737     0.1189 </r>
       <r>   -16.9407     5.7586     0.5331 </r>
       <r>   -16.8687     8.1542     1.1197 </r>
       <r>   -16.7968     7.5008     1.6592 </r>
       <r>   -16.7249     4.3897     1.9750 </r>
       <r>   -16.6529     1.3065     2.0690 </r>
       <r>   -16.5810    -0.2025     2.0544 </r>
       <r>   -16.5091    -0.4256     2.0238 </r>
       <r>   -16.4371    -0.2322     2.0071 </r>
       <r>   -16.3652    -0.0776     2.0015 </r>
       <r>   -16.2932    -0.0180     2.0002 </r>
       <r>   -16.2213    -0.0030     2.0000 </r>
       <r>   -16.1494    -0.0004     2.0000 </r>
       <r>   -16.0774    -0.0000     2.0000 </r>
       <r>   -16.0055    -0.0000     2.0000 </r>
       <r>   -15.9336    -0.0000     2.0000 </r>
       <r>   -15.8616    -0.0000     2.0000 </r>
       <r>   -15.7897    -0.0000     2.0000 </r>
       <r>   -15.7178    -0.0000     2.0000 </r>
       <r>   -15.6458    -0.0000     2.0000 </r>
       <r>   -15.5739     0.0000     2.0000 </r>
       <r>   -15.5020     0.0000     2.0000 </r>
       <r>   -15.4300     0.0000     2.0000 </r>
       <r>   -15.3581     0.0000     2.0000 </r>
       <r>   -15.2862     0.0000     2.0000 </r>
       <r>   -15.2142     0.0000     2.0000 </r>
       <r>   -15.1423     0.0000     2.0000 </r>
       <r>   -15.0703     0.0000     2.0000 </r>
       <r>   -14.9984     0.0000     2.0000 </r>
       <r>   -14.9265     0.0000     2.0000 </r>
       <r>   -14.8545     0.0000     2.0000 </r>
       <r>   -14.7826     0.0000     2.0000 </r>
       <r>   -14.7107     0.0000     2.0000 </r>
       <r>   -14.6387     0.0000     2.0000 </r>
       <r>   -14.5668     0.0000     2.0000 </r>
       <r>   -14.4949     0.0000     2.0000 </r>
       <r>   -14.4229     0.0000     2.0000 </r>
       <r>   -14.3510     0.0000     2.0000 </r>
       <r>   -14.2791     0.0000     2.0000 </r>
       <r>   -14.2071     0.0000     2.0000 </r>
       <r>   -14.1352     0.0000     2.0000 </r>
       <r>   -14.0632     0.0000     2.0000 </r>
       <r>   -13.9913     0.0000     2.0000 </r>
       <r>   -13.9194     0.0000     2.0000 </r>
       <r>   -13.8474     0.0000     2.0000 </r>
       <r>   -13.7755     0.0000     2.0000 </r>
       <r>   -13.7036     0.0000     2.0000 </r>
       <r>   -13.6316     0.0000     2.0000 </r>
       <r>   -13.5597     0.0000     2.0000 </r>
       <r>   -13.4878     0.0000     2.0000 </r>
       <r>   -13.4158     0.0000     2.0000 </r>
       <r>   -13.3439     0.0000     2.0000 </r>
       <r>   -13.2720     0.0000     2.0000 </r>
       <r>   -13.2000     0.0000     2.0000 </r>
       <r>   -13.1281     0.0000     2.0000 </r>
       <r>   -13.0562     0.0000     2.0000 </r>
       <r>   -12.9842     0.0000     2.0000 </r>
       <r>   -12.9123     0.0000     2.0000 </r>
       <r>   -12.8403     0.0000     2.0000 </r>
       <r>   -12.7684     0.0000     2.0000 </r>
       <r>   -12.6965     0.0000     2.0000 </r>
       <r>   -12.6245     0.0000     2.0000 </r>
       <r>   -12.5526     0.0000     2.0000 </r>
       <r>   -12.4807     0.0000     2.0000 </r>
       <r>   -12.4087     0.0000     2.0000 </r>
       <r>   -12.3368     0.0000     2.0000 </r>
       <r>   -12.2649     0.0000     2.0000 </r>
       <r>   -12.1929     0.0000     2.0000 </r>
       <r>   -12.1210     0.0000     2.0000 </r>
       <r>   -12.0491     0.0000     2.0000 </r>
       <r>   -11.9771     0.0000     2.0000 </r>
       <r>   -11.9052     0.0000     2.0000 </r>
       <r>   -11.8333     0.0000     2.0000 </r>
       <r>   -11.7613     0.0000     2.0000 </r>
       <r>   -11.6894     0.0000     2.0000 </r>
       <r>   -11.6174     0.0000     2.0000 </r>
       <r>   -11.5455     0.0000     2.0000 </r>
       <r>   -11.4736     0.0000     2.0000 </r>
       <r>   -11.4016     0.0000     2.0000 </r>
       <r>   -11.3297     0.0000     2.0000 </r>
       <r>   -11.2578     0.0000     2.0000 </r>
       <r>   -11.1858     0.0000     2.0000 </r>
       <r>   -11.1139     0.0000     2.0000 </r>
       <r>   -11.0420     0.0000     2.0000 </r>
       <r>   -10.9700     0.0000     2.0000 </r>
       <r>   -10.8981    -0.0000     2.0000 </r>
       <r>   -10.8262    -0.0000     2.0000 </r>
       <r>   -10.7542    -0.0000     2.0000 </r>
       <r>   -10.6823    -0.0000     2.0000 </r>
       <r>   -10.6104    -0.0000     2.0000 </r>
       <r>   -10.5384    -0.0000     2.0000 </r>
       <r>   -10.4665    -0.0000     2.0000 </r>
       <r>   -10.3945    -0.0000     2.0000 </r>
       <r>   -10.3226    -0.0000     2.0000 </r>
       <r>   -10.2507    -0.0000     2.0000 </r>
       <r>   -10.1787    -0.0000     2.0000 </r>
       <r>   -10.1068    -0.0000     2.0000 </r>
       <r>   -10.0349    -0.0001     2.0000 </r>
       <r>    -9.9629    -0.0006     2.0000 </r>
       <r>    -9.8910    -0.0054     1.9996 </r>
       <r>    -9.8191    -0.0349     1.9970 </r>
       <r>    -9.7471    -0.1640     1.9852 </r>
       <r>    -9.6752    -0.5437     1.9461 </r>
       <r>    -9.6033    -1.1600     1.8627 </r>
       <r>    -9.5313    -1.0437     1.7876 </r>
       <r>    -9.4594     2.2330     1.9483 </r>
       <r>    -9.3875    10.4402     2.6993 </r>
       <r>    -9.3155    20.4957     4.1736 </r>
       <r>    -9.2436    24.9287     5.9669 </r>
       <r>    -9.1716    19.7846     7.3901 </r>
       <r>    -9.0997     9.6215     8.0822 </r>
       <r>    -9.0278     1.7856     8.2107 </r>
       <r>    -8.9558    -1.1320     8.1292 </r>
       <r>    -8.8839    -1.1142     8.0491 </r>
       <r>    -8.8120    -0.5005     8.0131 </r>
       <r>    -8.7400    -0.1465     8.0026 </r>
       <r>    -8.6681    -0.0304     8.0004 </r>
       <r>    -8.5962    -0.0046     8.0000 </r>
       <r>    -8.5242    -0.0005     8.0000 </r>
       <r>    -8.4523    -0.0000     8.0000 </r>
       <r>    -8.3804    -0.0000     8.0000 </r>
       <r>    -8.3084    -0.0000     8.0000 </r>
       <r>    -8.2365    -0.0000     8.0000 </r>
       <r>    -8.1645    -0.0000     8.0000 </r>
       <r>    -8.0926    -0.0000     8.0000 </r>
       <r>    -8.0207    -0.0000     8.0000 </r>
       <r>    -7.9487     0.0000     8.0000 </r>
       <r>    -7.8768     0.0000     8.0000 </r>
       <r>    -7.8049     0.0000     8.0000 </r>
       <r>    -7.7329     0.0000     8.0000 </r>
       <r>    -7.6610     0.0000     8.0000 </r>
       <r>    -7.5891     0.0000     8.0000 </r>
       <r>    -7.5171     0.0000     8.0000 </r>
       <r>    -7.4452     0.0000     8.0000 </r>
       <r>    -7.3733     0.0000     8.0000 </r>
       <r>    -7.3013     0.0000     8.0000 </r>
       <r>    -7.2294     0.0000     8.0000 </r>
       <r>    -7.1575     0.0000     8.0000 </r>
       <r>    -7.0855     0.0000     8.0000 </r>
       <r>    -7.0136     0.0000     8.0000 </r>
       <r>    -6.9416     0.0000     8.0000 </r>
       <r>    -6.8697     0.0000     8.0000 </r>
       <r>    -6.7978     0.0000     8.0000 </r>
       <r>    -6.7258     0.0000     8.0000 </r>
       <r>    -6.6539     0.0000     8.0000 </r>
       <r>    -6.5820     0.0000     8.0000 </r>
       <r>    -6.5100     0.0000     8.0000 </r>
       <r>    -6.4381     0.0000     8.0000 </r>
       <r>    -6.3662     0.0000     8.0000 </r>
       <r>    -6.2942     0.0000     8.0000 </r>
       <r>    -6.2223     0.0000     8.0000 </r>
       <r>    -6.1504     0.0000     8.0000 </r>
       <r>    -6.0784     0.0000     8.0000 </r>
       <r>    -6.0065     0.0000     8.0000 </r>
       <r>    -5.9346     0.0000     8.0000 </r>
       <r>    -5.8626     0.0000     8.0000 </r>
       <r>    -5.7907     0.0000     8.0000 </r>
       <r>    -5.7187     0.0000     8.0000 </r>
       <r>    -5.6468     0.0000     8.0000 </r>
       <r>    -5.5749     0.0000     8.0000 </r>
       <r>    -5.5029     0.0000     8.0000 </r>
       <r>    -5.4310     0.0000     8.0000 </r>
       <r>    -5.3591     0.0000     8.0000 </r>
       <r>    -5.2871     0.0000     8.0000 </r>
       <r>    -5.2152     0.0000     8.0000 </r>
       <r>    -5.1433     0.0000     8.0000 </r>
       <r>    -5.0713     0.0000     8.0000 </r>
       <r>    -4.9994     0.0000     8.0000 </r>
       <r>    -4.9275     0.0000     8.0000 </r>
       <r>    -4.8555     0.0000     8.0000 </r>
       <r>    -4.7836     0.0000     8.0000 </r>
       <r>    -4.7117     0.0000     8.0000 </r>
       <r>    -4.6397     0.0000     8.0000 </r>
       <r>    -4.5678     0.0000     8.0000 </r>
       <r>    -4.4958     0.0000     8.0000 </r>
       <r>    -4.4239     0.0000     8.0000 </r>
       <r>    -4.3520     0.0000     8.0000 </r>
       <r>    -4.2800     0.0000     8.0000 </r>
       <r>    -4.2081     0.0000     8.0000 </r>
       <r>    -4.1362     0.0000     8.0000 </r>
       <r>    -4.0642     0.0000     8.0000 </r>
       <r>    -3.9923     0.0000     8.0000 </r>
       <r>    -3.9204     0.0000     8.0000 </r>
       <r>    -3.8484     0.0000     8.0000 </r>
       <r>    -3.7765     0.0000     8.0000 </r>
       <r>    -3.7046     0.0000     8.0000 </r>
       <r>    -3.6326     0.0000     8.0000 </r>
       <r>    -3.5607     0.0000     8.0000 </r>
       <r>    -3.4888     0.0000     8.0000 </r>
       <r>    -3.4168     0.0000     8.0000 </r>
       <r>    -3.3449     0.0000     8.0000 </r>
       <r>    -3.2729     0.0000     8.0000 </r>
       <r>    -3.2010     0.0000     8.0000 </r>
       <r>    -3.1291     0.0000     8.0000 </r>
       <r>    -3.0571     0.0000     8.0000 </r>
       <r>    -2.9852     0.0000     8.0000 </r>
       <r>    -2.9133     0.0000     8.0000 </r>
       <r>    -2.8413     0.0000     8.0000 </r>
       <r>    -2.7694     0.0000     8.0000 </r>
       <r>    -2.6975     0.0000     8.0000 </r>
       <r>    -2.6255     0.0000     8.0000 </r>
       <r>    -2.5536     0.0000     8.0000 </r>
       <r>    -2.4817     0.0000     8.0000 </r>
       <r>    -2.4097     0.0000     8.0000 </r>
       <r>    -2.3378     0.0000     8.0000 </r>
       <r>    -2.2658     0.0000     8.0000 </r>
       <r>    -2.1939     0.0000     8.0000 </r>
       <r>    -2.1220     0.0000     8.0000 </r>
       <r>    -2.0500     0.0000     8.0000 </r>
       <r>    -1.9781    -0.0000     8.0000 </r>
       <r>    -1.9062    -0.0000     8.0000 </r>
       <r>    -1.8342    -0.0000     8.0000 </r>
       <r>    -1.7623    -0.0000     8.0000 </r>
       <r>    -1.6904    -0.0000     8.0000 </r>
       <r>    -1.6184    -0.0000     8.0000 </r>
       <r>    -1.5465    -0.0000     8.0000 </r>
       <r>    -1.4746    -0.0000     8.0000 </r>
       <r>    -1.4026    -0.0000     8.0000 </r>
       <r>    -1.3307    -0.0000     8.0000 </r>
       <r>    -1.2588    -0.0000     8.0000 </r>
       <r>    -1.1868    -0.0000     8.0000 </r>
       <r>    -1.1149    -0.0000     8.0000 </r>
       <r>    -1.0429    -0.0000     8.0000 </r>
       <r>    -0.9710    -0.0005     8.0000 </r>
       <r>    -0.8991    -0.0035     7.9997 </r>
       <r>    -0.8271    -0.0205     7.9982 </r>
       <r>    -0.7552    -0.0859     7.9921 </r>
       <r>    -0.6833    -0.2488     7.9742 </r>
       <r>    -0.6113    -0.4330     7.9430 </r>
       <r>    -0.5394    -0.1411     7.9329 </r>
       <r>    -0.4675     1.5016     8.0409 </r>
       <r>    -0.3955     4.6703     8.3768 </r>
       <r>    -0.3236     7.6700     8.9286 </r>
       <r>    -0.2517     8.0609     9.5085 </r>
       <r>    -0.1797     5.4884     9.9033 </r>
       <r>    -0.1078     2.1379    10.0570 </r>
       <r>    -0.0359     0.0909    10.0636 </r>
       <r>     0.0361    -0.4538    10.0309 </r>
       <r>     0.1080    -0.3766    10.0039 </r>
       <r>     0.1800    -0.3769     9.9767 </r>
       <r>     0.2519    -0.6446     9.9304 </r>
       <r>     0.3238    -0.8239     9.8711 </r>
       <r>     0.3958     0.2106     9.8862 </r>
       <r>     0.4677     4.0125    10.1749 </r>
       <r>     0.5396    10.9351    10.9615 </r>
       <r>     0.6116    18.4049    12.2855 </r>
       <r>     0.6835    21.7789    13.8522 </r>
       <r>     0.7554    18.3616    15.1730 </r>
       <r>     0.8274    10.4764    15.9266 </r>
       <r>     0.8993     3.2431    16.1599 </r>
       <r>     0.9712    -0.3626    16.1338 </r>
       <r>     1.0432    -1.0013    16.0618 </r>
       <r>     1.1151    -0.5869    16.0196 </r>
       <r>     1.1870    -0.2094    16.0045 </r>
       <r>     1.2590    -0.0520    16.0008 </r>
       <r>     1.3309    -0.0094    16.0001 </r>
       <r>     1.4029    -0.0013    16.0000 </r>
       <r>     1.4748    -0.0001    16.0000 </r>
       <r>     1.5467    -0.0000    16.0000 </r>
       <r>     1.6187    -0.0000    16.0000 </r>
       <r>     1.6906    -0.0000    16.0000 </r>
       <r>     1.7625    -0.0000    16.0000 </r>
       <r>     1.8345    -0.0000    16.0000 </r>
       <r>     1.9064    -0.0000    16.0000 </r>
       <r>     1.9783    -0.0000    16.0000 </r>
       <r>     2.0503     0.0000    16.0000 </r>
       <r>     2.1222     0.0000    16.0000 </r>
       <r>     2.1941     0.0000    16.0000 </r>
       <r>     2.2661     0.0000    16.0000 </r>
       <r>     2.3380     0.0000    16.0000 </r>
       <r>     2.4100     0.0000    16.0000 </r>
       <r>     2.4819     0.0000    16.0000 </r>
       <r>     2.5538     0.0000    16.0000 </r>
       <r>     2.6258     0.0000    16.0000 </r>
       <r>     2.6977     0.0000    16.0000 </r>
      </set>
     </set>
    </array>
   </total>
  </dos>
  <time name="totalsc">   93.37   93.60</time>
 </calculation>
 <calculation>
  <scstep>
   <time name="dav">    2.12    2.13</time>
   <time name="total">    4.19    4.20</time>
   <energy>
    <i name="alphaZ">      0.24225079 </i>
    <i name="ewald">    127.36714783 </i>
    <i name="hartreedc">   -283.69525567 </i>
    <i name="XCdc">     24.70148258 </i>
    <i name="pawpsdc">    456.64370296 </i>
    <i name="pawaedc">   -457.43193206 </i>
    <i name="eentropy">      0.02665743 </i>
    <i name="bandstr">    -88.91254903 </i>
    <i name="atom">    197.04175453 </i>
    <i name="e_fr_energy">    -24.01674064 </i>
    <i name="e_wo_entrp">    -24.04339807 </i>
    <i name="e_0_energy">    -24.02562645 </i>
   </energy>
  </scstep>
  <scstep>
   <time name="diag">    0.47    0.47</time>
   <time name="diis">    1.63    1.63</time>
   <time name="orth">    0.01    0.01</time>
   <time name="total">    4.07    4.08</time>
   <energy>
    <i name="e_fr_energy">    -24.01789069 </i>
    <i name="e_wo_entrp">    -24.04501820 </i>
    <i name="e_0_energy">    -24.02693319 </i>
   </energy>
  </scstep>
  <scstep>
   <time name="diag">    0.49    0.49</time>
   <time name="diis">    1.69    1.69</time>
   <time name="orth">    0.01    0.01</time>
   <time name="total">    4.15    4.16</time>
   <energy>
    <i name="e_fr_energy">    -24.01248414 </i>
    <i name="e_wo_entrp">    -24.04182990 </i>
    <i name="e_0_energy">    -24.02226606 </i>
   </energy>
  </scstep>
  <scstep>
   <time name="diag">    0.49    0.49</time>
   <time name="diis">    1.68    1.68</time>
   <time name="orth">    0.01    0.01</time>
   <time name="total">    4.17    4.18</time>
   <energy>
    <i name="e_fr_energy">    -24.01442169 </i>
    <i name="e_wo_entrp">    -24.04484821 </i>
    <i name="e_0_energy">    -24.02456386 </i>
   </energy>
  </scstep>
  <scstep>
   <time name="diag">    0.49    0.49</time>
   <time name="diis">    1.66    1.66</time>
   <time name="orth">    0.01    0.01</time>
   <time name="total">    4.17    4.18</time>
   <energy>
    <i name="e_fr_energy">    -24.01432128 </i>
    <i name="e_wo_entrp">    -24.04519597 </i>
    <i name="e_0_energy">    -24.02461284 </i>
   </energy>
  </scstep>
  <scstep>
   <time name="diag">    0.46    0.46</time>
   <time name="diis">    1.68    1.68</time>
   <time name="orth">    0.01    0.01</time>
   <time name="total">    4.17    4.18</time>
   <energy>
    <i name="e_fr_energy">    -24.01409782 </i>
    <i name="e_wo_entrp">    -24.04644573 </i>
    <i name="e_0_energy">    -24.02488045 </i>
   </energy>
  </scstep>
  <scstep>
   <time name="diag">    0.48    0.48</time>
   <time name="diis">    1.70    1.71</time>
   <time name="orth">    0.01    0.01</time>
   <time name="total">    4.16    4.17</time>
   <energy>
    <i name="e_fr_energy">    -24.01400574 </i>
    <i name="e_wo_entrp">    -24.04774393 </i>
    <i name="e_0_energy">    -24.02525180 </i>
   </energy>
  </scstep>
  <scstep>
   <time name="diag">    0.49    0.49</time>
   <time name="diis">    1.66    1.67</time>
   <time name="orth">    0.01    0.01</time>
   <time name="total">    4.13    4.14</time>
   <energy>
    <i name="e_fr_energy">    -24.01397868 </i>
    <i name="e_wo_entrp">    -24.04795669 </i>
    <i name="e_0_energy">    -24.02530468 </i>
   </energy>
  </scstep>
  <scstep>
   <time name="diag">    0.49    0.49</time>
   <time name="diis">    1.62    1.63</time>
   <time name="orth">    0.01    0.01</time>
   <time name="total">    4.08    4.09</time>
   <energy>
    <i name="e_fr_energy">    -24.01403857 </i>
    <i name="e_wo_entrp">    -24.04805419 </i>
    <i name="e_0_energy">    -24.02537711 </i>
   </energy>
  </scstep>
  <scstep>
   <time name="diag">    0.47    0.47</time>
   <time name="diis">    1.65    1.65</time>
   <time name="orth">    0.01    0.01</time>
   <time name="total">    4.15    4.16</time>
   <energy>
    <i name="e_fr_energy">    -24.01394639 </i>
    <i name="e_wo_entrp">    -24.04920854 </i>
    <i name="e_0_energy">    -24.02570044 </i>
   </energy>
  </scstep>
  <scstep>
   <time name="diag">    0.49    0.49</time>
   <time name="diis">    1.61    1.61</time>
   <time name="orth">    0.01    0.01</time>
   <time name="total">    4.10    4.11</time>
   <energy>
    <i name="e_fr_energy">    -24.01389927 </i>
    <i name="e_wo_entrp">    -24.04978452 </i>
    <i name="e_0_energy">    -24.02586102 </i>
   </energy>
  </scstep>
  <scstep>
   <time name="diag">    0.49    0.49</time>
   <time name="diis">    1.58    1.58</time>
   <time name="orth">    0.01    0.01</time>
   <time name="total">    4.05    4.06</time>
   <energy>
    <i name="e_fr_energy">    -24.01385728 </i>
    <i name="e_wo_entrp">    -24.05036357 </i>
    <i name="e_0_energy">    -24.02602605 </i>
   </energy>
  </scstep>
  <scstep>
   <time name="diag">    0.48    0.48</time>
   <time name="diis">    1.58    1.59</time>
   <time name="orth">    0.01    0.01</time>
   <time name="total">    4.08    4.09</time>
   <energy>
    <i name="e_fr_energy">    -24.01386642 </i>
    <i name="e_wo_entrp">    -24.05043678 </i>
    <i name="e_0_energy">    -24.02605654 </i>
   </energy>
  </scstep>
  <scstep>
   <time name="diag">    0.47    0.47</time>
   <time name="diis">    1.64    1.65</time>
   <time name="orth">    0.01    0.01</time>
   <time name="total">    4.13    4.14</time>
   <energy>
    <i name="e_fr_energy">    -24.01387331 </i>
    <i name="e_wo_entrp">    -24.05044824 </i>
    <i name="e_0_energy">    -24.02606495 </i>
   </energy>
  </scstep>
  <scstep>
   <time name="diag">    0.48    0.48</time>
   <time name="diis">    1.58    1.59</time>
   <time name="orth">    0.01    0.01</time>
   <time name="total">    4.11    4.12</time>
   <energy>
    <i name="e_fr_energy">    -24.01387610 </i>
    <i name="e_wo_entrp">    -24.05032181 </i>
    <i name="e_0_energy">    -24.02602467 </i>
   </energy>
  </scstep>
  <scstep>
   <time name="diag">    0.48    0.48</time>
   <time name="diis">    1.55    1.55</time>
   <time name="orth">    0.01    0.01</time>
   <time name="total">    4.04    4.05</time>
   <energy>
    <i name="e_fr_energy">    -24.01387842 </i>
    <i name="e_wo_entrp">    -24.05021766 </i>
    <i name="e_0_energy">    -24.02599150 </i>
   </energy>
  </scstep>
  <scstep>
   <time name="diag">    0.46    0.46</time>
   <time name="diis">    1.24    1.25</time>
   <time name="orth">    0.01    0.01</time>
   <time name="total">    3.82    3.83</time>
   <energy>
    <i name="e_fr_energy">    -24.01388063 </i>
    <i name="e_wo_entrp">    -24.05025468 </i>
    <i name="e_0_energy">    -24.02600531 </i>
   </energy>
  </scstep>
  <scstep>
   <time name="diag">    0.45    0.45</time>
   <time name="diis">    1.25    1.26</time>
   <time name="orth">    0.01    0.01</time>
   <time name="total">    3.53    3.54</time>
   <energy>
    <i name="alphaZ">      0.24225079 </i>
    <i name="ewald">    127.36714783 </i>
    <i name="hartreedc">   -283.33259840 </i>
    <i name="XCdc">     24.68168299 </i>
    <i name="pawpsdc">    441.30762434 </i>
    <i name="pawaedc">   -442.09215858 </i>
    <i name="eentropy">      0.03641615 </i>
    <i name="bandstr">    -89.26600061 </i>
    <i name="atom">    197.04175453 </i>
    <i name="e_fr_energy">    -24.01388097 </i>
    <i name="e_wo_entrp">    -24.05029712 </i>
    <i name="e_0_energy">    -24.02601969 </i>
   </energy>
  </scstep>
  <structure>
   <crystal>
    <varray name="basis" >
     <v>      10.00000000       0.00000000       0.00000000 </v>
     <v>       0.00000000      10.00000000       0.00000000 </v>
     <v>       0.00000000       0.00000000      10.00000000 </v>
    </varray>
    <i name="volume">   1000.00000000 </i>
    <varray name="rec_basis" >
     <v>       0.10000000       0.00000000       0.00000000 </v>
     <v>       0.00000000       0.10000000       0.00000000 </v>
     <v>       0.00000000       0.00000000       0.10000000 </v>
    </varray>
   </crystal>
   <varray name="positions" >
    <v>       0.53833207       0.40629515       0.35856760 </v>
    <v>       0.39690890       0.48175662       0.44183470 </v>
    <v>       0.55286406       0.56621254       0.44280966 </v>
    <v>       0.52862464       0.41535963       0.54054591 </v>
    <v>       0.50293772       0.46720708       0.44499717 </v>
   </varray>
  </structure>
  <varray name="forces" >
   <v>       0.01207780       0.06426680       0.37221939 </v>
   <v>      -0.74393585      -0.27586412       0.26319281 </v>
   <v>       0.09409939      -0.17004490      -0.10491978 </v>
   <v>      -0.26528453       0.01873586      -0.36348726 </v>
   <v>       0.09698776       0.83606643      -0.39752981 </v>
  </varray>
  <varray name="stress" >
   <v>       0.14140880       0.55820800      -0.12559538 </v>
   <v>       0.55820800      -0.75748973      -0.07266172 </v>
   <v>      -0.12559537      -0.07266172      -1.99886529 </v>
  </varray>
  <energy>
   <i name="e_fr_energy">    -24.01388097 </i>
   <i name="e_wo_entrp">    -24.02601969 </i>
   <i name="e_0_energy">      0.03641615 </i>
   <i name="kinetic">      0.03024030 </i>
   <i name="lattice kinetic">      0.00000000 </i>
   <i name="nosepot">     -0.00040214 </i>
   <i name="nosekinetic">      0.00009514 </i>
   <i name="total">    -23.98394766 </i>
  </energy>
  <dos>
   <i name="efermi">     -9.06266966 </i>
   <total>
    <array>
     <dimension dim="1">gridpoints</dimension>
     <dimension dim="2">spin</dimension>
     <field>energy</field>
     <field>total</field>
     <field>integrated</field>
     <set>
      <set comment="spin 1">
       <r>   -18.8455     0.0000     0.0000 </r>
       <r>   -18.7736     0.0000     0.0000 </r>
       <r>   -18.7018     0.0000     0.0000 </r>
       <r>   -18.6300     0.0000     0.0000 </r>
       <r>   -18.5582     0.0000     0.0000 </r>
       <r>   -18.4863    -0.0000    -0.0000 </r>
       <r>   -18.4145    -0.0000    -0.0000 </r>
       <r>   -18.3427    -0.0000    -0.0000 </r>
       <r>   -18.2708    -0.0000    -0.0000 </r>
       <r>   -18.1990    -0.0000    -0.0000 </r>
       <r>   -18.1272    -0.0000    -0.0000 </r>
       <r>   -18.0554    -0.0000    -0.0000 </r>
       <r>   -17.9835    -0.0000    -0.0000 </r>
       <r>   -17.9117    -0.0000    -0.0000 </r>
       <r>   -17.8399    -0.0000    -0.0000 </r>
       <r>   -17.7681    -0.0000    -0.0000 </r>
       <r>   -17.6962    -0.0000    -0.0000 </r>
       <r>   -17.6244    -0.0000    -0.0000 </r>
       <r>   -17.5526    -0.0001    -0.0000 </r>
       <r>   -17.4808    -0.0008    -0.0001 </r>
       <r>   -17.4089    -0.0060    -0.0005 </r>
       <r>   -17.3371    -0.0318    -0.0028 </r>
       <r>   -17.2653    -0.1208    -0.0115 </r>
       <r>   -17.1934    -0.3094    -0.0337 </r>
       <r>   -17.1216    -0.4346    -0.0649 </r>
       <r>   -17.0498     0.1453    -0.0545 </r>
       <r>   -16.9780     2.2588     0.1078 </r>
       <r>   -16.9061     5.6240     0.5117 </r>
       <r>   -16.8343     8.1087     1.0942 </r>
       <r>   -16.7625     7.5945     1.6396 </r>
       <r>   -16.6907     4.5462     1.9662 </r>
       <r>   -16.6188     1.4174     2.0680 </r>
       <r>   -16.5470    -0.1671     2.0560 </r>
       <r>   -16.4752    -0.4305     2.0251 </r>
       <r>   -16.4033    -0.2426     2.0076 </r>
       <r>   -16.3315    -0.0829     2.0017 </r>
       <r>   -16.2597    -0.0196     2.0003 </r>
       <r>   -16.1879    -0.0034     2.0000 </r>
       <r>   -16.1160    -0.0004     2.0000 </r>
       <r>   -16.0442    -0.0000     2.0000 </r>
       <r>   -15.9724    -0.0000     2.0000 </r>
       <r>   -15.9006    -0.0000     2.0000 </r>
       <r>   -15.8287    -0.0000     2.0000 </r>
       <r>   -15.7569    -0.0000     2.0000 </r>
       <r>   -15.6851    -0.0000     2.0000 </r>
       <r>   -15.6133    -0.0000     2.0000 </r>
       <r>   -15.5414     0.0000     2.0000 </r>
       <r>   -15.4696     0.0000     2.0000 </r>
       <r>   -15.3978     0.0000     2.0000 </r>
       <r>   -15.3259     0.0000     2.0000 </r>
       <r>   -15.2541     0.0000     2.0000 </r>
       <r>   -15.1823     0.0000     2.0000 </r>
       <r>   -15.1105     0.0000     2.0000 </r>
       <r>   -15.0386     0.0000     2.0000 </r>
       <r>   -14.9668     0.0000     2.0000 </r>
       <r>   -14.8950     0.0000     2.0000 </r>
       <r>   -14.8232     0.0000     2.0000 </r>
       <r>   -14.7513     0.0000     2.0000 </r>
       <r>   -14.6795     0.0000     2.0000 </r>
       <r>   -14.6077     0.0000     2.0000 </r>
       <r>   -14.5358     0.0000     2.0000 </r>
       <r>   -14.4640     0.0000     2.0000 </r>
       <r>   -14.3922     0.0000     2.0000 </r>
       <r>   -14.3204     0.0000     2.0000 </r>
       <r>   -14.2485     0.0000     2.0000 </r>
       <r>   -14.1767     0.0000     2.0000 </r>
       <r>   -14.1049     0.0000     2.0000 </r>
       <r>   -14.0331     0.0000     2.0000 </r>
       <r>   -13.9612     0.0000     2.0000 </r>
       <r>   -13.8894     0.0000     2.0000 </r>
       <r>   -13.8176     0.0000     2.0000 </r>
       <r>   -13.7458     0.0000     2.0000 </r>
       <r>   -13.6739     0.0000     2.0000 </r>
       <r>   -13.6021     0.0000     2.0000 </r>
       <r>   -13.5303     0.0000     2.0000 </r>
       <r>   -13.4584     0.0000     2.0000 </r>
       <r>   -13.3866     0.0000     2.0000 </r>
       <r>   -13.3148     0.0000     2.0000 </r>
       <r>   -13.2430     0.0000     2.0000 </r>
       <r>   -13.1711     0.0000     2.0000 </r>
       <r>   -13.0993     0.0000     2.0000 </r>
       <r>   -13.0275     0.0000     2.0000 </r>
       <r>   -12.9557     0.0000     2.0000 </r>
       <r>   -12.8838     0.0000     2.0000 </r>
       <r>   -12.8120     0.0000     2.0000 </r>
       <r>   -12.7402     0.0000     2.0000 </r>
       <r>   -12.6683     0.0000     2.0000 </r>
       <r>   -12.5965     0.0000     2.0000 </r>
       <r>   -12.5247     0.0000     2.0000 </r>
       <r>   -12.4529     0.0000     2.0000 </r>
       <r>   -12.3810     0.0000     2.0000 </r>
       <r>   -12.3092     0.0000     2.0000 </r>
       <r>   -12.2374     0.0000     2.0000 </r>
       <r>   -12.1656     0.0000     2.0000 </r>
       <r>   -12.0937     0.0000     2.0000 </r>
       <r>   -12.0219     0.0000     2.0000 </r>
       <r>   -11.9501     0.0000     2.0000 </r>
       <r>   -11.8783     0.0000     2.0000 </r>
       <r>   -11.8064     0.0000     2.0000 </r>
       <r>   -11.7346     0.0000     2.0000 </r>
       <r>   -11.6628     0.0000     2.0000 </r>
       <r>   -11.5909     0.0000     2.0000 </r>
       <r>   -11.5191     0.0000     2.0000 </r>
       <r>   -11.4473     0.0000     2.0000 </r>
       <r>   -11.3755     0.0000     2.0000 </r>
       <r>   -11.3036     0.0000     2.0000 </r>
       <r>   -11.2318     0.0000     2.0000 </r>
       <r>   -11.1600     0.0000     2.0000 </r>
       <r>   -11.0882     0.0000     2.0000 </r>
       <r>   -11.0163     0.0000     2.0000 </r>
       <r>   -10.9445    -0.0000     2.0000 </r>
       <r>   -10.8727    -0.0000     2.0000 </r>
       <r>   -10.8009    -0.0000     2.0000 </r>
       <r>   -10.7290    -0.0000     2.0000 </r>
       <r>   -10.6572    -0.0000     2.0000 </r>
       <r>   -10.5854    -0.0000     2.0000 </r>
       <r>   -10.5135    -0.0000     2.0000 </r>
       <r>   -10.4417    -0.0000     2.0000 </r>
       <r>   -10.3699    -0.0000     2.0000 </r>
       <r>   -10.2981    -0.0000     2.0000 </r>
       <r>   -10.2262    -0.0000     2.0000 </r>
       <r>   -10.1544    -0.0000     2.0000 </r>
       <r>   -10.0826    -0.0000     2.0000 </r>
       <r>   -10.0108    -0.0003     2.0000 </r>
       <r>    -9.9389    -0.0028     1.9998 </r>
       <r>    -9.8671    -0.0173     1.9985 </r>
       <r>    -9.7953    -0.0799     1.9928 </r>
       <r>    -9.7234    -0.2678     1.9736 </r>
       <r>    -9.6516    -0.6166     1.9293 </r>
       <r>    -9.5798    -0.7981     1.8719 </r>
       <r>    -9.5080     0.2652     1.8910 </r>
       <r>    -9.4361     4.0632     2.1828 </r>
       <r>    -9.3643    10.9054     2.9661 </r>
       <r>    -9.2925    18.2820     4.2793 </r>
       <r>    -9.2207    21.6726     5.8360 </r>
       <r>    -9.1488    18.3818     7.1563 </r>
       <r>    -9.0770    10.5954     7.9173 </r>
       <r>    -9.0052     3.3516     8.1580 </r>
       <r>    -8.9334    -0.3193     8.1351 </r>
       <r>    -8.8615    -1.0024     8.0631 </r>
       <r>    -8.7897    -0.5975     8.0202 </r>
       <r>    -8.7179    -0.2156     8.0047 </r>
       <r>    -8.6460    -0.0540     8.0008 </r>
       <r>    -8.5742    -0.0099     8.0001 </r>
       <r>    -8.5024    -0.0013     8.0000 </r>
       <r>    -8.4306    -0.0001     8.0000 </r>
       <r>    -8.3587    -0.0000     8.0000 </r>
       <r>    -8.2869    -0.0000     8.0000 </r>
       <r>    -8.2151    -0.0000     8.0000 </r>
       <r>    -8.1433    -0.0000     8.0000 </r>
       <r>    -8.0714    -0.0000     8.0000 </r>
       <r>    -7.9996    -0.0000     8.0000 </r>
       <r>    -7.9278    -0.0000     8.0000 </r>
       <r>    -7.8559     0.0000     8.0000 </r>
       <r>    -7.7841     0.0000     8.0000 </r>
       <r>    -7.7123     0.0000     8.0000 </r>
       <r>    -7.6405     0.0000     8.0000 </r>
       <r>    -7.5686     0.0000     8.0000 </r>
       <r>    -7.4968     0.0000     8.0000 </r>
       <r>    -7.4250     0.0000     8.0000 </r>
       <r>    -7.3532     0.0000     8.0000 </r>
       <r>    -7.2813     0.0000     8.0000 </r>
       <r>    -7.2095     0.0000     8.0000 </r>
       <r>    -7.1377     0.0000     8.0000 </r>
       <r>    -7.0659     0.0000     8.0000 </r>
       <r>    -6.9940     0.0000     8.0000 </r>
       <r>    -6.9222     0.0000     8.0000 </r>
       <r>    -6.8504     0.0000     8.0000 </r>
       <r>    -6.7785     0.0000     8.0000 </r>
       <r>    -6.7067     0.0000     8.0000 </r>
       <r>    -6.6349     0.0000     8.0000 </r>
       <r>    -6.5631     0.0000     8.0000 </r>
       <r>    -6.4912     0.0000     8.0000 </r>
       <r>    -6.4194     0.0000     8.0000 </r>
       <r>    -6.3476     0.0000     8.0000 </r>
       <r>    -6.2758     0.0000     8.0000 </r>
       <r>    -6.2039     0.0000     8.0000 </r>
       <r>    -6.1321     0.0000     8.0000 </r>
       <r>    -6.0603     0.0000     8.0000 </r>
       <r>    -5.9884     0.0000     8.0000 </r>
       <r>    -5.9166     0.0000     8.0000 </r>
       <r>    -5.8448     0.0000     8.0000 </r>
       <r>    -5.7730     0.0000     8.0000 </r>
       <r>    -5.7011     0.0000     8.0000 </r>
       <r>    -5.6293     0.0000     8.0000 </r>
       <r>    -5.5575     0.0000     8.0000 </r>
       <r>    -5.4857     0.0000     8.0000 </r>
       <r>    -5.4138     0.0000     8.0000 </r>
       <r>    -5.3420     0.0000     8.0000 </r>
       <r>    -5.2702     0.0000     8.0000 </r>
       <r>    -5.1984     0.0000     8.0000 </r>
       <r>    -5.1265     0.0000     8.0000 </r>
       <r>    -5.0547     0.0000     8.0000 </r>
       <r>    -4.9829     0.0000     8.0000 </r>
       <r>    -4.9110     0.0000     8.0000 </r>
       <r>    -4.8392     0.0000     8.0000 </r>
       <r>    -4.7674     0.0000     8.0000 </r>
       <r>    -4.6956     0.0000     8.0000 </r>
       <r>    -4.6237     0.0000     8.0000 </r>
       <r>    -4.5519     0.0000     8.0000 </r>
       <r>    -4.4801     0.0000     8.0000 </r>
       <r>    -4.4083     0.0000     8.0000 </r>
       <r>    -4.3364     0.0000     8.0000 </r>
       <r>    -4.2646     0.0000     8.0000 </r>
       <r>    -4.1928     0.0000     8.0000 </r>
       <r>    -4.1210     0.0000     8.0000 </r>
       <r>    -4.0491     0.0000     8.0000 </r>
       <r>    -3.9773     0.0000     8.0000 </r>
       <r>    -3.9055     0.0000     8.0000 </r>
       <r>    -3.8336     0.0000     8.0000 </r>
       <r>    -3.7618     0.0000     8.0000 </r>
       <r>    -3.6900     0.0000     8.0000 </r>
       <r>    -3.6182     0.0000     8.0000 </r>
       <r>    -3.5463     0.0000     8.0000 </r>
       <r>    -3.4745     0.0000     8.0000 </r>
       <r>    -3.4027     0.0000     8.0000 </r>
       <r>    -3.3309     0.0000     8.0000 </r>
       <r>    -3.2590     0.0000     8.0000 </r>
       <r>    -3.1872     0.0000     8.0000 </r>
       <r>    -3.1154     0.0000     8.0000 </r>
       <r>    -3.0435     0.0000     8.0000 </r>
       <r>    -2.9717     0.0000     8.0000 </r>
       <r>    -2.8999     0.0000     8.0000 </r>
       <r>    -2.8281     0.0000     8.0000 </r>
       <r>    -2.7562     0.0000     8.0000 </r>
       <r>    -2.6844     0.0000     8.0000 </r>
       <r>    -2.6126     0.0000     8.0000 </r>
       <r>    -2.5408     0.0000     8.0000 </r>
       <r>    -2.4689     0.0000     8.0000 </r>
       <r>    -2.3971     0.0000     8.0000 </r>
       <r>    -2.3253     0.0000     8.0000 </r>
       <r>    -2.2535     0.0000     8.0000 </r>
       <r>    -2.1816     0.0000     8.0000 </r>
       <r>    -2.1098     0.0000     8.0000 </r>
       <r>    -2.0380     0.0000     8.0000 </r>
       <r>    -1.9661    -0.0000     8.0000 </r>
       <r>    -1.8943    -0.0000     8.0000 </r>
       <r>    -1.8225    -0.0000     8.0000 </r>
       <r>    -1.7507    -0.0000     8.0000 </r>
       <r>    -1.6788    -0.0000     8.0000 </r>
       <r>    -1.6070    -0.0000     8.0000 </r>
       <r>    -1.5352    -0.0000     8.0000 </r>
       <r>    -1.4634    -0.0000     8.0000 </r>
       <r>    -1.3915    -0.0000     8.0000 </r>
       <r>    -1.3197    -0.0000     8.0000 </r>
       <r>    -1.2479    -0.0000     8.0000 </r>
       <r>    -1.1760    -0.0000     8.0000 </r>
       <r>    -1.1042    -0.0000     8.0000 </r>
       <r>    -1.0324    -0.0001     8.0000 </r>
       <r>    -0.9606    -0.0008     7.9999 </r>
       <r>    -0.8887    -0.0057     7.9995 </r>
       <r>    -0.8169    -0.0302     7.9974 </r>
       <r>    -0.7451    -0.1161     7.9890 </r>
       <r>    -0.6733    -0.3020     7.9673 </r>
       <r>    -0.6014    -0.4368     7.9360 </r>
       <r>    -0.5296     0.1039     7.9434 </r>
       <r>    -0.4578     2.1594     8.0985 </r>
       <r>    -0.3860     5.5086     8.4942 </r>
       <r>    -0.3141     8.0669     9.0736 </r>
       <r>    -0.2423     7.6646     9.6241 </r>
       <r>    -0.1705     4.6655     9.9592 </r>
       <r>    -0.0986     1.5014    10.0671 </r>
       <r>    -0.0268    -0.1432    10.0568 </r>
       <r>     0.0450    -0.4535    10.0242 </r>
       <r>     0.1168    -0.3408     9.9997 </r>
       <r>     0.1887    -0.3823     9.9723 </r>
       <r>     0.2605    -0.6754     9.9238 </r>
       <r>     0.3323    -0.7831     9.8675 </r>
       <r>     0.4041     0.4890     9.9026 </r>
       <r>     0.4760     4.6262    10.2349 </r>
       <r>     0.5478    11.7088    11.0759 </r>
       <r>     0.6196    18.9006    12.4335 </r>
       <r>     0.6915    21.6467    13.9883 </r>
       <r>     0.7633    17.7013    15.2597 </r>
       <r>     0.8351     9.7484    15.9599 </r>
       <r>     0.9069     2.8123    16.1619 </r>
       <r>     0.9788    -0.4803    16.1274 </r>
       <r>     1.0506    -0.9776    16.0572 </r>
       <r>     1.1224    -0.5492    16.0178 </r>
       <r>     1.1942    -0.1913    16.0040 </r>
       <r>     1.2661    -0.0466    16.0007 </r>
       <r>     1.3379    -0.0083    16.0001 </r>
       <r>     1.4097    -0.0011    16.0000 </r>
       <r>     1.4815    -0.0001    16.0000 </r>
       <r>     1.5534    -0.0000    16.0000 </r>
       <r>     1.6252    -0.0000    16.0000 </r>
       <r>     1.6970    -0.0000    16.0000 </r>
       <r>     1.7689    -0.0000    16.0000 </r>
       <r>     1.8407    -0.0000    16.0000 </r>
       <r>     1.9125    -0.0000    16.0000 </r>
       <r>     1.9843    -0.0000    16.0000 </r>
       <r>     2.0562     0.0000    16.0000 </r>
       <r>     2.1280     0.0000    16.0000 </r>
       <r>     2.1998     0.0000    16.0000 </r>
       <r>     2.2716     0.0000    16.0000 </r>
       <r>     2.3435     0.0000    16.0000 </r>
       <r>     2.4153     0.0000    16.0000 </r>
       <r>     2.4871     0.0000    16.0000 </r>
       <r>     2.5589     0.0000    16.0000 </r>
       <r>     2.6308     0.0000    16.0000 </r>
       <r>     2.7026     0.0000    16.0000 </r>
      </set>
     </set>
    </array>
   </total>
  </dos>
  <time name="totalsc">   81.76   81.96</time>
 </calculation>
 <calculation>
  <scstep>
   <time name="dav">    2.19    2.20</time>
   <time name="total">    4.25    4.26</time>
   <energy>
    <i name="alphaZ">      0.24225079 </i>
    <i name="ewald">    126.16540497 </i>
    <i name="hartreedc">   -282.40884199 </i>
    <i name="XCdc">     24.63557010 </i>
    <i name="pawpsdc">    431.48787699 </i>
    <i name="pawaedc">   -432.27015094 </i>
    <i name="eentropy">      0.02367888 </i>
    <i name="bandstr">    -88.92558025 </i>
    <i name="atom">    197.04175453 </i>
    <i name="e_fr_energy">    -24.00803691 </i>
    <i name="e_wo_entrp">    -24.03171579 </i>
    <i name="e_0_energy">    -24.01592987 </i>
   </energy>
  </scstep>
  <scstep>
   <time name="diag">    0.46    0.46</time>
   <time name="diis">    1.60    1.60</time>
   <time name="orth">    0.01    0.01</time>
   <time name="total">    4.09    4.10</time>
   <energy>
    <i name="e_fr_energy">    -23.99959702 </i>
    <i name="e_wo_entrp">    -24.02531752 </i>
    <i name="e_0_energy">    -24.00817052 </i>
   </energy>
  </scstep>
  <scstep>
   <time name="diag">    0.46    0.46</time>
   <time name="diis">    1.59    1.59</time>
   <time name="orth">    0.01    0.01</time>
   <time name="total">    4.11    4.12</time>
   <energy>
    <i name="e_fr_energy">    -23.99890581 </i>
    <i name="e_wo_entrp">    -24.02479399 </i>
    <i name="e_0_energy">    -24.00753520 </i>
   </energy>
  </scstep>
  <scstep>
   <time name="diag">    0.46    0.47</time>
   <time name="diis">    1.63    1.63</time>
   <time name="orth">    0.01    0.01</time>
   <time name="total">    4.12    4.13</time>
   <energy>
    <i name="e_fr_energy">    -23.99628330 </i>
    <i name="e_wo_entrp">    -24.02106341 </i>
    <i name="e_0_energy">    -24.00454334 </i>
   </energy>
  </scstep>
  <scstep>
   <time name="diag">    0.48    0.48</time>
   <time name="diis">    1.59    1.59</time>
   <time name="orth">    0.01    0.01</time>
   <time name="total">    4.08    4.09</time>
   <energy>
    <i name="e_fr_energy">    -23.99582285 </i>
    <i name="e_wo_entrp">    -24.02083123 </i>
    <i name="e_0_energy">    -24.00415898 </i>
   </energy>
  </scstep>
  <scstep>
   <time name="diag">    0.48    0.48</time>
   <time name="diis">    1.60    1.60</time>
   <time name="orth">    0.01    0.01</time>
   <time name="total">    4.12    4.13</time>
   <energy>
    <i name="e_fr_energy">    -23.99519894 </i>
    <i name="e_wo_entrp">    -24.02010677 </i>
    <i name="e_0_energy">    -24.00350155 </i>
   </energy>
  </scstep>
  <scstep>
   <time name="diag">    0.49    0.49</time>
   <time name="diis">    1.58    1.59</time>
   <time name="orth">    0.01    0.01</time>
   <time name="total">    4.16    4.17</time>
   <energy>
    <i name="e_fr_energy">    -23.99517401 </i>
    <i name="e_wo_entrp">    -24.02019654 </i>
    <i name="e_0_energy">    -24.00351485 </i>
   </energy>
  </scstep>
  <scstep>
   <time name="diag">    0.47    0.47</time>
   <time name="diis">    1.62    1.62</time>
   <time name="orth">    0.01    0.01</time>
   <time name="total">    4.18    4.19</time>
   <energy>
    <i name="e_fr_energy">    -23.99522906 </i>
    <i name="e_wo_entrp">    -24.02028780 </i>
    <i name="e_0_energy">    -24.00358197 </i>
   </energy>
  </scstep>
  <scstep>
   <time name="diag">    0.48    0.48</time>
   <time name="diis">    1.63    1.63</time>
   <time name="orth">    0.01    0.01</time>
   <time name="total">    4.21    4.22</time>
   <energy>
    <i name="e_fr_energy">    -23.99522137 </i>
    <i name="e_wo_entrp">    -24.02022662 </i>
    <i name="e_0_energy">    -24.00355645 </i>
   </energy>
  </scstep>
  <scstep>
   <time name="diag">    0.48    0.48</time>
   <time name="diis">    1.58    1.58</time>
   <time name="orth">    0.01    0.01</time>
   <time name="total">    4.19    4.20</time>
   <energy>
    <i name="e_fr_energy">    -23.99523408 </i>
    <i name="e_wo_entrp">    -24.02021293 </i>
    <i name="e_0_energy">    -24.00356037 </i>
   </energy>
  </scstep>
  <scstep>
   <time name="diag">    0.45    0.46</time>
   <time name="diis">    1.48    1.48</time>
   <time name="orth">    0.01    0.01</time>
   <time name="total">    4.06    4.07</time>
   <energy>
    <i name="e_fr_energy">    -23.99524287 </i>
    <i name="e_wo_entrp">    -24.02023316 </i>
    <i name="e_0_energy">    -24.00357297 </i>
   </energy>
  </scstep>
  <scstep>
   <time name="diag">    0.46    0.46</time>
   <time name="diis">    1.22    1.22</time>
   <time name="orth">    0.01    0.01</time>
   <time name="total">    3.82    3.83</time>
   <energy>
    <i name="e_fr_energy">    -23.99524803 </i>
    <i name="e_wo_entrp">    -24.02023982 </i>
    <i name="e_0_energy">    -24.00357863 </i>
   </energy>
  </scstep>
  <scstep>
   <time name="diag">    0.47    0.47</time>
   <time name="diis">    1.25    1.25</time>
   <time name="orth">    0.01    0.01</time>
   <time name="total">    3.88    3.89</time>
   <energy>
    <i name="e_fr_energy">    -23.99524986 </i>
    <i name="e_wo_entrp">    -24.02023193 </i>
    <i name="e_0_energy">    -24.00357722 </i>
   </energy>
  </scstep>
  <scstep>
   <time name="diag">    0.47    0.47</time>
   <time name="diis">    1.28    1.28</time>
   <time name="orth">    0.01    0.01</time>
   <time name="total">    3.54    3.55</time>
   <energy>
    <i name="alphaZ">      0.24225079 </i>
    <i name="ewald">    126.16540497 </i>
    <i name="hartreedc">   -282.23748950 </i>
    <i name="XCdc">     24.62278559 </i>
    <i name="pawpsdc">    431.21302367 </i>
    <i name="pawaedc">   -431.99307669 </i>
    <i name="eentropy">      0.02498560 </i>
    <i name="bandstr">    -89.07488963 </i>
    <i name="atom">    197.04175453 </i>
    <i name="e_fr_energy">    -23.99525067 </i>
    <i name="e_wo_entrp">    -24.02023627 </i>
    <i name="e_0_energy">    -24.00357921 </i>
   </energy>
  </scstep>
  <structure>
   <crystal>
    <varray name="basis" >
     <v>      10.00000000       0.00000000       0.00000000 </v>
     <v>       0.00000000      10.00000000       0.00000000 </v>
     <v>       0.00000000       0.00000000      10.00000000 </v>
    </varray>
    <i name="volume">   1000.00000000 </i>
    <varray name="rec_basis" >
     <v>       0.10000000       0.00000000       0.00000000 </v>
     <v>       0.00000000       0.10000000       0.00000000 </v>
     <v>       0.00000000       0.00000000       0.10000000 </v>
    </varray>
   </crystal>
   <varray name="positions" >
    <v>       0.53875273       0.40586010       0.35804579 </v>
    <v>       0.39660826       0.48201967       0.44629828 </v>
    <v>       0.55420025       0.56620702       0.44256072 </v>
    <v>       0.52823459       0.41425548       0.54056655 </v>
    <v>       0.50284895       0.46731378       0.44468800 </v>
   </varray>
  </structure>
  <varray name="forces" >
   <v>      -0.25396144       0.24821339       0.22667810 </v>
   <v>      -0.57163278       0.05303463      -0.31945139 </v>
   <v>      -0.32993614      -0.36402097       0.07831807 </v>
   <v>      -0.16615117       0.37868525      -0.71944606 </v>
   <v>       0.85532565       1.13821318       0.01354841 </v>
  </varray>
  <varray name="stress" >
   <v>      -0.01385109       0.03333710       0.29707080 </v>
   <v>       0.03333711      -1.62676047      -0.06533724 </v>
   <v>       0.29707079      -0.06533724      -2.53441958 </v>
  </varray>
  <energy>
   <i name="e_fr_energy">    -23.99525067 </i>
   <i name="e_wo_entrp">    -24.00357921 </i>
   <i name="e_0_energy">      0.02498560 </i>
   <i name="kinetic">      0.02856514 </i>
   <i name="lattice kinetic">      0.00000000 </i>
   <i name="nosepot">     -0.00069605 </i>
   <i name="nosekinetic">      0.00005324 </i>
   <i name="total">    -23.96732835 </i>
  </energy>
  <dos>
   <i name="efermi">     -8.92585106 </i>
   <total>
    <array>
     <dimension dim="1">gridpoints</dimension>
     <dimension dim="2">spin</dimension>
     <field>energy</field>
     <field>total</field>
     <field>integrated</field>
     <set>
      <set comment="spin 1">
       <r>   -18.8151     0.0000     0.0000 </r>
       <r>   -18.7434     0.0000     0.0000 </r>
       <r>   -18.6716     0.0000     0.0000 </r>
       <r>   -18.5999     0.0000     0.0000 </r>
       <r>   -18.5282     0.0000     0.0000 </r>
       <r>   -18.4565    -0.0000    -0.0000 </r>
       <r>   -18.3847    -0.0000    -0.0000 </r>
       <r>   -18.3130    -0.0000    -0.0000 </r>
       <r>   -18.2413    -0.0000    -0.0000 </r>
       <r>   -18.1696    -0.0000    -0.0000 </r>
       <r>   -18.0979    -0.0000    -0.0000 </r>
       <r>   -18.0261    -0.0000    -0.0000 </r>
       <r>   -17.9544    -0.0000    -0.0000 </r>
       <r>   -17.8827    -0.0000    -0.0000 </r>
       <r>   -17.8110    -0.0000    -0.0000 </r>
       <r>   -17.7392    -0.0000    -0.0000 </r>
       <r>   -17.6675    -0.0000    -0.0000 </r>
       <r>   -17.5958    -0.0000    -0.0000 </r>
       <r>   -17.5241    -0.0001    -0.0000 </r>
       <r>   -17.4523    -0.0008    -0.0001 </r>
       <r>   -17.3806    -0.0057    -0.0005 </r>
       <r>   -17.3089    -0.0304    -0.0027 </r>
       <r>   -17.2372    -0.1165    -0.0110 </r>
       <r>   -17.1654    -0.3024    -0.0327 </r>
       <r>   -17.0937    -0.4369    -0.0640 </r>
       <r>   -17.0220     0.1025    -0.0567 </r>
       <r>   -16.9503     2.1522     0.0977 </r>
       <r>   -16.8785     5.4956     0.4918 </r>
       <r>   -16.8068     8.0605     1.0700 </r>
       <r>   -16.7351     7.6784     1.6207 </r>
       <r>   -16.6634     4.6940     1.9574 </r>
       <r>   -16.5916     1.5256     2.0668 </r>
       <r>   -16.5199    -0.1309     2.0574 </r>
       <r>   -16.4482    -0.4342     2.0263 </r>
       <r>   -16.3765    -0.2527     2.0082 </r>
       <r>   -16.3047    -0.0882     2.0018 </r>
       <r>   -16.2330    -0.0213     2.0003 </r>
       <r>   -16.1613    -0.0037     2.0000 </r>
       <r>   -16.0896    -0.0005     2.0000 </r>
       <r>   -16.0178    -0.0000     2.0000 </r>
       <r>   -15.9461    -0.0000     2.0000 </r>
       <r>   -15.8744    -0.0000     2.0000 </r>
       <r>   -15.8027    -0.0000     2.0000 </r>
       <r>   -15.7309    -0.0000     2.0000 </r>
       <r>   -15.6592    -0.0000     2.0000 </r>
       <r>   -15.5875    -0.0000     2.0000 </r>
       <r>   -15.5158     0.0000     2.0000 </r>
       <r>   -15.4440     0.0000     2.0000 </r>
       <r>   -15.3723     0.0000     2.0000 </r>
       <r>   -15.3006     0.0000     2.0000 </r>
       <r>   -15.2289     0.0000     2.0000 </r>
       <r>   -15.1571     0.0000     2.0000 </r>
       <r>   -15.0854     0.0000     2.0000 </r>
       <r>   -15.0137     0.0000     2.0000 </r>
       <r>   -14.9420     0.0000     2.0000 </r>
       <r>   -14.8703     0.0000     2.0000 </r>
       <r>   -14.7985     0.0000     2.0000 </r>
       <r>   -14.7268     0.0000     2.0000 </r>
       <r>   -14.6551     0.0000     2.0000 </r>
       <r>   -14.5834     0.0000     2.0000 </r>
       <r>   -14.5116     0.0000     2.0000 </r>
       <r>   -14.4399     0.0000     2.0000 </r>
       <r>   -14.3682     0.0000     2.0000 </r>
       <r>   -14.2965     0.0000     2.0000 </r>
       <r>   -14.2247     0.0000     2.0000 </r>
       <r>   -14.1530     0.0000     2.0000 </r>
       <r>   -14.0813     0.0000     2.0000 </r>
       <r>   -14.0096     0.0000     2.0000 </r>
[...]
       <r>     0.2626    -0.6976     9.9178 </r>
       <r>     0.3344    -0.6865     9.8685 </r>
       <r>     0.4063     0.8568     9.9300 </r>
       <r>     0.4781     5.2541    10.3074 </r>
       <r>     0.5499    12.2839    11.1897 </r>
       <r>     0.6217    19.0295    12.5564 </r>
       <r>     0.6936    21.2485    14.0826 </r>
       <r>     0.7654    17.0737    15.3089 </r>
       <r>     0.8372     9.2533    15.9735 </r>
       <r>     0.9090     2.5884    16.1594 </r>
       <r>     0.9809    -0.5133    16.1225 </r>
       <r>     1.0527    -0.9481    16.0544 </r>
       <r>     1.1245    -0.5240    16.0168 </r>
       <r>     1.1963    -0.1807    16.0038 </r>
       <r>     1.2681    -0.0437    16.0006 </r>
       <r>     1.3400    -0.0077    16.0001 </r>
       <r>     1.4118    -0.0010    16.0000 </r>
       <r>     1.4836    -0.0001    16.0000 </r>
       <r>     1.5554    -0.0000    16.0000 </r>
       <r>     1.6273    -0.0000    16.0000 </r>
       <r>     1.6991    -0.0000    16.0000 </r>
       <r>     1.7709    -0.0000    16.0000 </r>
       <r>     1.8427    -0.0000    16.0000 </r>
       <r>     1.9146    -0.0000    16.0000 </r>
       <r>     1.9864    -0.0000    16.0000 </r>
       <r>     2.0582     0.0000    16.0000 </r>
       <r>     2.1300     0.0000    16.0000 </r>
       <r>     2.2018     0.0000    16.0000 </r>
       <r>     2.2737     0.0000    16.0000 </r>
       <r>     2.3455     0.0000    16.0000 </r>
       <r>     2.4173     0.0000    16.0000 </r>
       <r>     2.4891     0.0000    16.0000 </r>
       <r>     2.5610     0.0000    16.0000 </r>
       <r>     2.6328     0.0000    16.0000 </r>
       <r>     2.7046     0.0000    16.0000 </r>
      </set>
     </set>
    </array>
   </total>
  </dos>
  <time name="totalsc">   69.31   69.59</time>
  <eigenvalues>
   <array>
    <dimension dim="1">band</dimension>
    <dimension dim="2">kpoint</dimension>
    <dimension dim="3">spin</dimension>
    <field>eigene</field>
    <field>occ</field>
    <set>
     <set comment="spin 1">
      <set comment="kpoint 1">
       <r>  -16.9269    1.0000 </r>
       <r>   -9.6268    1.0000 </r>
       <r>   -9.2917    1.0057 </r>
       <r>   -9.0351    0.9943 </r>
       <r>   -0.3273    0.0000 </r>
       <r>    0.5722    0.0000 </r>
       <r>    0.6606    0.0000 </r>
       <r>    0.7051    0.0000 </r>
      </set>
      <set comment="kpoint 2">
       <r>  -16.9268    1.0000 </r>
       <r>   -9.6268    1.0000 </r>
       <r>   -9.2918    1.0057 </r>
       <r>   -9.0351    0.9943 </r>
       <r>   -0.3268    0.0000 </r>
       <r>    0.5564    0.0000 </r>
       <r>    0.6716    0.0000 </r>
       <r>    0.7061    0.0000 </r>
      </set>
      <set comment="kpoint 3">
       <r>  -16.9268    1.0000 </r>
       <r>   -9.6268    1.0000 </r>
       <r>   -9.2918    1.0057 </r>
       <r>   -9.0352    0.9944 </r>
       <r>   -0.3262    0.0000 </r>
       <r>    0.5499    0.0000 </r>
       <r>    0.6680    0.0000 </r>
       <r>    0.7169    0.0000 </r>
      </set>
      <set comment="kpoint 4">
       <r>  -16.9268    1.0000 </r>
       <r>   -9.6268    1.0000 </r>
       <r>   -9.2918    1.0057 </r>
       <r>   -9.0351    0.9942 </r>
       <r>   -0.3265    0.0000 </r>
       <r>    0.5501    0.0000 </r>
       <r>    0.6720    0.0000 </r>
       <r>    0.7180    0.0000 </r>
      </set>
     </set>
    </set>
   </array>
  </eigenvalues>
  <separator name="orbital magnetization" >
   <v name="MAGDIPOLOUT">      0.00000000      0.00000000      0.00000000</v>
  </separator>
  <dos>
   <i name="efermi">     -8.87172738 </i>
   <total>
    <array>
     <dimension dim="1">gridpoints</dimension>
     <dimension dim="2">spin</dimension>
     <field>energy</field>
     <field>total</field>
     <field>integrated</field>
     <set>
      <set comment="spin 1">
       <r>   -18.9269     0.0000     0.0000 </r>
       <r>   -18.8547     0.0000     0.0000 </r>
       <r>   -18.7826     0.0000     0.0000 </r>
       <r>   -18.7104     0.0000     0.0000 </r>
       <r>   -18.6383     0.0000     0.0000 </r>
       <r>   -18.5661    -0.0000    -0.0000 </r>
       <r>   -18.4940    -0.0000    -0.0000 </r>
       <r>   -18.4218    -0.0000    -0.0000 </r>
       <r>   -18.3497    -0.0000    -0.0000 </r>
       <r>   -18.2775    -0.0000    -0.0000 </r>
       <r>   -18.2054    -0.0000    -0.0000 </r>
       <r>   -18.1332    -0.0000    -0.0000 </r>
       <r>   -18.0611    -0.0000    -0.0000 </r>
       <r>   -17.9889    -0.0000    -0.0000 </r>
       <r>   -17.9168    -0.0000    -0.0000 </r>
       <r>   -17.8446    -0.0000    -0.0000 </r>
       <r>   -17.7725    -0.0000    -0.0000 </r>
       <r>   -17.7003    -0.0000    -0.0000 </r>
       <r>   -17.6282    -0.0001    -0.0000 </r>
       <r>   -17.5560    -0.0010    -0.0001 </r>
       <r>   -17.4839    -0.0071    -0.0006 </r>
       <r>   -17.4117    -0.0365    -0.0032 </r>
       <r>   -17.3396    -0.1347    -0.0129 </r>
       <r>   -17.2674    -0.3311    -0.0368 </r>
       <r>   -17.1953    -0.4224    -0.0673 </r>
       <r>   -17.1231     0.2924    -0.0462 </r>
       <r>   -17.0510     2.6050     0.1417 </r>
       <r>   -16.9788     6.0178     0.5759 </r>
       <r>   -16.9067     8.2268     1.1695 </r>
       <r>   -16.8345     7.3029     1.6964 </r>
       <r>   -16.7624     4.0836     1.9910 </r>
       <r>   -16.6902     1.0995     2.0703 </r>
       <r>   -16.6181    -0.2635     2.0513 </r>
       <r>   -16.5459    -0.4135     2.0215 </r>
       <r>   -16.4738    -0.2122     2.0062 </r>
       <r>   -16.4016    -0.0679     2.0013 </r>
       <r>   -16.3295    -0.0152     2.0002 </r>
       <r>   -16.2573    -0.0025     2.0000 </r>
       <r>   -16.1852    -0.0003     2.0000 </r>
       <r>   -16.1130    -0.0000     2.0000 </r>
       <r>   -16.0409    -0.0000     2.0000 </r>
       <r>   -15.9687    -0.0000     2.0000 </r>
       <r>   -15.8966    -0.0000     2.0000 </r>
       <r>   -15.8244    -0.0000     2.0000 </r>
       <r>   -15.7523    -0.0000     2.0000 </r>
       <r>   -15.6801    -0.0000     2.0000 </r>
       <r>   -15.6080     0.0000     2.0000 </r>
       <r>   -15.5358     0.0000     2.0000 </r>
       <r>   -15.4637     0.0000     2.0000 </r>
       <r>   -15.3915     0.0000     2.0000 </r>
       <r>   -15.3194     0.0000     2.0000 </r>
       <r>   -15.2472     0.0000     2.0000 </r>
       <r>   -15.1751     0.0000     2.0000 </r>
       <r>   -15.1029     0.0000     2.0000 </r>
       <r>   -15.0308     0.0000     2.0000 </r>
       <r>   -14.9586     0.0000     2.0000 </r>
       <r>   -14.8865     0.0000     2.0000 </r>
       <r>   -14.8143     0.0000     2.0000 </r>
       <r>   -14.7422     0.0000     2.0000 </r>
       <r>   -14.6700     0.0000     2.0000 </r>
       <r>   -14.5979     0.0000     2.0000 </r>
       <r>   -14.5257     0.0000     2.0000 </r>
       <r>   -14.4536     0.0000     2.0000 </r>
       <r>   -14.3814     0.0000     2.0000 </r>
       <r>   -14.3093     0.0000     2.0000 </r>
       <r>   -14.2371     0.0000     2.0000 </r>
       <r>   -14.1650     0.0000     2.0000 </r>
       <r>   -14.0928     0.0000     2.0000 </r>
       <r>   -14.0207     0.0000     2.0000 </r>
       <r>   -13.9485     0.0000     2.0000 </r>
       <r>   -13.8764     0.0000     2.0000 </r>
       <r>   -13.8042     0.0000     2.0000 </r>
       <r>   -13.7321     0.0000     2.0000 </r>
       <r>   -13.6599     0.0000     2.0000 </r>
       <r>   -13.5878     0.0000     2.0000 </r>
       <r>   -13.5156     0.0000     2.0000 </r>
       <r>   -13.4435     0.0000     2.0000 </r>
       <r>   -13.3713     0.0000     2.0000 </r>
       <r>   -13.2992     0.0000     2.0000 </r>
       <r>   -13.2270     0.0000     2.0000 </r>
       <r>   -13.1549     0.0000     2.0000 </r>
       <r>   -13.0827     0.0000     2.0000 </r>
       <r>   -13.0106     0.0000     2.0000 </r>
       <r>   -12.9384     0.0000     2.0000 </r>
       <r>   -12.8663     0.0000     2.0000 </r>
       <r>   -12.7941     0.0000     2.0000 </r>
       <r>   -12.7220     0.0000     2.0000 </r>
       <r>   -12.6498     0.0000     2.0000 </r>
       <r>   -12.5777     0.0000     2.0000 </r>
       <r>   -12.5055     0.0000     2.0000 </r>
       <r>   -12.4334     0.0000     2.0000 </r>
       <r>   -12.3612     0.0000     2.0000 </r>
       <r>   -12.2891     0.0000     2.0000 </r>
       <r>   -12.2169     0.0000     2.0000 </r>
       <r>   -12.1448     0.0000     2.0000 </r>
       <r>   -12.0726     0.0000     2.0000 </r>
       <r>   -12.0005     0.0000     2.0000 </r>
       <r>   -11.9283     0.0000     2.0000 </r>
       <r>   -11.8562     0.0000     2.0000 </r>
       <r>   -11.7840     0.0000     2.0000 </r>
       <r>   -11.7119     0.0000     2.0000 </r>
       <r>   -11.6397     0.0000     2.0000 </r>
       <r>   -11.5676     0.0000     2.0000 </r>
       <r>   -11.4954     0.0000     2.0000 </r>
       <r>   -11.4233     0.0000     2.0000 </r>
       <r>   -11.3512     0.0000     2.0000 </r>
       <r>   -11.2790    -0.0000     2.0000 </r>
       <r>   -11.2069    -0.0000     2.0000 </r>
       <r>   -11.1347    -0.0000     2.0000 </r>
       <r>   -11.0626    -0.0000     2.0000 </r>
       <r>   -10.9904    -0.0000     2.0000 </r>
       <r>   -10.9183    -0.0000     2.0000 </r>
       <r>   -10.8461    -0.0000     2.0000 </r>
       <r>   -10.7740    -0.0000     2.0000 </r>
       <r>   -10.7018    -0.0000     2.0000 </r>
       <r>   -10.6297    -0.0000     2.0000 </r>
       <r>   -10.5575    -0.0000     2.0000 </r>
       <r>   -10.4854    -0.0000     2.0000 </r>
       <r>   -10.4132    -0.0000     2.0000 </r>
       <r>   -10.3411    -0.0001     2.0000 </r>
       <r>   -10.2689    -0.0007     1.9999 </r>
       <r>   -10.1968    -0.0051     1.9996 </r>
       <r>   -10.1246    -0.0278     1.9976 </r>
       <r>   -10.0525    -0.1095     1.9897 </r>
       <r>    -9.9803    -0.2923     1.9686 </r>
       <r>    -9.9082    -0.4398     1.9369 </r>
       <r>    -9.8360     0.0522     1.9406 </r>
       <r>    -9.7639     2.0203     2.0864 </r>
       <r>    -9.6917     5.2501     2.4652 </r>
       <r>    -9.6196     7.6637     3.0181 </r>
       <r>    -9.5474     7.2986     3.5447 </r>
       <r>    -9.4753     5.2047     3.9202 </r>
       <r>    -9.4031     4.4568     4.2418 </r>
       <r>    -9.3310     6.0098     4.6754 </r>
       <r>    -9.2588     7.7404     5.2338 </r>
       <r>    -9.1867     8.1080     5.8188 </r>
       <r>    -9.1145     8.0978     6.4031 </r>
       <r>    -9.0424     8.4126     7.0101 </r>
       <r>    -8.9702     7.6803     7.5642 </r>
       <r>    -8.8981     5.0293     7.9270 </r>
       <r>    -8.8259     1.8893     8.0634 </r>
       <r>    -8.7538     0.0087     8.0640 </r>
       <r>    -8.6816    -0.4495     8.0315 </r>
       <r>    -8.6095    -0.2939     8.0103 </r>
       <r>    -8.5373    -0.1097     8.0024 </r>
       <r>    -8.4652    -0.0279     8.0004 </r>
       <r>    -8.3930    -0.0051     8.0001 </r>
       <r>    -8.3209    -0.0007     8.0000 </r>
       <r>    -8.2487    -0.0001     8.0000 </r>
       <r>    -8.1766    -0.0000     8.0000 </r>
       <r>    -8.1044    -0.0000     8.0000 </r>
       <r>    -8.0323    -0.0000     8.0000 </r>
       <r>    -7.9601    -0.0000     8.0000 </r>
       <r>    -7.8880    -0.0000     8.0000 </r>
       <r>    -7.8158    -0.0000     8.0000 </r>
       <r>    -7.7437    -0.0000     8.0000 </r>
       <r>    -7.6715     0.0000     8.0000 </r>
       <r>    -7.5994     0.0000     8.0000 </r>
       <r>    -7.5272     0.0000     8.0000 </r>
       <r>    -7.4551     0.0000     8.0000 </r>
       <r>    -7.3829     0.0000     8.0000 </r>
       <r>    -7.3108     0.0000     8.0000 </r>
       <r>    -7.2386     0.0000     8.0000 </r>
       <r>    -7.1665     0.0000     8.0000 </r>
       <r>    -7.0943     0.0000     8.0000 </r>
       <r>    -7.0222     0.0000     8.0000 </r>
       <r>    -6.9500     0.0000     8.0000 </r>
       <r>    -6.8779     0.0000     8.0000 </r>
       <r>    -6.8057     0.0000     8.0000 </r>
       <r>    -6.7336     0.0000     8.0000 </r>
       <r>    -6.6614     0.0000     8.0000 </r>
       <r>    -6.5893     0.0000     8.0000 </r>
       <r>    -6.5171     0.0000     8.0000 </r>
       <r>    -6.4450     0.0000     8.0000 </r>
       <r>    -6.3728     0.0000     8.0000 </r>
       <r>    -6.3007     0.0000     8.0000 </r>
       <r>    -6.2285     0.0000     8.0000 </r>
       <r>    -6.1564     0.0000     8.0000 </r>
       <r>    -6.0842     0.0000     8.0000 </r>
       <r>    -6.0121     0.0000     8.0000 </r>
       <r>    -5.9399     0.0000     8.0000 </r>
       <r>    -5.8678     0.0000     8.0000 </r>
       <r>    -5.7956     0.0000     8.0000 </r>
       <r>    -5.7235     0.0000     8.0000 </r>
       <r>    -5.6513     0.0000     8.0000 </r>
       <r>    -5.5792     0.0000     8.0000 </r>
       <r>    -5.5070     0.0000     8.0000 </r>
       <r>    -5.4349     0.0000     8.0000 </r>
       <r>    -5.3627     0.0000     8.0000 </r>
       <r>    -5.2906     0.0000     8.0000 </r>
       <r>    -5.2184     0.0000     8.0000 </r>
       <r>    -5.1463     0.0000     8.0000 </r>
       <r>    -5.0741     0.0000     8.0000 </r>
       <r>    -5.0020     0.0000     8.0000 </r>
       <r>    -4.9298     0.0000     8.0000 </r>
       <r>    -4.8577     0.0000     8.0000 </r>
       <r>    -4.7855     0.0000     8.0000 </r>
       <r>    -4.7134     0.0000     8.0000 </r>
       <r>    -4.6412     0.0000     8.0000 </r>
       <r>    -4.5691     0.0000     8.0000 </r>
       <r>    -4.4969     0.0000     8.0000 </r>
       <r>    -4.4248     0.0000     8.0000 </r>
       <r>    -4.3526     0.0000     8.0000 </r>
       <r>    -4.2805     0.0000     8.0000 </r>
       <r>    -4.2083     0.0000     8.0000 </r>
       <r>    -4.1362     0.0000     8.0000 </r>
       <r>    -4.0640     0.0000     8.0000 </r>
       <r>    -3.9919     0.0000     8.0000 </r>
       <r>    -3.9197     0.0000     8.0000 </r>
       <r>    -3.8476     0.0000     8.0000 </r>
       <r>    -3.7754     0.0000     8.0000 </r>
       <r>    -3.7033     0.0000     8.0000 </r>
       <r>    -3.6311     0.0000     8.0000 </r>
       <r>    -3.5590     0.0000     8.0000 </r>
       <r>    -3.4868     0.0000     8.0000 </r>
       <r>    -3.4147     0.0000     8.0000 </r>
       <r>    -3.3425     0.0000     8.0000 </r>
       <r>    -3.2704     0.0000     8.0000 </r>
       <r>    -3.1982     0.0000     8.0000 </r>
       <r>    -3.1261     0.0000     8.0000 </r>
       <r>    -3.0539     0.0000     8.0000 </r>
       <r>    -2.9818     0.0000     8.0000 </r>
       <r>    -2.9096     0.0000     8.0000 </r>
       <r>    -2.8375     0.0000     8.0000 </r>
       <r>    -2.7653     0.0000     8.0000 </r>
       <r>    -2.6932     0.0000     8.0000 </r>
       <r>    -2.6210     0.0000     8.0000 </r>
       <r>    -2.5489     0.0000     8.0000 </r>
       <r>    -2.4767     0.0000     8.0000 </r>
       <r>    -2.4046     0.0000     8.0000 </r>
       <r>    -2.3324     0.0000     8.0000 </r>
       <r>    -2.2603     0.0000     8.0000 </r>
       <r>    -2.1881     0.0000     8.0000 </r>
       <r>    -2.1160     0.0000     8.0000 </r>
       <r>    -2.0438     0.0000     8.0000 </r>
       <r>    -1.9717    -0.0000     8.0000 </r>
       <r>    -1.8995    -0.0000     8.0000 </r>
       <r>    -1.8274    -0.0000     8.0000 </r>
       <r>    -1.7552    -0.0000     8.0000 </r>
       <r>    -1.6831    -0.0000     8.0000 </r>
       <r>    -1.6109    -0.0000     8.0000 </r>
       <r>    -1.5388    -0.0000     8.0000 </r>
       <r>    -1.4666    -0.0000     8.0000 </r>
       <r>    -1.3945    -0.0000     8.0000 </r>
       <r>    -1.3223    -0.0000     8.0000 </r>
       <r>    -1.2502    -0.0000     8.0000 </r>
       <r>    -1.1780    -0.0000     8.0000 </r>
       <r>    -1.1059    -0.0000     8.0000 </r>
       <r>    -1.0337    -0.0001     8.0000 </r>
       <r>    -0.9616    -0.0008     7.9999 </r>
       <r>    -0.8894    -0.0061     7.9995 </r>
       <r>    -0.8173    -0.0324     7.9972 </r>
       <r>    -0.7451    -0.1231     7.9883 </r>
       <r>    -0.6730    -0.3140     7.9656 </r>
       <r>    -0.6008    -0.4322     7.9344 </r>
       <r>    -0.5287     0.1842     7.9477 </r>
       <r>    -0.4565     2.3625     8.1182 </r>
       <r>    -0.3844     5.7554     8.5334 </r>
       <r>    -0.3122     8.1554     9.1218 </r>
       <r>    -0.2401     7.4888     9.6621 </r>
       <r>    -0.1679     4.3614     9.9768 </r>
       <r>    -0.0958     1.2803    10.0692 </r>
       <r>    -0.0236    -0.2162    10.0536 </r>
       <r>     0.0485    -0.4477    10.0213 </r>
       <r>     0.1206    -0.3322     9.9973 </r>
       <r>     0.1928    -0.3977     9.9686 </r>
       <r>     0.2649    -0.6830     9.9194 </r>
       <r>     0.3371    -0.6722     9.8709 </r>
       <r>     0.4092     0.8535     9.9324 </r>
       <r>     0.4814     5.1945    10.3072 </r>
       <r>     0.5535    12.1212    11.1818 </r>
       <r>     0.6257    18.7775    12.5366 </r>
       <r>     0.6978    21.0299    14.0539 </r>
       <r>     0.7700    17.0204    15.2819 </r>
       <r>     0.8421     9.3558    15.9569 </r>
       <r>     0.9143     2.7225    16.1533 </r>
       <r>     0.9864    -0.4361    16.1219 </r>
       <r>     1.0586    -0.9266    16.0550 </r>
       <r>     1.1307    -0.5245    16.0172 </r>
       <r>     1.2029    -0.1836    16.0039 </r>
       <r>     1.2750    -0.0449    16.0007 </r>
       <r>     1.3472    -0.0080    16.0001 </r>
       <r>     1.4193    -0.0011    16.0000 </r>
       <r>     1.4915    -0.0001    16.0000 </r>
       <r>     1.5636    -0.0000    16.0000 </r>
       <r>     1.6358    -0.0000    16.0000 </r>
       <r>     1.7079    -0.0000    16.0000 </r>
       <r>     1.7801    -0.0000    16.0000 </r>
       <r>     1.8522    -0.0000    16.0000 </r>
       <r>     1.9244    -0.0000    16.0000 </r>
       <r>     1.9965    -0.0000    16.0000 </r>
       <r>     2.0687     0.0000    16.0000 </r>
       <r>     2.1408     0.0000    16.0000 </r>
       <r>     2.2130     0.0000    16.0000 </r>
       <r>     2.2851     0.0000    16.0000 </r>
       <r>     2.3573     0.0000    16.0000 </r>
       <r>     2.4294     0.0000    16.0000 </r>
       <r>     2.5016     0.0000    16.0000 </r>
       <r>     2.5737     0.0000    16.0000 </r>
       <r>     2.6459     0.0000    16.0000 </r>
       <r>     2.7180     0.0000    16.0000 </r>
      </set>
     </set>
    </array>
   </total>
  </dos>
 </calculation>
 <structure name="finalpos" >
  <crystal>
   <varray name="basis" >
    <v>      10.00000000       0.00000000       0.00000000 </v>
    <v>       0.00000000      10.00000000       0.00000000 </v>
    <v>       0.00000000       0.00000000      10.00000000 </v>
   </varray>
   <i name="volume">   1000.00000000 </i>
   <varray name="rec_basis" >
    <v>       0.10000000       0.00000000       0.00000000 </v>
    <v>       0.00000000       0.10000000       0.00000000 </v>
    <v>       0.00000000       0.00000000       0.10000000 </v>
   </varray>
  </crystal>
  <varray name="positions" >
   <v>       0.52308240       0.40044250       0.36151112 </v>
   <v>       0.39257977       0.48650006       0.45287106 </v>
   <v>       0.56513368       0.55735128       0.43609177 </v>
   <v>       0.52894883       0.41489444       0.53927153 </v>
   <v>       0.50351927       0.46807592       0.44449866 </v>
  </varray>
  <varray name="velocities" >
   <v>       0.00034428       0.00261550      -0.00029520 </v>
   <v>      -0.00119736       0.00126700       0.00222033 </v>
   <v>       0.00188132      -0.00335008      -0.00217709 </v>
   <v>      -0.00047429      -0.00090510       0.00144557 </v>
   <v>      -0.00004612       0.00003103      -0.00009938 </v>
  </varray>
 </structure>
</modeling>
