unknown system                          
           1
    10.000000    0.000000    0.000000
     0.000000   10.000000    0.000000
     0.000000    0.000000   10.000000
   H    C 
   4   1
Direct configuration=     1
   0.53815434  0.40686080  0.36057301
   0.39453966  0.48032057  0.43846884
   0.55209243  0.56545029  0.44270874
   0.52818530  0.41641476  0.53918266
   0.50325059  0.46725516  0.44523234
Direct configuration=     2
   0.53833207  0.40629515  0.35856760
   0.39690890  0.48175662  0.44183470
   0.55286406  0.56621254  0.44280966
   0.52862464  0.41535963  0.54054591
   0.50293772  0.46720708  0.44499717
Direct configuration=     3
   0.53875273  0.40586010  0.35804579
   0.39660826  0.48201967  0.44629828
   0.55420025  0.56620702  0.44256072
   0.52823459  0.41425548  0.54056655
   0.50284895  0.46731378  0.44468800
Direct configuration=     4
   0.53830559  0.40603184  0.35857248
   0.39420705  0.48213785  0.44972248
   0.55437932  0.56444162  0.44278763
   0.52731240  0.41425955  0.53797771
   0.50314797  0.46743629  0.44455571
Direct configuration=     5
   0.53613340  0.40603191  0.36013076
   0.39427499  0.48564119  0.45105016
   0.55415077  0.56363562  0.44338154
   0.52771609  0.41438826  0.53470718
   0.50330858  0.46720100  0.44453828
Direct configuration=     6
   0.53345001  0.40355651  0.35907922
   0.39567911  0.48857802  0.45154664
   0.55501014  0.56554779  0.44331879
   0.53047458  0.41287114  0.53734404
   0.50311388  0.46712969  0.44437018
Direct configuration=     7
   0.53064098  0.40156955  0.35820108
   0.39768552  0.48874968  0.45113867
   0.55593270  0.56508563  0.44246206
   0.53096479  0.41261746  0.53878616
   0.50306308  0.46734042  0.44442852
Direct configuration=     8
   0.52564350  0.40193059  0.36085631
   0.39969030  0.48682087  0.44917265
   0.55803103  0.56219927  0.44087522
   0.53018623  0.41426393  0.53826699
   0.50320236  0.46757418  0.44454648
Direct configuration=     9
   0.52279802  0.39961211  0.36302623
   0.39643259  0.48501653  0.44893833
   0.56048068  0.56117223  0.43960650
   0.53001698  0.41568035  0.53751237
   0.50352063  0.46788502  0.44455378
Direct configuration=    10
   0.52273813  0.39782700  0.36180632
   0.39377713  0.48523306  0.45065074
   0.56325236  0.56070135  0.43826886
   0.52942311  0.41579954  0.53782597
   0.50356539  0.46804489  0.44459804
